unary octane box
110000
    1OCT     C1    1  21.142   0.693  15.347 -0.3813 -0.0730  0.2430
    1OCT     C2    2  21.538   0.558  15.576 -0.1890  0.1962 -0.4357
    2OCT     C1    3   2.919  12.423  11.422 -0.1838  0.0516  0.0510
    2OCT     C2    4   3.113  12.439  11.845  0.2964 -0.2624 -0.1610
    3OCT     C1    5  16.613   9.931   1.977 -0.3492 -0.2846 -0.0585
    3OCT     C2    6  17.062   9.840   1.853 -0.0974  0.1519  0.1918
    4OCT     C1    7  21.426  12.795  10.619 -0.2580 -0.1998  0.1525
    4OCT     C2    8  21.563  12.992  11.036 -0.0601  0.0196 -0.0991
    5OCT     C1    9   8.979   4.164   2.356  0.2316  0.1160 -0.4274
    5OCT     C2   10   8.675   4.543   2.418  0.2699 -0.2804 -0.2155
    6OCT     C1   11  11.903   9.108  12.918 -0.0402 -0.3236  0.1663
    6OCT     C2   12  12.304   9.369  12.711  0.1554  0.1110  0.2220
    7OCT     C1   13  18.484   2.726   7.323  0.0800 -0.1485  0.2781
    7OCT     C2   14  18.275   2.579   6.952  0.1065 -0.0867 -0.2368
    8OCT     C1   15  17.150  10.846   8.881 -0.0434 -0.0739 -0.0767
    8OCT     C2   16  16.838  11.166   8.808  0.1250  0.2496 -0.0370
    9OCT     C1   17   8.890  16.634  23.411  0.1806 -0.1845 -0.3878
    9OCT     C2   18   9.351  16.806  23.323  0.2061 -0.1319  0.1847
   10OCT     C1   19   8.885   4.089   3.696 -0.0897 -0.2239  0.5539
   10OCT     C2   20   9.048   4.520   3.734 -0.3779  0.2771  0.0433
   11OCT     C1   21   1.858  19.315  10.604  0.2075  0.0203  0.0354
   11OCT     C2   22   1.423  19.182  10.670  0.1866  0.3135  0.0376
   12OCT     C1   23   8.389  20.025  18.784  0.0170 -0.2180  0.3192
   12OCT     C2   24   8.639  19.614  18.794 -0.3385  0.1773  0.1945
   13OCT     C1   25  16.679  16.538  23.007  0.5080 -0.2792 -0.0505
   13OCT     C2   26  16.358  16.452  22.663 -0.3208 -0.1747  0.0666
   14OCT     C1   27  15.073  10.580   9.970 -0.1165 -0.0074  0.3432
   14OCT     C2   28  14.629  10.598  10.036 -0.1815  0.3513  0.0758
   15OCT     C1   29   5.757   2.923  16.250 -0.1123  0.0476 -0.2096
   15OCT     C2   30   5.277   3.127  16.193  0.1946  0.0399 -0.0074
   16OCT     C1   31  14.370  12.801   5.304 -0.2740 -0.4511  0.4705
   16OCT     C2   32  14.484  13.201   5.461  0.1884 -0.3140 -0.1538
   17OCT     C1   33  18.983  18.523   7.144 -0.0160  0.2008 -0.0891
   17OCT     C2   34  19.351  18.726   7.048  0.3636  0.2538  0.3086
   18OCT     C1   35   8.053  14.781  19.695 -0.2185 -0.2509 -0.0570
   18OCT     C2   36   7.635  14.760  19.670 -0.2450  0.2670 -0.0435
   19OCT     C1   37  14.537  15.393   0.515  0.3192  0.1895 -0.4515
   19OCT     C2   38  14.735  15.857   0.592  0.0162 -0.0961 -0.1540
   20OCT     C1   39   0.994  14.182  18.947 -0.2446  0.0032 -0.0285
   20OCT     C2   40   0.857  14.536  19.261 -0.0330 -0.3964  0.1295
   21OCT     C1   41   1.975   7.108  13.629 -0.0861  0.1780 -0.0359
   21OCT     C2   42   1.737   7.562  13.502 -0.2223  0.4132  0.0564
   22OCT     C1   43   5.700   1.777  23.583  0.1208 -0.2234  0.2891
   22OCT     C2   44   5.832   1.527  23.264  0.2158  0.1856  0.3598
   23OCT     C1   45   3.708  20.878   7.841 -0.1457  0.2661  0.4541
   23OCT     C2   46   4.042  21.014   7.523 -0.0935 -0.3389  0.0112
   24OCT     C1   47   2.713  19.919   6.708  0.0226 -0.2753 -0.0542
   24OCT     C2   48   2.983  19.851   7.127  0.0137  0.1101 -0.3905
   25OCT     C1   49   3.548   6.793   6.683  0.0467 -0.2955  0.1425
   25OCT     C2   50   3.228   6.576   6.518 -0.3164  0.1632 -0.1534
   26OCT     C1   51   7.403   2.647   6.720  0.0446  0.2166 -0.4506
   26OCT     C2   52   6.940   2.671   6.839 -0.0449  0.5658  0.0824
   27OCT     C1   53  13.431  23.088   8.735  0.3214  0.1789  0.1398
   27OCT     C2   54  13.524  23.406   9.087  0.1772  0.2155  0.3142
   28OCT     C1   55   2.316   0.149  23.529  0.2573  0.0917  0.0707
   28OCT     C2   56   1.861   0.080  23.553  0.3903  0.0987  0.1136
   29OCT     C1   57  21.517   8.508  12.854 -0.1415 -0.0033  0.1485
   29OCT     C2   58  21.731   8.112  12.981 -0.0180  0.1652 -0.0605
   30OCT     C1   59  10.851   1.221  20.506  0.0742 -0.1322  0.0915
   30OCT     C2   60  11.105   1.352  20.184  0.2783 -0.1060 -0.0170
   31OCT     C1   61   4.412  21.584  21.240 -0.1405 -0.2083 -0.0289
   31OCT     C2   62   4.671  21.983  21.361 -0.3519 -0.0584  0.0860
   32OCT     C1   63  17.538  22.338   0.971  0.0090  0.0123  0.2638
   32OCT     C2   64  17.417  22.731   1.196 -0.0995 -0.1781  0.1801
   33OCT     C1   65   1.415   9.038  20.487 -0.0801 -0.2609  0.3805
   33OCT     C2   66   1.257   9.070  20.871  0.1241 -0.0944 -0.1916
   34OCT     C1   67   5.203   1.446   9.070  0.0442 -0.1942 -0.4783
   34OCT     C2   68   5.309   1.309   9.474 -0.0022  0.2749 -0.2790
   35OCT     C1   69  10.541  13.435  10.551 -0.5544 -0.2067 -0.3170
   35OCT     C2   70  10.989  13.438  10.282  0.2906 -0.2355  0.0159
   36OCT     C1   71   9.122  18.466  18.835 -0.0368 -0.4384  0.0339
   36OCT     C2   72   8.716  18.666  18.695 -0.3579 -0.1466  0.1963
   37OCT     C1   73  14.578  20.695   6.837 -0.0436  0.0396  0.2496
   37OCT     C2   74  14.550  21.152   6.886 -0.0731 -0.0177 -0.2038
   38OCT     C1   75  17.569  15.588   4.826 -0.0893 -0.0708 -0.0866
   38OCT     C2   76  17.200  15.341   4.679 -0.2554  0.2550 -0.2401
   39OCT     C1   77  14.236  14.016  23.435  0.0632 -0.2231  0.0490
   39OCT     C2   78  13.887  14.084   0.045 -0.2542 -0.1336  0.0734
   40OCT     C1   79  14.198  15.307  16.256 -0.2911 -0.0420 -0.1536
   40OCT     C2   80  14.422  15.508  16.559 -0.1318 -0.5785 -0.2133
   41OCT     C1   81  11.350  22.735  13.554  0.1396 -0.1111  0.0511
   41OCT     C2   82  11.045  23.077  13.639 -0.3111 -0.2923  0.0001
   42OCT     C1   83   1.152  13.660   7.671 -0.0431  0.1469  0.3057
   42OCT     C2   84   1.440  13.430   7.358 -0.1902  0.0895  0.1759
   43OCT     C1   85  13.368   7.961   5.481 -0.0751  0.1345  0.0152
   43OCT     C2   86  13.277   7.804   5.926 -0.0511  0.0710 -0.0405
   44OCT     C1   87   2.591  23.321   0.824  0.1947  0.0053 -0.0592
   44OCT     C2   88   2.903  23.421   0.486 -0.0411  0.3601  0.0288
   45OCT     C1   89   3.722  13.472   6.073 -0.1148 -0.3342 -0.2070
   45OCT     C2   90   3.766  13.452   6.547  0.2283  0.0015 -0.0902
   46OCT     C1   91  22.803   6.881  13.555 -0.5932  0.0846  0.1771
   46OCT     C2   92  22.869   6.703  14.035 -0.4126  0.1557  0.2711
   47OCT     C1   93  14.197   2.879   0.196  0.2280 -0.2009 -0.1757
   47OCT     C2   94  14.477   2.804  23.595 -0.2774  0.1216 -0.5736
   48OCT     C1   95  16.387   3.940   2.378 -0.2949  0.0349  0.1926
   48OCT     C2   96  16.254   4.261   2.607  0.3787  0.2830 -0.0652
   49OCT     C1   97   9.777  14.316  10.845 -0.0737 -0.1623  0.0403
   49OCT     C2   98   9.997  14.730  10.943  0.0587 -0.1297  0.2773
   50OCT     C1   99  21.983  15.978  16.424 -0.1561 -0.0396  0.3633
   50OCT     C2  100  21.885  16.114  16.011 -0.0902  0.2029  0.3088
   51OCT     C1  101   0.952   9.069  11.915  0.1301 -0.1287  0.0471
   51OCT     C2  102   1.141   9.039  12.346  0.0228  0.0476 -0.1027
   52OCT     C1  103   5.880  11.634   5.769  0.0849 -0.6206  0.0222
   52OCT     C2  104   5.954  12.082   5.546 -0.4583  0.0588  0.0327
   53OCT     C1  105  17.443   5.429  22.925  0.2031 -0.3977  0.0495
   53OCT     C2  106  17.823   5.648  23.097 -0.0830 -0.0852 -0.0538
   54OCT     C1  107   2.391   0.615  20.027  0.1365  0.1060 -0.1115
   54OCT     C2  108   2.108   0.548  19.709 -0.1173 -0.1771  0.2031
   55OCT     C1  109   2.746   8.517   4.275 -0.4453  0.1661 -0.2067
   55OCT     C2  110   2.748   8.505   4.757 -0.1538  0.1251  0.1955
   56OCT     C1  111   8.530   6.238  12.808  0.2809  0.2048 -0.2245
   56OCT     C2  112   8.699   6.692  12.871  0.0135 -0.5105 -0.3117
   57OCT     C1  113   4.356  21.536  14.194  0.2236  0.2140  0.1067
   57OCT     C2  114   4.279  21.016  14.007  0.2930  0.0683 -0.1670
   58OCT     C1  115  13.754  13.559  22.224  0.2630  0.0140  0.2682
   58OCT     C2  116  13.521  13.104  22.234 -0.0874  0.3057 -0.0237
   59OCT     C1  117   2.017  18.112   2.880  0.3867  0.0085  0.1301
   59OCT     C2  118   1.613  18.087   2.702 -0.0520  0.0571 -0.0262
   60OCT     C1  119  23.255   8.549   4.473  0.2708 -0.0914 -0.0821
   60OCT     C2  120  23.202   8.978   4.745  0.1185  0.2785 -0.2287
   61OCT     C1  121  14.902  20.289  18.993 -0.0112  0.0673  0.3888
   61OCT     C2  122  15.234  20.359  19.259  0.0501  0.2444  0.1188
   62OCT     C1  123   1.968  18.489   0.399 -0.3180  0.0136  0.2351
   62OCT     C2  124   2.134  18.399  23.672  0.1249 -0.3028 -0.1250
   63OCT     C1  125   9.373   6.682   0.490  0.1963 -0.0851 -0.1037
   63OCT     C2  126   9.601   6.280   0.655  0.1395 -0.3344 -0.5354
   64OCT     C1  127  17.369   0.308  21.216 -0.3338  0.2499  0.0061
   64OCT     C2  128  17.399   0.249  21.678 -0.1172 -0.1367  0.2467
   65OCT     C1  129  11.522  21.603  20.677  0.0184 -0.4230  0.1469
   65OCT     C2  130  11.521  21.825  20.251  0.2313  0.0997 -0.3224
   66OCT     C1  131  13.285  14.791   7.137 -0.0222  0.0943  0.3027
   66OCT     C2  132  13.490  14.995   7.503  0.3287  0.3935 -0.0268
   67OCT     C1  133  16.633   5.606   7.719 -0.1830  0.0462 -0.1107
   67OCT     C2  134  16.167   5.713   7.819  0.1147  0.0500 -0.1052
   68OCT     C1  135   8.496  16.145  22.560  0.3187 -0.0979 -0.1197
   68OCT     C2  136   8.542  15.667  22.433 -0.1218  0.1082  0.2217
   69OCT     C1  137   4.390  19.353   6.972  0.2289 -0.0817 -0.0479
   69OCT     C2  138   4.668  19.212   7.285 -0.2432 -0.2268 -0.0735
   70OCT     C1  139   3.997  12.946  16.704 -0.1452  0.3631  0.5096
   70OCT     C2  140   3.949  12.934  17.183 -0.2248 -0.2447 -0.0096
   71OCT     C1  141  10.590  10.988  23.315  0.0644  0.3903  0.4323
   71OCT     C2  142  10.971  10.945  23.590  0.0775  0.3426 -0.3322
   72OCT     C1  143  19.819  20.247  18.338  0.3183 -0.2920  0.1251
   72OCT     C2  144  19.874  20.668  18.359 -0.0389 -0.0900 -0.4179
   73OCT     C1  145  20.053   8.405  10.420 -0.2443  0.1014 -0.2943
   73OCT     C2  146  19.716   8.655  10.201 -0.1036 -0.1330  0.0924
   74OCT     C1  147  13.461   5.409  13.905  0.0051 -0.1199 -0.3307
   74OCT     C2  148  13.564   5.733  13.580 -0.2061  0.2127  0.3563
   75OCT     C1  149  15.657   1.677  17.204  0.1509 -0.1340  0.0900
   75OCT     C2  150  15.237   1.708  17.032 -0.1708 -0.1133  0.2516
   76OCT     C1  151   3.083   8.019   7.909 -0.2286  0.2662 -0.3536
   76OCT     C2  152   2.828   7.908   8.301 -0.0162 -0.0200 -0.1439
   77OCT     C1  153   5.886  23.476  21.909 -0.2335  0.0397 -0.0864
   77OCT     C2  154   5.549  23.666  21.702  0.1239  0.1385  0.1679
   78OCT     C1  155   2.911  15.908  18.945 -0.1581 -0.1000  0.1690
   78OCT     C2  156   2.725  16.314  19.138 -0.0797 -0.0150 -0.1304
   79OCT     C1  157   3.906   8.934   2.495  0.0178 -0.3603  0.2090
   79OCT     C2  158   3.662   8.916   2.094  0.3381  0.3812  0.1123
   80OCT     C1  159   0.686  10.392   2.074 -0.3152  0.2117  0.2831
   80OCT     C2  160   1.030  10.371   2.391  0.1192 -0.0112 -0.1373
   81OCT     C1  161  16.491   1.495  20.661  0.0669  0.3014 -0.5834
   81OCT     C2  162  16.392   1.588  21.110 -0.4535  0.1549 -0.1284
   82OCT     C1  163   7.451   7.889   8.582 -0.0468 -0.1520  0.4133
   82OCT     C2  164   6.961   7.883   8.670 -0.0908  0.4227 -0.2262
   83OCT     C1  165  19.729   3.684  23.055  0.0083  0.0530 -0.1296
   83OCT     C2  166  19.966   3.607  23.458  0.1571 -0.1536 -0.0754
   84OCT     C1  167  17.129  14.294   1.941  0.0977  0.0472 -0.1221
   84OCT     C2  168  16.682  14.252   1.778  0.1958 -0.0667  0.2323
   85OCT     C1  169   3.685   9.937  17.152 -0.1257  0.1826 -0.1929
   85OCT     C2  170   3.984  10.011  17.538  0.0850 -0.4522  0.1055
   86OCT     C1  171  21.933   3.112  14.024 -0.3246  0.1506  0.1046
   86OCT     C2  172  22.022   2.869  13.655 -0.2191  0.2136  0.0867
   87OCT     C1  173  19.869   1.247   0.367  0.0373  0.3911  0.1646
   87OCT     C2  174  20.094   0.978   0.693  0.1104 -0.0302 -0.0309
   88OCT     C1  175  14.560   0.257  10.445  0.1546  0.0384  0.1301
   88OCT     C2  176  14.273  23.706  10.242  0.1242 -0.3281  0.1681
   89OCT     C1  177  16.100  16.213  22.265 -0.2910 -0.0759 -0.0808
   89OCT     C2  178  15.864  16.267  21.921  0.0314 -0.2811 -0.1669
   90OCT     C1  179   6.902  16.166  19.382 -0.0582 -0.3647 -0.0622
   90OCT     C2  180   7.016  16.489  19.051 -0.1175  0.2712 -0.0026
   91OCT     C1  181   3.331  14.484  10.045  0.1772 -0.4668  0.2935
   91OCT     C2  182   3.102  14.555   9.618 -0.0079  0.1327  0.0659
   92OCT     C1  183  13.798  23.258  22.453 -0.4843  0.1116  0.0845
   92OCT     C2  184  13.537  23.220  22.813 -0.0663 -0.0952  0.5003
   93OCT     C1  185  12.560  22.429  10.640 -0.5176 -0.0897  0.0079
   93OCT     C2  186  13.005  22.503  10.517 -0.1255 -0.4339  0.1228
   94OCT     C1  187   2.624  10.988   5.081 -0.2839 -0.3096 -0.1423
   94OCT     C2  188   2.508  11.092   4.597  0.0294 -0.0055 -0.2266
   95OCT     C1  189   8.080   6.978  13.761  0.0951  0.1940  0.0141
   95OCT     C2  190   7.982   6.507  13.676  0.1765  0.3230 -0.0073
   96OCT     C1  191  15.529  11.052  19.858 -0.0396  0.3493 -0.2567
   96OCT     C2  192  15.448  10.580  19.895 -0.2409 -0.2283 -0.0422
   97OCT     C1  193  19.265  14.732  14.426 -0.0323  0.3100 -0.4085
   97OCT     C2  194  19.684  14.595  14.407  0.3066  0.0920  0.0731
   98OCT     C1  195  18.424  16.993   1.168  0.1417  0.0252 -0.1024
   98OCT     C2  196  18.181  17.121   1.534 -0.1586 -0.0395  0.2563
   99OCT     C1  197  18.871  19.450  18.348  0.2404 -0.1856 -0.0967
   99OCT     C2  198  18.573  19.790  18.375  0.0283 -0.1299 -0.0161
  100OCT     C1  199   4.919   1.288  14.292  0.0920 -0.1071  0.0535
  100OCT     C2  200   4.944   1.751  14.210  0.4298 -0.3624  0.2252
  101OCT     C1  201  21.564  18.765  17.138 -0.0185  0.1870 -0.1139
  101OCT     C2  202  21.959  18.474  16.985 -0.1404  0.0803 -0.1320
  102OCT     C1  203   6.933   4.761  18.334  0.0312  0.2746 -0.1544
  102OCT     C2  204   7.329   4.460  18.167  0.2666  0.1584  0.2750
  103OCT     C1  205  15.427  20.814   5.855 -0.1986  0.2069  0.1771
  103OCT     C2  206  15.765  21.135   5.921 -0.0978 -0.0930  0.0852
  104OCT     C1  207   7.303  18.923  17.137  0.1879 -0.0230 -0.1292
  104OCT     C2  208   7.084  19.261  17.321 -0.2389 -0.0006  0.0051
  105OCT     C1  209  12.302   4.717  16.582 -0.0243 -0.1136  0.2991
  105OCT     C2  210  12.400   4.286  16.453  0.1754 -0.0935 -0.1177
  106OCT     C1  211  20.860  23.528   2.292  0.0801 -0.1661  0.0395
  106OCT     C2  212  20.413  23.682   2.525 -0.3918 -0.0453  0.2044
  107OCT     C1  213  22.034  22.044   3.224 -0.1669  0.2783 -0.2884
  107OCT     C2  214  21.694  22.140   3.554 -0.2839 -0.0339 -0.0480
  108OCT     C1  215   8.627  14.013  10.029 -0.0539 -0.0222 -0.3009
  108OCT     C2  216   8.800  13.596   9.968  0.1920  0.0148 -0.1097
  109OCT     C1  217  10.882  14.801   9.800  0.4552 -0.0659  0.3230
  109OCT     C2  218  10.580  15.084   9.542 -0.3237 -0.1002 -0.1393
  110OCT     C1  219  16.367   2.025  16.541 -0.1290  0.2111  0.0367
  110OCT     C2  220  16.884   1.958  16.475  0.2826 -0.2741 -0.1018
  111OCT     C1  221  17.625  16.146   4.652  0.0627 -0.2283  0.1109
  111OCT     C2  222  18.111  16.075   4.579  0.2929 -0.1949 -0.1618
  112OCT     C1  223  10.659   1.018  18.032 -0.0935 -0.1385 -0.1229
  112OCT     C2  224  10.668   0.837  17.628 -0.0292 -0.0691 -0.3693
  113OCT     C1  225   5.055  20.128   3.891  0.2809  0.2177 -0.3535
  113OCT     C2  226   4.843  19.821   4.123 -0.0951  0.0372 -0.1001
  114OCT     C1  227  10.602   6.426  20.640 -0.0760 -0.1176  0.2735
  114OCT     C2  228  10.378   6.583  20.268 -0.1657 -0.0528 -0.2391
  115OCT     C1  229   2.645  12.131   3.856  0.2266 -0.0986 -0.1907
  115OCT     C2  230   2.455  11.777   3.670 -0.2586 -0.0107  0.2708
  116OCT     C1  231   5.102   4.220   8.084 -0.1213 -0.2002  0.1297
  116OCT     C2  232   5.064   3.836   8.336  0.2036  0.1197 -0.1371
  117OCT     C1  233   6.751  16.682  10.166  0.2618  0.4205 -0.1339
  117OCT     C2  234   6.697  16.202  10.213 -0.0358 -0.0447  0.3627
  118OCT     C1  235   8.400   2.182  17.552  0.0496  0.2163  0.0221
  118OCT     C2  236   8.034   2.067  17.361 -0.1027  0.0827  0.1122
  119OCT     C1  237   6.523  20.096   5.271 -0.1322  0.2031 -0.6294
  119OCT     C2  238   6.529  19.919   5.681 -0.1459 -0.3824 -0.3630
  120OCT     C1  239  11.449  16.415   7.219  0.1116  0.1104 -0.5404
  120OCT     C2  240  11.071  16.419   7.020 -0.0170 -0.1795 -0.2429
  121OCT     C1  241  10.079  18.036   8.910  0.0035 -0.2683  0.1931
  121OCT     C2  242  10.265  17.675   8.590 -0.1713 -0.0077 -0.0284
  122OCT     C1  243  20.539  12.483  15.708 -0.3776  0.4000  0.1634
  122OCT     C2  244  20.398  12.913  15.683 -0.0912  0.0200  0.2279
  123OCT     C1  245  21.256   8.797  18.353 -0.2139 -0.1251 -0.0618
  123OCT     C2  246  21.454   9.223  18.247 -0.0549 -0.4642  0.1390
  124OCT     C1  247  20.324  20.035   5.372 -0.1155 -0.3365  0.1533
  124OCT     C2  248  20.343  19.519   5.276 -0.1158  0.4395 -0.0258
  125OCT     C1  249  10.662  22.354  16.645  0.0613 -0.0509 -0.0167
  125OCT     C2  250  10.733  21.961  16.565 -0.4091  0.2501 -0.2220
  126OCT     C1  251  10.806  14.989  16.229  0.0956  0.0788  0.0717
  126OCT     C2  252  10.730  15.363  15.984 -0.0224 -0.4132  0.0739
  127OCT     C1  253   0.371   6.970   4.246 -0.0268 -0.3398 -0.4658
  127OCT     C2  254   0.596   7.163   3.889 -0.0575 -0.0682  0.2435
  128OCT     C1  255   7.023  11.972   5.179 -0.1812  0.1176  0.2190
  128OCT     C2  256   7.220  11.880   5.603  0.1689  0.1070  0.1728
  129OCT     C1  257   4.201   3.923   2.832  0.0372 -0.0516  0.3320
  129OCT     C2  258   4.455   3.573   2.599  0.0013 -0.1590  0.0669
  130OCT     C1  259  10.918  12.121  10.525  0.3607  0.2143 -0.3031
  130OCT     C2  260  10.888  12.415  10.938  0.2130  0.2516 -0.1625
  131OCT     C1  261  19.608   5.873  22.790  0.1030  0.1002  0.1453
  131OCT     C2  262  19.298   6.101  22.582 -0.1706  0.2423 -0.0476
  132OCT     C1  263   2.750  18.738  19.980  0.0108  0.0202  0.0513
  132OCT     C2  264   3.059  18.405  20.023  0.2297 -0.0749  0.3090
  133OCT     C1  265   8.114  19.761   6.555 -0.1460  0.3019  0.2195
  133OCT     C2  266   7.707  19.654   6.334  0.0794 -0.2085 -0.1227
  134OCT     C1  267   4.368  22.063  14.453 -0.0030  0.2861 -0.0108
  134OCT     C2  268   4.135  22.042  14.023  0.1763  0.1611 -0.1259
  135OCT     C1  269  12.682  22.272   7.815 -0.2032 -0.0733  0.3213
  135OCT     C2  270  13.100  22.369   7.995  0.0223 -0.0093 -0.1810
  136OCT     C1  271  15.284  23.429  18.798 -0.2613  0.1068  0.0603
  136OCT     C2  272  14.976  23.703  18.531 -0.0178  0.0869  0.2761
  137OCT     C1  273  10.216  16.527  17.891  0.1268 -0.0662  0.1520
  137OCT     C2  274   9.909  16.775  17.673 -0.2864 -0.0722 -0.4313
  138OCT     C1  275  23.671   8.222  21.186 -0.1693 -0.1835  0.0144
  138OCT     C2  276  23.493   8.505  20.818  0.1237  0.2837 -0.1968
  139OCT     C1  277  20.978  12.093   7.149 -0.3495 -0.2076 -0.0182
  139OCT     C2  278  20.844  12.462   6.962  0.0469 -0.2608 -0.0986
  140OCT     C1  279   1.026  16.491  23.011 -0.0942  0.0256 -0.0118
  140OCT     C2  280   1.357  16.121  22.937  0.0203 -0.2359 -0.0475
  141OCT     C1  281   9.939   3.509   8.539  0.0343  0.1006 -0.0104
  141OCT     C2  282   9.775   3.171   8.819 -0.0972 -0.2658 -0.1036
  142OCT     C1  283   0.124  23.235   9.420 -0.3161  0.0785  0.2815
  142OCT     C2  284   0.307  23.464   9.081  0.0341  0.1086  0.0392
  143OCT     C1  285   9.274  19.854  22.911 -0.0351 -0.3782 -0.1575
  143OCT     C2  286   9.695  19.804  23.013  0.1585  0.0416  0.1771
  144OCT     C1  287  18.458  23.596   7.038  0.0611  0.0290 -0.1109
  144OCT     C2  288  18.586  23.351   7.357  0.0958  0.0313  0.1954
  145OCT     C1  289   3.481  12.646  18.674 -0.1214  0.1065 -0.2266
  145OCT     C2  290   2.995  12.752  18.811  0.0859  0.2351 -0.1346
  146OCT     C1  291  15.335   6.725   7.588  0.0421 -0.1833 -0.0049
  146OCT     C2  292  15.620   6.747   7.253 -0.1177 -0.2981  0.0223
  147OCT     C1  293  15.817  19.409  14.304 -0.0311  0.0758  0.2555
  147OCT     C2  294  15.890  18.950  14.478 -0.1131  0.0591  0.1586
  148OCT     C1  295  15.308  16.454  13.396 -0.0614  0.1121  0.2934
  148OCT     C2  296  15.708  16.511  13.583 -0.0339  0.2669 -0.3145
  149OCT     C1  297   6.880   5.701   2.549 -0.1399 -0.2361  0.0213
  149OCT     C2  298   6.644   5.322   2.485  0.1593 -0.1427  0.0805
  150OCT     C1  299   6.198  10.533   7.578 -0.2213  0.0602 -0.6381
  150OCT     C2  300   5.871  10.808   7.780  0.2309 -0.0686  0.0971
  151OCT     C1  301  15.709   6.497  17.043  0.1021 -0.0921  0.1385
  151OCT     C2  302  16.144   6.428  16.821 -0.0587  0.0299  0.0433
  152OCT     C1  303   1.479  14.617   2.366 -0.1814  0.2858  0.0269
  152OCT     C2  304   1.768  14.324   2.586 -0.0801  0.1491  0.3075
  153OCT     C1  305   3.117  22.806   3.863  0.0112 -0.2691  0.1353
  153OCT     C2  306   2.914  22.761   4.325  0.2962  0.2137 -0.0151
  154OCT     C1  307   7.817  21.712  23.221  0.0080 -0.0908  0.2447
  154OCT     C2  308   8.083  21.536  22.942  0.1705 -0.2296  0.2686
  155OCT     C1  309   5.821  12.089   9.183 -0.2598 -0.2164 -0.2944
  155OCT     C2  310   5.835  12.041   8.723 -0.1545 -0.0280  0.0229
  156OCT     C1  311  20.886  22.112   2.466  0.1872 -0.0596 -0.0099
  156OCT     C2  312  20.844  21.679   2.292  0.1058  0.1372 -0.1388
  157OCT     C1  313   3.515  21.437   0.700 -0.1675  0.0705  0.0274
  157OCT     C2  314   3.779  21.267   0.360  0.1356 -0.3517 -0.0724
  158OCT     C1  315   7.959  14.641   6.646 -0.1176 -0.3442 -0.3043
  158OCT     C2  316   8.366  14.835   6.822 -0.1562  0.1907 -0.1046
  159OCT     C1  317  12.410   7.624   9.143  0.4067 -0.0285  0.2223
  159OCT     C2  318  12.551   7.971   8.861  0.0083 -0.0789 -0.1156
  160OCT     C1  319  16.143  10.441  18.582  0.1042  0.0758  0.3167
  160OCT     C2  320  16.139  10.781  18.902 -0.0600 -0.1597 -0.6192
  161OCT     C1  321   0.692   5.626   6.227  0.0706 -0.1477 -0.0180
  161OCT     C2  322   0.372   5.867   6.511  0.2182  0.1017 -0.0797
  162OCT     C1  323   6.528   7.633  12.143 -0.0708  0.1877 -0.0680
  162OCT     C2  324   6.621   7.275  12.411 -0.0241 -0.7380 -0.3831
  163OCT     C1  325  17.869   9.453  18.086 -0.3996 -0.3466 -0.1365
  163OCT     C2  326  18.003   9.240  17.681 -0.1500  0.1523 -0.5072
  164OCT     C1  327  21.907   0.799  13.128  0.2020 -0.2240 -0.2660
  164OCT     C2  328  21.383   0.896  13.104 -0.0133 -0.1643  0.4948
  165OCT     C1  329   9.978  11.617   0.259 -0.2215  0.0948 -0.0505
  165OCT     C2  330   9.968  11.522   0.705 -0.1679  0.1876 -0.1994
  166OCT     C1  331   0.105   4.852  23.273 -0.0119 -0.1073  0.1078
  166OCT     C2  332  23.646   5.209  22.971  0.1219 -0.1329  0.0589
  167OCT     C1  333  11.779  14.888  19.763 -0.2430  0.0935 -0.1197
  167OCT     C2  334  11.671  15.208  20.070 -0.0146  0.0730  0.3522
  168OCT     C1  335  15.809  20.922  19.165  0.1954  0.2009 -0.0814
  168OCT     C2  336  15.932  21.356  19.089 -0.2864 -0.0380 -0.1492
  169OCT     C1  337   2.990  15.988   0.822 -0.0651 -0.0453  0.0414
  169OCT     C2  338   2.573  16.171   0.631  0.2207 -0.3200 -0.0650
  170OCT     C1  339   4.054  21.713   3.285 -0.0860  0.1068 -0.2197
  170OCT     C2  340   4.068  21.258   3.463 -0.4321 -0.3422 -0.0819
  171OCT     C1  341  17.331  10.615  16.357  0.1081  0.3733  0.0814
  171OCT     C2  342  17.254  10.511  15.924  0.3017  0.2120  0.0672
  172OCT     C1  343  20.527  10.486   4.093  0.3093  0.0473 -0.1117
  172OCT     C2  344  20.844  10.354   3.833 -0.4893  0.0861 -0.2065
  173OCT     C1  345  12.079  23.693  18.619 -0.1974  0.2343 -0.1339
  173OCT     C2  346  11.729  23.693  18.933  0.0773 -0.0288 -0.0971
  174OCT     C1  347   9.124  14.602  17.771 -0.1028 -0.0943 -0.0504
  174OCT     C2  348   8.777  14.712  17.438 -0.4285  0.2878  0.2132
  175OCT     C1  349  11.023  17.608   0.440  0.0278 -0.2440 -0.4215
  175OCT     C2  350  11.073  17.495   0.910  0.2453  0.2367 -0.0265
  176OCT     C1  351   0.721  20.753   5.064 -0.1080  0.0136  0.2172
  176OCT     C2  352   0.383  20.954   5.362  0.0196 -0.0673 -0.0171
  177OCT     C1  353  18.405   7.401  12.929 -0.4265  0.1778  0.0196
  177OCT     C2  354  18.672   7.816  12.899  0.0131 -0.0575  0.1541
  178OCT     C1  355  11.065   0.892  16.653  0.2173 -0.4043 -0.0940
  178OCT     C2  356  10.917   0.900  17.164  0.0490  0.0205  0.1370
  179OCT     C1  357  17.292  10.769   2.315 -0.1004 -0.3621  0.1753
  179OCT     C2  358  17.488  10.455   2.610  0.3407 -0.2479  0.0815
  180OCT     C1  359  16.710   5.583   4.114  0.0001 -0.1540  0.2517
  180OCT     C2  360  16.575   5.175   4.416 -0.2923 -0.1067 -0.0869
  181OCT     C1  361  14.904  12.898  14.990  0.6336 -0.0240  0.1381
  181OCT     C2  362  15.241  12.662  15.127 -0.2629  0.0916 -0.1061
  182OCT     C1  363   0.561  19.159  10.143  0.1664 -0.1927  0.0883
  182OCT     C2  364   0.425  19.575   9.977 -0.2167  0.0367  0.2270
  183OCT     C1  365  10.925  14.304   6.000  0.0976  0.1434  0.3370
  183OCT     C2  366  11.129  14.565   6.307  0.2532  0.0838 -0.3251
  184OCT     C1  367   2.798  13.382  11.945 -0.3087  0.0381  0.0494
  184OCT     C2  368   2.979  13.494  12.353  0.3164  0.1364  0.1678
  185OCT     C1  369   3.517  20.995   3.942  0.0391  0.1302 -0.0863
  185OCT     C2  370   3.557  21.123   3.532  0.3479  0.0853  0.3543
  186OCT     C1  371   8.193  19.260   6.838 -0.1733  0.1966  0.3694
  186OCT     C2  372   8.129  19.063   7.287 -0.0681  0.2539  0.0286
  187OCT     C1  373  10.463   5.028  17.025 -0.0737 -0.3575 -0.0805
  187OCT     C2  374  10.933   4.983  17.036 -0.0916  0.0872  0.0430
  188OCT     C1  375   0.036  20.024  15.009 -0.0012  0.0558  0.1539
  188OCT     C2  376  23.647  20.430  14.875  0.2099  0.2122 -0.3856
  189OCT     C1  377  18.851   9.261   3.006  0.1211 -0.1263 -0.2964
  189OCT     C2  378  18.874   8.965   2.677 -0.1866  0.1641 -0.0375
  190OCT     C1  379  23.167   8.276  23.580 -0.0602 -0.0282 -0.2652
  190OCT     C2  380  22.833   8.097  23.354  0.3958  0.2379  0.0170
  191OCT     C1  381   6.878  20.361  14.162 -0.0436  0.0806 -0.1373
  191OCT     C2  382   7.050  19.886  14.177 -0.1146  0.1285 -0.1235
  192OCT     C1  383  11.310  18.834  22.839  0.1486  0.0309 -0.2286
  192OCT     C2  384  11.148  19.290  22.977  0.1221 -0.2290 -0.4117
  193OCT     C1  385   0.533   9.982  17.207 -0.2596 -0.0311  0.0441
  193OCT     C2  386   0.580  10.434  17.190  0.1396 -0.4234 -0.2163
  194OCT     C1  387   7.976   4.843  16.028 -0.1624  0.1661 -0.0082
  194OCT     C2  388   8.353   4.667  15.888 -0.3284 -0.1282 -0.2125
  195OCT     C1  389   5.465   5.222   2.545  0.0198 -0.3145  0.1718
  195OCT     C2  390   5.864   5.138   2.758 -0.1002  0.0891 -0.1216
  196OCT     C1  391   7.680  18.047   5.647  0.0979 -0.1244  0.1489
  196OCT     C2  392   7.878  17.657   5.476  0.1626  0.0036 -0.0878
  197OCT     C1  393  19.030   5.482  10.083 -0.2455  0.0564  0.1228
  197OCT     C2  394  18.879   5.487   9.693 -0.1168 -0.2288  0.0065
  198OCT     C1  395  19.994  13.692  20.470 -0.3196 -0.3811 -0.2811
  198OCT     C2  396  20.530  13.670  20.412 -0.1002  0.0270  0.1736
  199OCT     C1  397   1.041   9.339  15.765 -0.2861  0.4359 -0.2542
  199OCT     C2  398   0.568   9.287  15.840  0.4499 -0.3046 -0.0353
  200OCT     C1  399  15.289  20.503  18.309  0.0743  0.0929 -0.0084
  200OCT     C2  400  14.875  20.313  18.502 -0.1805  0.0396 -0.0238
  201OCT     C1  401  13.486  15.769  16.342  0.1272  0.3649 -0.0762
  201OCT     C2  402  13.482  15.447  16.685  0.0034  0.1809 -0.0294
  202OCT     C1  403   7.478  12.252  16.630 -0.2069  0.1608 -0.1127
  202OCT     C2  404   7.896  12.193  16.362  0.0711 -0.0380 -0.1182
  203OCT     C1  405   1.873  12.781  22.082  0.0474  0.0817  0.1026
  203OCT     C2  406   1.519  12.597  21.828  0.1585  0.0920 -0.3358
  204OCT     C1  407  23.052  19.588  18.071  0.0204  0.0949 -0.0018
  204OCT     C2  408  22.680  19.888  18.038  0.0372 -0.2243  0.0140
  205OCT     C1  409   0.383   5.969   0.016 -0.1154 -0.1655 -0.5666
  205OCT     C2  410   0.300   6.397  23.568  0.0583 -0.2076 -0.1321
  206OCT     C1  411  20.873   5.523  17.606 -0.4010  0.2346 -0.0353
  206OCT     C2  412  21.311   5.689  17.504  0.2540  0.0825 -0.0443
  207OCT     C1  413  21.801  20.121  18.114  0.1578 -0.0728 -0.0104
  207OCT     C2  414  22.161  19.898  18.138 -0.2075  0.2987 -0.0772
  208OCT     C1  415  20.940  17.685  17.775  0.1522 -0.1127  0.0197
  208OCT     C2  416  20.691  17.471  17.426 -0.2482 -0.0212  0.0793
  209OCT     C1  417  23.358   9.053  18.834  0.0828  0.0734 -0.1473
  209OCT     C2  418  23.501   9.318  18.555  0.1266 -0.2526 -0.0827
  210OCT     C1  419  14.622   1.390  13.881  0.3126  0.1856  0.3854
  210OCT     C2  420  14.906   1.665  14.082 -0.0753 -0.0367 -0.1462
  211OCT     C1  421   8.614  15.217   7.655 -0.1229  0.0473 -0.2852
  211OCT     C2  422   8.153  15.348   7.635 -0.1952  0.0149  0.1042
  212OCT     C1  423   2.632  17.622   5.047 -0.1646  0.0830 -0.1833
  212OCT     C2  424   2.283  17.324   5.193 -0.3566  0.0083 -0.2326
  213OCT     C1  425   2.127  20.454   6.402 -0.2340 -0.2048 -0.1825
  213OCT     C2  426   2.414  20.273   6.726 -0.1938  0.3865  0.1694
  214OCT     C1  427   0.004  23.217  19.027 -0.1275 -0.1669 -0.0976
  214OCT     C2  428  23.632  23.174  18.565 -0.1565  0.1943 -0.0437
  215OCT     C1  429   1.449  22.352  11.365 -0.1758 -0.2175  0.2848
  215OCT     C2  430   1.454  22.775  11.169 -0.3420  0.0646  0.1874
  216OCT     C1  431  14.558  14.014  23.079  0.0902  0.0080 -0.0788
  216OCT     C2  432  14.522  13.597  22.884  0.0882  0.0395 -0.3102
  217OCT     C1  433   5.869  16.684   9.961  0.0579  0.1549  0.2221
  217OCT     C2  434   6.261  16.906  10.141  0.4095  0.1117  0.4180
  218OCT     C1  435  15.175  22.385   8.035  0.4054 -0.0717 -0.0752
  218OCT     C2  436  14.974  21.943   8.079 -0.1535  0.3516 -0.0358
  219OCT     C1  437   4.152   9.875  18.033  0.1942 -0.1049  0.0661
  219OCT     C2  438   3.855   9.966  18.371  0.0946 -0.2265 -0.0367
  220OCT     C1  439   6.630   3.751   9.800 -0.1784  0.2920 -0.1271
  220OCT     C2  440   6.626   4.222   9.787 -0.0099  0.0209  0.0063
  221OCT     C1  441  21.242  12.172   9.587 -0.1129 -0.0569 -0.1080
  221OCT     C2  442  21.288  12.600   9.673 -0.1860 -0.1583  0.0554
  222OCT     C1  443  15.943  13.540  13.153  0.1371 -0.0733  0.0780
  222OCT     C2  444  16.022  13.644  12.711  0.2089 -0.0183  0.2488
  223OCT     C1  445  12.592   3.360  19.166 -0.1260 -0.2237  0.1628
  223OCT     C2  446  12.746   3.053  19.515  0.1179 -0.1184  0.1791
  224OCT     C1  447  12.902   8.464   3.358 -0.4304 -0.2236 -0.0892
  224OCT     C2  448  12.738   8.892   3.415 -0.0295 -0.1553 -0.1805
  225OCT     C1  449   9.067  12.885  21.269  0.3507  0.2672  0.2716
  225OCT     C2  450   9.410  13.198  21.349  0.0013 -0.2289  0.4244
  226OCT     C1  451  23.155  19.518  11.974  0.1465 -0.2356  0.3097
  226OCT     C2  452  22.825  19.788  11.834  0.1981 -0.1400 -0.3719
  227OCT     C1  453   8.808   7.414   6.213  0.0841 -0.4987 -0.1401
  227OCT     C2  454   8.356   7.563   6.237 -0.3631  0.2596  0.0034
  228OCT     C1  455   2.184   8.737  10.422  0.1312  0.1819  0.0989
  228OCT     C2  456   2.455   9.034  10.256 -0.3687 -0.1422  0.1171
  229OCT     C1  457   3.475   2.879   9.533 -0.3864 -0.0470 -0.2359
  229OCT     C2  458   3.751   2.914   9.142 -0.1433 -0.0903  0.4210
  230OCT     C1  459  14.046  10.990  21.056 -0.0261 -0.0679 -0.1237
  230OCT     C2  460  13.595  11.185  20.958  0.0365 -0.0592 -0.0560
  231OCT     C1  461  20.389   3.666  23.196 -0.2281  0.3904 -0.3610
  231OCT     C2  462  20.320   3.966  23.519 -0.0900  0.0596  0.0858
  232OCT     C1  463  21.957   6.101   6.307  0.2274  0.4847 -0.0117
  232OCT     C2  464  22.166   5.793   6.600 -0.1588 -0.0200  0.2460
  233OCT     C1  465  12.068   7.018  20.218  0.0772  0.3000 -0.1839
  233OCT     C2  466  11.981   6.756  20.590  0.0411 -0.0194 -0.0999
  234OCT     C1  467  17.515  19.184   0.035  0.0183  0.3124 -0.1267
  234OCT     C2  468  17.948  18.947   0.097  0.0839 -0.0622 -0.2338
  235OCT     C1  469   0.020   5.039  20.115 -0.0494 -0.0134 -0.4906
  235OCT     C2  470   0.133   5.224  19.724  0.3608 -0.0518  0.1329
  236OCT     C1  471  19.715   6.483  12.735  0.1412  0.0454  0.0698
  236OCT     C2  472  19.203   6.595  12.586 -0.0666 -0.2820  0.1738
  237OCT     C1  473  19.485  15.388  21.643  0.1316  0.1053  0.2468
  237OCT     C2  474  19.642  14.916  21.676  0.2723 -0.0922 -0.0099
  238OCT     C1  475   5.226   8.893  15.144  0.3466 -0.0572  0.0164
  238OCT     C2  476   5.265   8.455  15.352 -0.0825  0.0664 -0.1086
  239OCT     C1  477  21.527   7.307   6.193  0.0971  0.2267  0.0017
  239OCT     C2  478  21.248   7.068   5.889 -0.0891 -0.2587 -0.2303
  240OCT     C1  479   1.220  20.865  20.976 -0.3387 -0.0890  0.1524
  240OCT     C2  480   1.671  20.976  21.127  0.1548 -0.4014  0.2445
  241OCT     C1  481  21.821  20.914   9.104 -0.0178 -0.0989 -0.1790
  241OCT     C2  482  22.134  20.971   8.821 -0.1464 -0.1378  0.0918
  242OCT     C1  483  20.679  14.877  12.682  0.1543 -0.3460  0.3344
  242OCT     C2  484  20.340  14.577  12.739 -0.1076 -0.0673  0.1717
  243OCT     C1  485   5.039   9.661  11.726 -0.1786 -0.0805  0.0234
  243OCT     C2  486   4.973   9.773  11.229  0.4223 -0.2588 -0.1483
  244OCT     C1  487   4.186   0.970  15.171 -0.3588  0.0033 -0.4428
  244OCT     C2  488   4.105   0.800  15.610  0.3438  0.2999 -0.1657
  245OCT     C1  489   9.357  11.733  17.317 -0.1207 -0.0792 -0.2418
  245OCT     C2  490   9.023  12.023  17.266 -0.3049 -0.1558  0.5514
  246OCT     C1  491   8.845   3.648   2.211  0.0725  0.1890  0.0448
  246OCT     C2  492   8.487   3.967   2.194 -0.1862  0.0632  0.1906
  247OCT     C1  493  12.433  11.552   2.498  0.1296  0.1019 -0.2899
  247OCT     C2  494  12.313  11.238   2.246  0.0726 -0.0161  0.0946
  248OCT     C1  495  15.055   7.528   7.551 -0.1908  0.1727  0.1117
  248OCT     C2  496  15.422   7.219   7.529 -0.1042 -0.1113  0.2085
  249OCT     C1  497   6.404  18.896  18.479 -0.2446 -0.2941 -0.1386
  249OCT     C2  498   6.526  19.043  18.051  0.2099  0.0164 -0.3253
  250OCT     C1  499  17.304   0.739  18.350  0.3138  0.2660 -0.2551
  250OCT     C2  500  17.006   0.527  18.061  0.0155 -0.4277 -0.1578
  251OCT     C1  501  20.912  11.077   8.810  0.0919  0.1455 -0.2773
  251OCT     C2  502  21.237  10.717   8.914  0.1258 -0.4279 -0.0029
  252OCT     C1  503   8.870   8.997  16.559 -0.0359  0.1127 -0.2713
  252OCT     C2  504   8.486   9.212  16.353 -0.2786  0.2019 -0.2096
  253OCT     C1  505   0.568   4.256  22.608 -0.2193  0.1065  0.0171
  253OCT     C2  506   0.888   4.470  22.290 -0.2379 -0.1188  0.2240
  254OCT     C1  507  13.461  17.030  11.589 -0.2193  0.3838  0.2215
  254OCT     C2  508  13.917  17.062  11.415 -0.2163 -0.1482 -0.2727
  255OCT     C1  509   6.117  12.130   2.725  0.0403  0.4384 -0.0138
  255OCT     C2  510   6.315  12.320   2.352  0.1720 -0.1620  0.2446
  256OCT     C1  511   1.717  10.879   9.051 -0.1548 -0.0664  0.0172
  256OCT     C2  512   1.809  11.000   9.538  0.1761  0.1513  0.2409
  257OCT     C1  513  17.489  15.995  12.187  0.4216  0.0218  0.0182
  257OCT     C2  514  17.828  16.016  11.872 -0.0138 -0.2956 -0.0782
  258OCT     C1  515   6.197  16.154   5.239  0.1042 -0.0492 -0.1450
  258OCT     C2  516   6.609  16.096   5.469 -0.0198 -0.0049 -0.0111
  259OCT     C1  517  20.883  11.806  16.312 -0.1815  0.2299 -0.1839
  259OCT     C2  518  21.217  12.070  16.101 -0.0276  0.2011 -0.1325
  260OCT     C1  519  21.226  16.246   0.308  0.0117  0.2574 -0.0122
  260OCT     C2  520  21.502  16.022  23.737 -0.4017 -0.0058 -0.0972
  261OCT     C1  521  21.289  20.950   4.920  0.0452  0.0723  0.1887
  261OCT     C2  522  21.093  21.009   5.329 -0.0039  0.1317  0.1373
  262OCT     C1  523   4.500  13.422  15.339 -0.2423  0.0412 -0.0711
  262OCT     C2  524   4.417  12.998  15.428 -0.0171  0.1739 -0.1863
  263OCT     C1  525  18.457  19.353  14.427  0.3017 -0.0053 -0.2128
  263OCT     C2  526  18.321  19.761  14.457  0.1369 -0.0646  0.5608
  264OCT     C1  527   2.383  14.452  18.288  0.2499  0.0350 -0.3098
  264OCT     C2  528   2.848  14.337  18.272 -0.4677  0.0510  0.0421
  265OCT     C1  529  15.813   7.044   6.588 -0.1125 -0.5146  0.2967
  265OCT     C2  530  15.994   7.433   6.397 -0.1482 -0.0393  0.0744
  266OCT     C1  531   4.874   3.721  19.367  0.0106 -0.0714 -0.1564
  266OCT     C2  532   4.973   3.637  19.858 -0.2366  0.2120  0.1808
  267OCT     C1  533  17.458  21.966  11.872 -0.1554 -0.2420 -0.2854
  267OCT     C2  534  17.947  21.922  11.854 -0.0348 -0.1847  0.0029
  268OCT     C1  535   1.218   1.942   9.860  0.3812 -0.0365 -0.0569
  268OCT     C2  536   1.224   2.383   9.953 -0.2002  0.1993 -0.2439
  269OCT     C1  537  17.328  19.302   6.987  0.1403  0.0025 -0.1816
  269OCT     C2  538  16.973  18.909   6.995  0.0605 -0.2175 -0.3908
  270OCT     C1  539   4.475   5.666  21.678 -0.0651  0.1765  0.0072
  270OCT     C2  540   4.440   5.191  21.869 -0.3972 -0.0028 -0.1747
  271OCT     C1  541  11.642  23.162  11.626 -0.0397  0.0435 -0.4538
  271OCT     C2  542  11.250  23.145  11.863 -0.1349 -0.3495 -0.0748
  272OCT     C1  543   4.359   7.678   0.333 -0.3260  0.0207  0.2248
  272OCT     C2  544   4.329   7.395  23.734  0.0647 -0.2329 -0.0036
  273OCT     C1  545   6.192  18.378  12.025  0.2261 -0.1941 -0.6396
  273OCT     C2  546   5.908  18.446  12.448  0.0729 -0.1255  0.1842
  274OCT     C1  547  22.024   9.316  11.725  0.0572  0.2246  0.0167
  274OCT     C2  548  21.616   9.099  11.944 -0.3822 -0.2534 -0.1200
  275OCT     C1  549   6.471  22.713  13.173 -0.0457 -0.1571  0.1237
  275OCT     C2  550   6.709  22.376  12.923  0.0300  0.0591  0.2580
  276OCT     C1  551   8.438  15.659   5.789  0.2678  0.0572 -0.0205
  276OCT     C2  552   8.015  15.804   5.905  0.0618  0.0776  0.2444
  277OCT     C1  553  19.462  17.059  19.253 -0.1531 -0.0016  0.1464
  277OCT     C2  554  19.614  16.689  19.388  0.0443  0.2496  0.0589
  278OCT     C1  555  15.023  20.817   7.748 -0.3112  0.4774  0.1929
  278OCT     C2  556  15.214  21.106   7.987  0.2247  0.0422 -0.0864
  279OCT     C1  557  16.149   5.224   1.181 -0.3960  0.1461  0.0586
  279OCT     C2  558  15.799   5.062   1.434 -0.0173 -0.0619  0.1611
  280OCT     C1  559  10.255   4.303  12.415  0.1169  0.4934 -0.0418
  280OCT     C2  560  10.482   4.162  12.001 -0.2778 -0.1414 -0.3353
  281OCT     C1  561   9.265   2.368   2.176  0.0031 -0.0310 -0.0818
  281OCT     C2  562   9.083   2.222   1.841 -0.1909  0.1764 -0.0965
  282OCT     C1  563  19.002  15.448  18.373 -0.3533 -0.0569  0.2331
  282OCT     C2  564  19.041  15.883  18.207 -0.0629  0.0492 -0.0283
  283OCT     C1  565   7.323  16.678  21.452  0.3134  0.0684 -0.2579
  283OCT     C2  566   7.109  16.418  21.090 -0.2613 -0.0370 -0.1378
  284OCT     C1  567  19.913  23.105  20.835 -0.1352  0.2825  0.1702
  284OCT     C2  568  20.076  22.681  20.983  0.0095  0.1656 -0.0245
  285OCT     C1  569   1.618  15.275   1.589  0.0193  0.3675 -0.2080
  285OCT     C2  570   1.207  15.374   1.923  0.0113  0.1723  0.2434
  286OCT     C1  571  16.876   9.873   9.161 -0.2047 -0.0312 -0.1374
  286OCT     C2  572  17.262  10.033   9.356 -0.2867  0.1514 -0.3176
  287OCT     C1  573   7.280  17.405   0.123  0.0838 -0.3696  0.1201
  287OCT     C2  574   7.018  17.550   0.523  0.1109 -0.1336  0.0341
  288OCT     C1  575  21.858  13.943  13.550  0.3355 -0.3528  0.0927
  288OCT     C2  576  21.466  13.748  13.530  0.1124 -0.0114  0.1755
  289OCT     C1  577  22.304  10.600  10.597 -0.1692 -0.0224  0.0683
  289OCT     C2  578  21.865  10.580  10.787  0.0654 -0.2611 -0.2201
  290OCT     C1  579   4.081   6.579  18.580  0.2740  0.0498  0.4404
  290OCT     C2  580   4.329   6.169  18.570  0.4586  0.0058 -0.3307
  291OCT     C1  581  11.860  11.716  16.500  0.5883 -0.2057 -0.0310
  291OCT     C2  582  11.907  12.142  16.408 -0.2864 -0.3671 -0.1069
  292OCT     C1  583  12.348   6.351   3.509 -0.0780 -0.4003  0.0704
  292OCT     C2  584  12.487   6.176   3.892 -0.1534 -0.2020  0.3115
  293OCT     C1  585   3.216   8.192   2.796  0.2279 -0.2665  0.0642
  293OCT     C2  586   3.687   8.219   2.967 -0.0607  0.1428 -0.0964
  294OCT     C1  587   4.247  12.536  20.578 -0.3879 -0.2225 -0.2343
  294OCT     C2  588   4.327  12.829  20.193 -0.0677 -0.1665 -0.4991
  295OCT     C1  589   5.907  13.342   8.600  0.0214  0.2221 -0.0266
  295OCT     C2  590   5.471  13.475   8.568 -0.0950 -0.1078 -0.2673
  296OCT     C1  591  20.460  23.486   0.829  0.3870  0.0456 -0.0923
  296OCT     C2  592  20.540   0.090   1.080 -0.4592 -0.4716 -0.0121
  297OCT     C1  593  16.329  11.772   8.835 -0.4714  0.1882 -0.1507
  297OCT     C2  594  16.000  11.501   8.709 -0.0851 -0.1753 -0.1587
  298OCT     C1  595  13.453  19.950   5.966  0.0632 -0.1331  0.0738
  298OCT     C2  596  13.142  19.962   6.265  0.0814 -0.4374 -0.1674
  299OCT     C1  597   5.477   8.875  18.616 -0.2816 -0.6968  0.1014
  299OCT     C2  598   5.452   9.058  18.155 -0.0383 -0.2499 -0.1665
  300OCT     C1  599   8.840   9.070  17.680 -0.0136  0.0401 -0.4645
  300OCT     C2  600   8.966   8.981  18.101 -0.2225  0.1080  0.2719
  301OCT     C1  601  11.868  11.530   4.285 -0.3077  0.0375  0.1969
  301OCT     C2  602  12.171  11.418   3.947 -0.3515  0.3284  0.1135
  302OCT     C1  603   7.903  17.882  10.186  0.2447  0.1579 -0.0713
  302OCT     C2  604   7.502  18.156  10.059 -0.2144  0.1466  0.0642
  303OCT     C1  605  22.527   9.671   6.970  0.1701 -0.0682  0.0623
  303OCT     C2  606  22.467   9.305   7.258 -0.2664  0.2442 -0.0732
  304OCT     C1  607  20.667  20.916  12.231  0.0062  0.2488  0.1467
  304OCT     C2  608  20.957  21.246  12.219 -0.1474  0.1213  0.3178
  305OCT     C1  609   9.378   5.964   2.284 -0.1445 -0.4385  0.2547
  305OCT     C2  610   9.373   5.730   1.881 -0.0889  0.6922  0.1452
  306OCT     C1  611  19.826  23.295  17.060  0.0371  0.0308 -0.1321
  306OCT     C2  612  20.237  23.147  16.875 -0.0577  0.1409  0.0563
  307OCT     C1  613  11.436  11.753   7.666 -0.0897 -0.0589 -0.2799
  307OCT     C2  614  11.188  12.137   7.621 -0.0468 -0.4304  0.0549
  308OCT     C1  615  20.871  18.176  22.980  0.4145 -0.2038  0.0930
  308OCT     C2  616  21.030  18.523  22.754  0.2088  0.1329  0.0247
  309OCT     C1  617  15.308   8.880  19.186  0.0658 -0.1878  0.1637
  309OCT     C2  618  15.011   9.179  18.842 -0.2045  0.2160  0.2315
  310OCT     C1  619   9.608   9.756   7.427  0.3261  0.6335 -0.0996
  310OCT     C2  620   9.343   9.520   7.751 -0.1289  0.1309 -0.0843
  311OCT     C1  621  19.319  18.230   3.506  0.4143  0.1535 -0.3957
  311OCT     C2  622  19.614  18.311   3.859 -0.2081 -0.0117 -0.0401
  312OCT     C1  623  14.011  14.960   3.491  0.1303  0.2780  0.1565
  312OCT     C2  624  14.287  15.186   3.771  0.2932 -0.1223  0.1894
  313OCT     C1  625   4.132  13.706   6.235  0.2659 -0.0483 -0.0626
  313OCT     C2  626   4.275  13.892   6.618  0.1982 -0.1189  0.0342
  314OCT     C1  627  11.327   8.019   0.748 -0.2028 -0.0068 -0.1532
  314OCT     C2  628  11.790   7.994   0.840  0.1585  0.0157  0.4855
  315OCT     C1  629   9.374   7.704  10.652  0.0249  0.2244  0.1988
  315OCT     C2  630   9.446   7.268  10.452 -0.1308 -0.0298 -0.0124
  316OCT     C1  631   4.482   7.525  19.134  0.0949  0.1406 -0.2274
  316OCT     C2  632   4.860   7.396  18.903 -0.2429 -0.3693 -0.4809
  317OCT     C1  633   2.643  20.116   5.762 -0.1986  0.6148  0.2268
  317OCT     C2  634   2.836  19.640   5.849 -0.1725  0.2958  0.2067
  318OCT     C1  635   9.445  13.590   0.890  0.0367  0.2150 -0.0454
  318OCT     C2  636   8.990  13.578   0.738 -0.0993  0.1022 -0.3031
  319OCT     C1  637  12.545  23.356  18.712  0.2709  0.0081 -0.0040
  319OCT     C2  638  13.043  23.448  18.825  0.2119  0.0993  0.2980
  320OCT     C1  639   0.645  20.589   6.736  0.3568 -0.0237  0.0864
  320OCT     C2  640   0.677  20.704   7.185  0.0646  0.2789  0.2136
  321OCT     C1  641  19.211   4.151   8.086  0.2528 -0.1623 -0.3953
  321OCT     C2  642  19.254   4.636   8.197  0.0243  0.0818 -0.0974
  322OCT     C1  643   6.481   9.030  19.488 -0.1979 -0.0385  0.3464
  322OCT     C2  644   6.706   8.612  19.649 -0.0301 -0.3501 -0.2291
  323OCT     C1  645  10.775   1.051  22.985  0.1732 -0.3421 -0.1663
  323OCT     C2  646  10.780   1.137  23.439  0.3053  0.3578  0.0515
  324OCT     C1  647  13.711  22.980  10.907 -0.2851  0.0579  0.1781
  324OCT     C2  648  13.621  22.661  10.547 -0.0285 -0.1209 -0.2037
  325OCT     C1  649  16.582   7.835  12.042  0.0210  0.2369 -0.6590
  325OCT     C2  650  16.883   7.625  12.338 -0.0013  0.0068  0.0500
  326OCT     C1  651   4.122  10.364  16.221  0.6279  0.1177 -0.0901
  326OCT     C2  652   4.444  10.129  16.101 -0.2109  0.0308 -0.2013
  327OCT     C1  653   4.322  11.522  22.292  0.1764 -0.0750  0.0833
  327OCT     C2  654   4.349  11.360  21.919 -0.0109  0.0344  0.0678
  328OCT     C1  655   5.072   0.763   2.972  0.1791  0.2389  0.0683
  328OCT     C2  656   5.284   1.048   3.358  0.0895  0.1895  0.0510
  329OCT     C1  657  20.635  12.038   2.470  0.1885  0.1422  0.1584
  329OCT     C2  658  21.064  12.167   2.512  0.0544 -0.1201  0.1117
  330OCT     C1  659  16.182  18.269   2.207  0.1728  0.1136 -0.2521
  330OCT     C2  660  16.349  18.323   1.793 -0.1515 -0.0402 -0.0184
  331OCT     C1  661   8.089  11.276  13.718  0.3187 -0.0649  0.0729
  331OCT     C2  662   7.867  11.672  13.955  0.2977  0.2849  0.3189
  332OCT     C1  663   2.842   5.579   7.846  0.1417 -0.1193  0.1749
  332OCT     C2  664   2.609   5.544   8.293  0.0128  0.1952  0.1090
  333OCT     C1  665   8.146   0.899  19.975 -0.0710 -0.0009  0.0410
  333OCT     C2  666   8.157   0.752  20.401 -0.1857  0.2190  0.0136
  334OCT     C1  667  16.698   6.965  21.891 -0.2217 -0.2769  0.0121
  334OCT     C2  668  16.371   7.298  21.717  0.1647  0.3051 -0.1104
  335OCT     C1  669  15.165  22.514  19.022  0.0222  0.0486 -0.0498
  335OCT     C2  670  15.049  22.102  18.905 -0.0508  0.0546  0.2039
  336OCT     C1  671   4.194  20.305   7.703  0.0429 -0.1694 -0.0161
  336OCT     C2  672   4.183  20.727   7.959 -0.0625 -0.1757 -0.1292
  337OCT     C1  673   0.265   5.636  16.695 -0.4290 -0.0283  0.1010
  337OCT     C2  674  23.636   5.723  16.456 -0.3048  0.1931  0.0433
  338OCT     C1  675  13.956  16.072  14.277  0.1184  0.1475 -0.1371
  338OCT     C2  676  13.526  16.048  14.543 -0.1506 -0.1958 -0.2051
  339OCT     C1  677  15.037   8.756  17.303  0.0383 -0.0649 -0.1637
  339OCT     C2  678  15.123   9.198  17.448 -0.0045 -0.1462 -0.0693
  340OCT     C1  679   6.133  16.468  13.596 -0.0682 -0.2228 -0.0751
  340OCT     C2  680   5.732  16.298  13.550 -0.0146 -0.0056  0.1339
  341OCT     C1  681   1.745   0.185  21.052  0.3063 -0.0504 -0.0038
  341OCT     C2  682   1.837  23.505  20.902  0.1627 -0.1913 -0.0946
  342OCT     C1  683  18.027   5.144  13.372  0.2118 -0.1170  0.1321
  342OCT     C2  684  18.379   5.448  13.346  0.2254 -0.1005  0.0312
  343OCT     C1  685   1.770   1.304  20.936  0.2864 -0.0970 -0.0554
  343OCT     C2  686   1.673   1.589  20.585 -0.2191  0.3116  0.2777
  344OCT     C1  687  11.285  13.044  19.558  0.0988 -0.0681 -0.0982
  344OCT     C2  688  11.118  12.715  19.202 -0.1068  0.0126  0.3083
  345OCT     C1  689   7.897   8.802   4.157  0.2206 -0.1211  0.3894
  345OCT     C2  690   8.282   9.030   4.137 -0.0084 -0.1308  0.3499
  346OCT     C1  691  19.779  18.629   1.310  0.3919 -0.0854 -0.4113
  346OCT     C2  692  20.044  18.963   1.527  0.2902  0.3301 -0.2259
  347OCT     C1  693   2.332   5.411  10.656  0.0101  0.0545 -0.0540
  347OCT     C2  694   2.539   5.283  10.233 -0.4188  0.1988  0.0178
  348OCT     C1  695  11.653   6.920   3.830  0.1515 -0.1764  0.2086
  348OCT     C2  696  11.919   7.019   4.172 -0.1966  0.1122  0.1615
  349OCT     C1  697  11.276   6.961  17.217 -0.1411  0.1728  0.1454
  349OCT     C2  698  11.538   6.595  17.122  0.0369  0.4803  0.1289
  350OCT     C1  699  16.706  17.267  20.768 -0.0775 -0.0501 -0.1018
  350OCT     C2  700  16.304  17.295  20.501 -0.3273  0.0879  0.1925
  351OCT     C1  701  20.708  14.990  20.994 -0.1857  0.0824 -0.1151
  351OCT     C2  702  20.347  14.971  20.790 -0.1258 -0.3837  0.1526
  352OCT     C1  703  17.795  15.038  15.228 -0.0907  0.2226  0.2625
  352OCT     C2  704  18.178  14.906  15.468 -0.0287 -0.0049 -0.0753
  353OCT     C1  705  18.591  21.935  13.687  0.0524  0.1029 -0.0505
  353OCT     C2  706  18.448  21.649  14.010  0.1080  0.3597  0.0973
  354OCT     C1  707   4.831  11.521  17.644 -0.2599 -0.0225 -0.1921
  354OCT     C2  708   4.816  11.794  18.022 -0.0289 -0.2218 -0.2404
  355OCT     C1  709  14.031  14.020   5.762  0.1247 -0.1301 -0.0276
  355OCT     C2  710  13.803  13.998   6.137 -0.2514 -0.0303  0.0201
  356OCT     C1  711  15.671  14.077  12.487 -0.0453  0.1095 -0.2628
  356OCT     C2  712  16.046  14.355  12.360 -0.1669 -0.0590  0.0201
  357OCT     C1  713  11.295   8.186   1.924 -0.2810 -0.3963  0.2656
  357OCT     C2  714  11.702   8.081   2.152 -0.3448 -0.2543  0.2721
  358OCT     C1  715  13.560  10.274  19.283 -0.1856  0.4736  0.4097
  358OCT     C2  716  13.160   9.960  19.316 -0.0409 -0.1699 -0.0136
  359OCT     C1  717  16.630  14.417  11.386  0.1493 -0.0319 -0.1121
  359OCT     C2  718  17.010  14.700  11.213 -0.0000 -0.0742  0.0037
  360OCT     C1  719  10.687   8.567  23.142  0.3464 -0.1712  0.1259
  360OCT     C2  720  10.804   8.707  22.652 -0.0573 -0.0504  0.0450
  361OCT     C1  721  21.042   5.348  12.851 -0.2877 -0.1855 -0.1091
  361OCT     C2  722  20.977   5.565  13.277  0.1282 -0.0145  0.1743
  362OCT     C1  723  16.481   1.986  14.237  0.4095 -0.1910 -0.2562
  362OCT     C2  724  16.131   2.065  14.593 -0.2322 -0.2442 -0.1337
  363OCT     C1  725  22.516  20.002  16.202 -0.3225 -0.0917 -0.2963
  363OCT     C2  726  22.883  20.259  16.323 -0.5182  0.0792  0.2257
  364OCT     C1  727  12.029  23.580   5.189 -0.1026  0.3966 -0.2992
  364OCT     C2  728  12.197  23.318   4.779 -0.0655  0.2682 -0.0440
  365OCT     C1  729  18.806  11.212  22.629 -0.0701 -0.1991 -0.2386
  365OCT     C2  730  19.162  11.501  22.501 -0.2333  0.2691 -0.0392
  366OCT     C1  731  10.190   5.827  10.919  0.0764 -0.0387  0.0857
  366OCT     C2  732  10.170   5.839  11.399 -0.3562 -0.0506 -0.0262
  367OCT     C1  733  11.930   8.041  22.736 -0.0637 -0.2113  0.2943
  367OCT     C2  734  12.413   8.029  22.709  0.2942  0.3244 -0.0611
  368OCT     C1  735  23.151  10.370  17.261 -0.1428 -0.0939 -0.1805
  368OCT     C2  736  23.165  10.873  17.382  0.0302 -0.0286 -0.3227
  369OCT     C1  737   6.349  18.792  22.839  0.0891 -0.1547 -0.2249
  369OCT     C2  738   6.159  18.759  22.443 -0.2005  0.3896  0.0256
  370OCT     C1  739   0.166   4.838  22.778  0.3516  0.0342  0.0862
  370OCT     C2  740   0.063   4.413  22.640  0.0926  0.0619  0.2837
  371OCT     C1  741  19.190  11.262  21.305 -0.0003  0.2682  0.1915
  371OCT     C2  742  19.322  11.260  20.874  0.1216  0.0132  0.1999
  372OCT     C1  743  10.847   4.908   9.225  0.0094  0.0457  0.2352
  372OCT     C2  744  11.153   4.739   8.891  0.7876 -0.3943 -0.1131
  373OCT     C1  745  21.987  19.480   8.838 -0.0346 -0.0822 -0.2161
  373OCT     C2  746  22.006  19.298   8.386  0.1002  0.0677  0.0132
  374OCT     C1  747  20.884  19.877   1.507  0.0388  0.3695 -0.0646
  374OCT     C2  748  21.264  19.557   1.379  0.2140  0.1129  0.3472
  375OCT     C1  749   7.920   4.208   3.289  0.1511 -0.0251 -0.0770
  375OCT     C2  750   7.510   4.266   3.486 -0.0185 -0.2760  0.1369
  376OCT     C1  751   4.879  19.292   0.397  0.0435 -0.3002  0.1072
  376OCT     C2  752   4.957  19.495   0.760 -0.1599  0.2305  0.0566
  377OCT     C1  753  13.609  22.997  20.879  0.2919 -0.0134  0.0479
  377OCT     C2  754  14.099  22.970  20.746 -0.0980 -0.0319  0.1794
  378OCT     C1  755  15.381  12.687  16.831  0.1877  0.0718  0.2496
  378OCT     C2  756  15.585  12.570  16.386 -0.0976 -0.1134  0.1977
  379OCT     C1  757   8.487  23.648  13.176 -0.1907 -0.0468 -0.1260
  379OCT     C2  758   8.148   0.240  13.328  0.1168 -0.2635  0.1008
  380OCT     C1  759  19.155  18.275   6.560  0.1746  0.3421 -0.0786
  380OCT     C2  760  19.528  17.997   6.482 -0.3174  0.1417  0.0641
  381OCT     C1  761   1.093  11.690  14.772  0.2661 -0.1360 -0.2568
  381OCT     C2  762   1.395  11.780  15.139 -0.2003  0.2508 -0.0173
  382OCT     C1  763   5.698   8.132  20.759  0.0830 -0.4725 -0.0325
  382OCT     C2  764   6.132   8.032  20.827 -0.1077 -0.1234  0.1710
  383OCT     C1  765  10.940   8.130  14.578 -0.0790  0.0834 -0.1894
  383OCT     C2  766  10.674   8.472  14.793 -0.4353  0.1672  0.0840
  384OCT     C1  767   9.327   5.522  11.364  0.1825 -0.5199 -0.0488
  384OCT     C2  768   8.986   5.354  11.583 -0.1174  0.5024 -0.2772
  385OCT     C1  769   1.073  21.950   1.527 -0.2171 -0.1191 -0.1479
  385OCT     C2  770   1.154  22.397   1.675 -0.2095 -0.0349  0.4001
  386OCT     C1  771  20.074   2.764   3.885 -0.0848  0.0369 -0.0184
  386OCT     C2  772  19.908   2.318   4.017  0.3296 -0.0786  0.1491
  387OCT     C1  773  22.215  20.262  10.569  0.0344  0.1742  0.1887
  387OCT     C2  774  22.302  20.508  10.181  0.3551  0.0781 -0.2499
  388OCT     C1  775  12.251   6.388   7.702  0.0371 -0.1374 -0.1083
  388OCT     C2  776  12.319   6.266   8.187 -0.0825  0.1172  0.3531
  389OCT     C1  777   4.512  22.431   7.894 -0.3780  0.0134 -0.4942
  389OCT     C2  778   4.439  22.762   8.191 -0.1039  0.0007  0.1058
  390OCT     C1  779   8.813  18.856   9.697 -0.0003 -0.0707 -0.0694
  390OCT     C2  780   8.927  18.396   9.649  0.2368  0.2191  0.0759
  391OCT     C1  781  17.239  12.035  10.682  0.2363  0.0412 -0.5348
  391OCT     C2  782  17.027  11.644  10.748 -0.0685  0.3712  0.0486
  392OCT     C1  783  23.430   4.989   2.925 -0.1532  0.2856  0.0776
  392OCT     C2  784   0.030   4.631   2.964 -0.1289  0.0145  0.0477
  393OCT     C1  785  15.703   2.892  21.861  0.1951 -0.0966  0.0234
  393OCT     C2  786  15.630   3.259  21.612  0.2312 -0.1873  0.1072
  394OCT     C1  787  17.305   8.283   4.824 -0.2093 -0.2324  0.0846
  394OCT     C2  788  17.715   8.291   5.079  0.2140 -0.0227  0.3702
  395OCT     C1  789  10.890  12.487  13.705  0.0501  0.0578 -0.1872
  395OCT     C2  790  10.895  12.672  14.165  0.0976 -0.1988 -0.4258
  396OCT     C1  791   3.120   6.934  17.214  0.1026  0.0555 -0.1077
  396OCT     C2  792   3.415   6.764  16.915  0.1592 -0.1741  0.0561
  397OCT     C1  793  16.428  18.718   3.046  0.3128 -0.3648  0.1292
  397OCT     C2  794  16.737  18.474   2.715  0.4916 -0.1407 -0.2564
  398OCT     C1  795  14.175  19.677  10.044  0.2373 -0.1127  0.1347
  398OCT     C2  796  13.802  19.431  10.188  0.1718 -0.0756 -0.0424
  399OCT     C1  797   8.383   5.492  19.453 -0.0438 -0.0766 -0.0260
  399OCT     C2  798   8.505   5.844  19.743  0.1630  0.3777 -0.2234
  400OCT     C1  799   4.311   4.113  23.000  0.0194  0.3099  0.0609
  400OCT     C2  800   4.472   3.822  23.374 -0.1809  0.6057 -0.0024
  401OCT     C1  801   8.284   9.691  21.519  0.1472  0.1623 -0.4580
  401OCT     C2  802   7.951   9.894  21.812 -0.1078 -0.0100  0.2210
  402OCT     C1  803   3.184  14.673  16.658  0.2605  0.2737  0.2792
  402OCT     C2  804   2.916  14.330  16.809  0.1488  0.1293  0.1186
  403OCT     C1  805  17.910  15.990   2.066 -0.2117  0.0987  0.3854
  403OCT     C2  806  17.619  15.679   2.279  0.0245 -0.1844 -0.0979
  404OCT     C1  807  19.372   3.672  20.463  0.0730 -0.4540  0.2640
  404OCT     C2  808  19.208   3.427  20.834 -0.6597  0.1861 -0.1437
  405OCT     C1  809  19.839   5.715  17.817  0.0240  0.0756  0.0251
  405OCT     C2  810  19.449   5.565  17.883 -0.1029 -0.2215 -0.3209
  406OCT     C1  811  10.282   0.309   1.689  0.2441 -0.2010  0.1788
  406OCT     C2  812  10.372  23.623   1.815  0.3459  0.1500  0.0341
  407OCT     C1  813  23.296   2.394   7.472 -0.0065  0.1462 -0.1628
  407OCT     C2  814  23.696   2.221   7.475 -0.4756 -0.3359 -0.0068
  408OCT     C1  815   3.799  14.941  13.466  0.0287 -0.6232  0.6229
  408OCT     C2  816   3.501  15.315  13.469 -0.3026 -0.0576  0.1132
  409OCT     C1  817  21.419  11.209   2.008  0.0206 -0.2565 -0.0935
  409OCT     C2  818  21.382  11.294   1.561  0.0671  0.1729  0.2551
  410OCT     C1  819  18.057  15.866   8.555  0.0323  0.2560  0.0515
  410OCT     C2  820  18.246  15.872   9.022  0.0411  0.3504  0.0053
  411OCT     C1  821  18.169  23.072  20.848  0.2410  0.5522 -0.2490
  411OCT     C2  822  18.093  22.602  20.731 -0.1119  0.2258  0.3099
  412OCT     C1  823   2.258   4.964  22.989  0.0595 -0.3235  0.5238
  412OCT     C2  824   2.482   5.042  23.387 -0.0311 -0.0763 -0.5378
  413OCT     C1  825  23.069  20.886   8.438 -0.2029  0.0294 -0.2833
  413OCT     C2  826  23.434  20.828   8.776  0.4171 -0.0995 -0.0945
  414OCT     C1  827   7.027   8.955  13.508 -0.1401 -0.0948  0.0889
  414OCT     C2  828   6.947   8.754  13.110  0.4119  0.1236 -0.0441
  415OCT     C1  829  20.105  20.244   2.549  0.0091  0.3715  0.2371
  415OCT     C2  830  20.366  20.424   2.186  0.0187  0.4462  0.4038
  416OCT     C1  831  21.348   0.206  10.118  0.0295  0.2042  0.0168
  416OCT     C2  832  21.640   0.308  10.483  0.1498 -0.2362 -0.1853
  417OCT     C1  833  13.734   3.706   1.208  0.3653  0.1405 -0.0229
  417OCT     C2  834  13.467   4.059   1.368 -0.4641  0.0461 -0.0577
  418OCT     C1  835   5.406  19.300   9.507  0.2149 -0.1989  0.3154
  418OCT     C2  836   5.635  19.677   9.513 -0.1770  0.2977 -0.1065
  419OCT     C1  837   5.921   8.239  19.858 -0.0413 -0.1755 -0.1406
  419OCT     C2  838   5.864   8.117  19.411 -0.0613  0.0435  0.1110
  420OCT     C1  839   0.264   0.570  23.123 -0.3286 -0.0873 -0.0305
  420OCT     C2  840   0.574   0.402  22.771  0.1262 -0.0573  0.1114
  421OCT     C1  841   1.710   6.612   9.898 -0.2008 -0.0526  0.2211
  421OCT     C2  842   1.339   6.436   9.668 -0.0343  0.0148 -0.3571
  422OCT     C1  843   7.830  12.212   1.084 -0.1803 -0.0402  0.1937
  422OCT     C2  844   7.882  12.068   1.537  0.1506 -0.0491  0.0207
  423OCT     C1  845   5.368   7.203  20.277  0.2119  0.1255  0.0075
  423OCT     C2  846   5.320   7.334  19.849  0.0904  0.0303 -0.2270
  424OCT     C1  847   8.288   1.974  19.862 -0.2316  0.2218  0.2499
  424OCT     C2  848   7.907   1.747  19.680  0.0276  0.1543 -0.1463
  425OCT     C1  849  12.654   9.380   3.100 -0.0813  0.1658 -0.0016
  425OCT     C2  850  12.568   9.357   2.645  0.0608 -0.2890  0.4661
  426OCT     C1  851  15.688  18.074   2.122  0.3851  0.3737 -0.0821
  426OCT     C2  852  15.391  18.351   1.904  0.1177 -0.0826 -0.4593
  427OCT     C1  853   6.954   9.974  22.500  0.0930  0.1262 -0.1503
  427OCT     C2  854   7.273  10.262  22.699 -0.3099  0.0932  0.2422
  428OCT     C1  855   0.947   3.899   4.351 -0.3386  0.1863  0.1279
  428OCT     C2  856   1.381   3.732   4.419 -0.3189 -0.0416  0.2676
  429OCT     C1  857  15.046   6.336  11.465  0.1113  0.1896  0.2501
  429OCT     C2  858  14.861   6.512  11.063  0.3405 -0.2622  0.1767
  430OCT     C1  859  20.157  15.057  16.303 -0.2933  0.3143  0.1179
  430OCT     C2  860  19.961  15.284  16.629  0.3359  0.4421  0.0639
  431OCT     C1  861   8.631   3.171   7.912  0.0141 -0.3039  0.2626
  431OCT     C2  862   8.291   3.155   7.577  0.0055 -0.1276  0.1009
  432OCT     C1  863   0.882   8.442  22.848  0.2130 -0.1152 -0.3775
  432OCT     C2  864   0.836   8.719  23.182 -0.0803  0.1064 -0.0921
  433OCT     C1  865   0.122  18.503  21.364  0.2930 -0.1067  0.5233
  433OCT     C2  866   0.082  18.937  21.263 -0.1909 -0.4046 -0.1939
  434OCT     C1  867  11.377  17.973   8.646  0.0914 -0.0495  0.1653
  434OCT     C2  868  11.703  18.292   8.742  0.3170  0.1257 -0.0417
  435OCT     C1  869   0.829  11.898   5.169 -0.4197  0.0093 -0.2183
  435OCT     C2  870   1.052  12.216   4.898 -0.1467 -0.3982 -0.3810
  436OCT     C1  871  18.963  16.876   3.914  0.3190  0.1118 -0.3326
  436OCT     C2  872  18.748  17.257   3.835 -0.0082 -0.2161 -0.0789
  437OCT     C1  873  12.767  17.720   1.531 -0.2993 -0.0581  0.1082
  437OCT     C2  874  12.983  17.365   1.625 -0.0550 -0.0516 -0.2487
  438OCT     C1  875  11.814  15.211  10.610 -0.1086  0.1840 -0.3528
  438OCT     C2  876  12.307  15.207  10.736  0.1422  0.2558 -0.2274
  439OCT     C1  877  10.998   0.338   4.564 -0.0381 -0.0290 -0.0818
  439OCT     C2  878  10.522   0.338   4.666  0.0160 -0.0827  0.1986
  440OCT     C1  879  18.399  15.042   2.322  0.0116  0.1061 -0.2976
  440OCT     C2  880  18.179  14.690   2.066 -0.3664  0.0583  0.0862
  441OCT     C1  881  16.039   4.559  18.016 -0.2729 -0.0999  0.4139
  441OCT     C2  882  16.417   4.858  18.161 -0.2117  0.0502 -0.0470
  442OCT     C1  883  19.574   9.839  20.959  0.3347  0.0824 -0.0415
  442OCT     C2  884  19.300  10.162  21.132  0.0221 -0.0614 -0.1988
  443OCT     C1  885  21.574  11.363  11.294  0.0821  0.3447  0.3497
  443OCT     C2  886  21.452  11.324  10.878 -0.4639  0.0977 -0.0001
  444OCT     C1  887   8.052  13.019   7.448  0.0983  0.4574 -0.1577
  444OCT     C2  888   8.035  12.666   7.129  0.0483 -0.1899 -0.0399
  445OCT     C1  889   0.197   6.113  20.974  0.1400 -0.2677 -0.1097
  445OCT     C2  890   0.601   6.392  21.064  0.7277 -0.0978 -0.2717
  446OCT     C1  891  14.216   6.705  15.284 -0.1506  0.0301  0.2239
  446OCT     C2  892  14.305   7.069  14.976 -0.0756 -0.0125  0.0163
  447OCT     C1  893  15.073  10.917  21.638  0.2481  0.0263  0.3790
  447OCT     C2  894  15.462  10.727  21.907 -0.0152 -0.0640 -0.3311
  448OCT     C1  895   9.691  18.198   0.068  0.4758  0.1810  0.0894
  448OCT     C2  896   9.470  18.580  23.607  0.0734 -0.1063  0.0399
  449OCT     C1  897  18.966  20.756  12.670  0.2889 -0.0860  0.1194
  449OCT     C2  898  19.089  20.275  12.770 -0.1438 -0.1805  0.1433
  450OCT     C1  899  12.208  17.289   9.203 -0.0185  0.4756  0.2133
  450OCT     C2  900  11.780  17.245   9.135 -0.1510 -0.0295 -0.2221
  451OCT     C1  901  20.688   4.124   9.320  0.2194 -0.4130 -0.1415
  451OCT     C2  902  20.277   4.058   9.264  0.2494  0.1361 -0.2448
  452OCT     C1  903   0.123   3.848  21.000  0.5744  0.3218 -0.0339
  452OCT     C2  904  23.476   4.027  21.193 -0.3409  0.6187  0.3692
  453OCT     C1  905  14.875   5.634   1.103 -0.0252  0.3031  0.0990
  453OCT     C2  906  14.511   5.804   1.399  0.2310  0.0453 -0.0149
  454OCT     C1  907  13.379  19.429  13.597 -0.2945 -0.1573  0.2012
  454OCT     C2  908  13.103  19.319  13.962 -0.1745  0.1271 -0.2316
  455OCT     C1  909   7.316  13.538   1.163 -0.0173  0.1595 -0.1946
  455OCT     C2  910   6.897  13.691   1.392 -0.3095  0.2192  0.1120
  456OCT     C1  911   3.021  15.370  14.912  0.1666  0.1023 -0.2209
  456OCT     C2  912   3.209  15.796  14.968 -0.2658  0.1414  0.2478
  457OCT     C1  913  21.536  18.830  19.418  0.1509  0.1042  0.0587
  457OCT     C2  914  21.072  18.848  19.459  0.2153  0.3325 -0.1040
  458OCT     C1  915   3.379  22.240   8.915  0.3081  0.1024  0.0997
  458OCT     C2  916   3.656  22.634   8.888  0.3171 -0.2435 -0.2142
  459OCT     C1  917  19.313   1.234  16.341  0.2089 -0.4440 -0.0355
  459OCT     C2  918  19.106   0.855  16.514 -0.1253  0.8190 -0.1644
  460OCT     C1  919  10.297   6.311  10.951  0.1579  0.1726  0.1347
  460OCT     C2  920  10.560   6.497  10.606 -0.0103  0.0640  0.0698
  461OCT     C1  921  21.333  10.840  22.848 -0.0819  0.0092 -0.1871
  461OCT     C2  922  21.210  11.124  23.231  0.1156 -0.1224  0.4134
  462OCT     C1  923  12.535  21.461  15.409  0.2695  0.1222  0.1472
  462OCT     C2  924  12.210  21.479  15.055  0.3582  0.1597  0.0659
  463OCT     C1  925  11.218   3.010  22.354 -0.2139  0.1397  0.2381
  463OCT     C2  926  11.113   2.871  22.788 -0.0801  0.2695  0.0896
  464OCT     C1  927  17.401  22.362  11.531 -0.1441 -0.0180  0.3708
  464OCT     C2  928  17.762  22.167  11.397 -0.1924 -0.3222 -0.0033
  465OCT     C1  929  10.879  17.378  15.265 -0.1913  0.2025  0.1218
  465OCT     C2  930  10.748  17.207  15.673 -0.1113 -0.0951  0.1035
  466OCT     C1  931  20.112  18.985   7.999  0.0820  0.3215  0.0872
  466OCT     C2  932  19.794  19.152   8.309  0.2480  0.0714 -0.3549
  467OCT     C1  933   7.707  11.468   3.828 -0.2279 -0.0785 -0.2088
  467OCT     C2  934   7.392  11.434   3.533 -0.1246 -0.0700  0.2401
  468OCT     C1  935   1.963   8.869  22.833 -0.0551  0.0046 -0.0777
  468OCT     C2  936   2.197   9.227  22.609  0.2202 -0.1740 -0.1540
  469OCT     C1  937   0.607   6.656  17.733  0.1186  0.1832  0.2603
  469OCT     C2  938   0.708   6.300  17.928  0.2710 -0.3356  0.1012
  470OCT     C1  939  14.143   7.823  19.363 -0.2263  0.0571  0.1417
  470OCT     C2  940  14.572   7.700  19.169 -0.1871  0.1996 -0.2001
  471OCT     C1  941  15.294  16.183  19.000 -0.1612 -0.0716  0.1146
  471OCT     C2  942  15.259  16.485  19.379  0.2030 -0.1471 -0.0039
  472OCT     C1  943   6.879  20.028  19.209 -0.2293  0.1196  0.1353
  472OCT     C2  944   7.028  20.255  18.880 -0.1685  0.1980  0.1653
  473OCT     C1  945  13.581  20.303  21.062 -0.1998  0.0209 -0.4176
  473OCT     C2  946  13.564  20.397  21.528 -0.0097 -0.1581  0.0545
  474OCT     C1  947  10.765  22.446  14.619  0.2563  0.2856 -0.1315
  474OCT     C2  948  11.024  22.854  14.483 -0.0222  0.0930 -0.1038
  475OCT     C1  949  17.078  15.635   8.009  0.1796  0.0191  0.1778
  475OCT     C2  950  16.644  15.874   7.998  0.2149  0.0314  0.1088
  476OCT     C1  951   7.685  20.930  22.849 -0.0047  0.1926 -0.1732
  476OCT     C2  952   8.012  20.634  23.030 -0.4342  0.2612  0.0348
  477OCT     C1  953  23.340  10.288   4.630  0.1304 -0.0784 -0.0609
  477OCT     C2  954  22.895  10.344   4.532  0.0112 -0.0051  0.1848
  478OCT     C1  955   1.086  22.907  12.389  0.0390  0.1149 -0.2408
  478OCT     C2  956   1.525  23.051  12.300  0.1883  0.1332 -0.1396
  479OCT     C1  957  18.789  19.786   4.109  0.2931  0.2023 -0.2569
  479OCT     C2  958  18.601  19.647   4.528 -0.0136  0.0491 -0.1460
  480OCT     C1  959  19.191  22.106  10.719 -0.2297 -0.0148 -0.2620
  480OCT     C2  960  19.657  22.210  10.593 -0.1009 -0.3465 -0.1299
  481OCT     C1  961  10.050  14.803  14.352 -0.0858  0.0188 -0.4601
  481OCT     C2  962  10.019  14.897  14.848  0.0829 -0.1059  0.1314
  482OCT     C1  963  23.464  13.648   9.976 -0.2961  0.2518 -0.2374
  482OCT     C2  964   0.018  13.457   9.655 -0.1680 -0.3212  0.2359
  483OCT     C1  965  23.632  23.512  17.888 -0.4601 -0.1708 -0.1001
  483OCT     C2  966   0.022  23.151  18.096 -0.4768 -0.1817 -0.0007
  484OCT     C1  967  15.977  10.804  15.982  0.2451  0.0174 -0.0231
  484OCT     C2  968  15.922  10.489  16.325  0.2119 -0.1375  0.3289
  485OCT     C1  969   0.495  16.771  23.077 -0.0435  0.0095 -0.2278
  485OCT     C2  970   0.507  16.990  23.493 -0.2634 -0.0719 -0.1602
  486OCT     C1  971   7.065   6.603  12.199 -0.0958  0.0097  0.2309
  486OCT     C2  972   7.346   6.539  12.566  0.0706  0.1132 -0.1893
  487OCT     C1  973   0.676  19.221   1.361 -0.0688  0.2457 -0.2735
  487OCT     C2  974   0.513  18.770   1.402  0.0635 -0.1504 -0.0457
  488OCT     C1  975  11.625  11.820   5.551  0.0624 -0.1986 -0.1299
  488OCT     C2  976  11.800  11.826   5.938 -0.1746  0.1547 -0.3494
  489OCT     C1  977   9.468  15.066  14.982  0.4177 -0.0231 -0.2091
  489OCT     C2  978   9.201  14.728  14.765 -0.0667 -0.0473 -0.2205
  490OCT     C1  979   4.547  16.643  19.134 -0.1820  0.0184  0.0968
  490OCT     C2  980   4.323  16.672  19.546 -0.0959 -0.0574 -0.0020
  491OCT     C1  981  12.786   7.534   6.548  0.2367 -0.1270  0.0759
  491OCT     C2  982  13.188   7.394   6.818 -0.0688 -0.4390 -0.2904
  492OCT     C1  983  15.647  13.446  12.496  0.1254 -0.0995 -0.0348
  492OCT     C2  984  15.489  13.671  12.174 -0.3240 -0.3395  0.2834
  493OCT     C1  985   6.194  15.006  12.274 -0.0540  0.3899 -0.2691
  493OCT     C2  986   6.444  14.575  12.269 -0.0442 -0.1727 -0.1061
  494OCT     C1  987  23.697  11.214   0.714  0.0950 -0.3832  0.1759
  494OCT     C2  988   0.188  11.307   0.306  0.0400 -0.1031 -0.1010
  495OCT     C1  989  15.626  20.986   0.655  0.1382 -0.1243 -0.0932
  495OCT     C2  990  15.435  21.368   0.806  0.1082 -0.1310 -0.1723
  496OCT     C1  991  19.228   1.938  22.467  0.2953 -0.2842  0.2259
  496OCT     C2  992  19.117   1.777  22.855 -0.0280 -0.0998  0.0689
  497OCT     C1  993   5.870  22.782  22.885  0.0008 -0.0303 -0.1063
  497OCT     C2  994   5.971  22.785  22.360 -0.2596 -0.4395  0.1881
  498OCT     C1  995   1.193   2.449   2.155  0.2829  0.1568  0.2231
  498OCT     C2  996   0.844   2.728   1.943 -0.0768 -0.0340 -0.1067
  499OCT     C1  997  15.662   8.763   1.694  0.0884  0.1067  0.0409
  499OCT     C2  998  15.226   8.811   1.889  0.0994 -0.1094 -0.0630
  500OCT     C1  999  14.363   3.958  14.675 -0.0379  0.1473  0.2488
  500OCT     C2 1000  14.574   4.212  14.380 -0.1298 -0.1237 -0.2682
  501OCT     C1 1001  14.760   5.263   7.445  0.1170  0.0620  0.1039
  501OCT     C2 1002  15.040   5.074   7.148 -0.1025 -0.0452  0.0548
  502OCT     C1 1003  11.888  23.358  14.593 -0.3110  0.3589 -0.4663
  502OCT     C2 1004  12.141  22.909  14.599  0.1101 -0.0830  0.0711
  503OCT     C1 1005  19.914  15.653  21.829  0.0993 -0.4265 -0.0340
  503OCT     C2 1006  20.291  15.708  21.670 -0.0311 -0.0876 -0.0905
  504OCT     C1 1007  20.957  19.071  18.451  0.2740  0.0390 -0.0323
  504OCT     C2 1008  21.294  18.919  18.176  0.1434  0.0818  0.5093
  505OCT     C1 1009   1.188  22.001  21.853  0.0360 -0.2573 -0.4196
  505OCT     C2 1010   1.024  21.850  22.285  0.0358  0.1340 -0.3261
  506OCT     C1 1011  10.439   8.471  23.661  0.1201  0.2220 -0.2216
  506OCT     C2 1012  10.409   8.623   0.338 -0.2037 -0.2882 -0.1116
  507OCT     C1 1013  19.496  22.034   4.967 -0.2127  0.3024  0.1904
  507OCT     C2 1014  19.540  22.198   4.547 -0.0651 -0.4639  0.0294
  508OCT     C1 1015   1.372   5.794   0.183  0.0763 -0.0860 -0.0358
  508OCT     C2 1016   1.345   6.177  23.669  0.0471 -0.0817 -0.5704
  509OCT     C1 1017   0.879  16.821  19.291 -0.5379  0.0423  0.0235
  509OCT     C2 1018   0.547  17.135  19.109  0.0336 -0.1965  0.1995
  510OCT     C1 1019  13.125  21.453  15.423  0.1527 -0.0025 -0.2003
  510OCT     C2 1020  13.234  21.000  15.315  0.1572  0.0405 -0.0952
  511OCT     C1 1021  11.778  19.233   6.136  0.1798 -0.0683  0.0169
  511OCT     C2 1022  12.146  19.035   5.970 -0.2789 -0.2270  0.1702
  512OCT     C1 1023   6.602   6.678  20.730  0.4096 -0.1805 -0.1362
  512OCT     C2 1024   6.474   6.538  21.101 -0.0206 -0.2631 -0.0280
  513OCT     C1 1025  14.376  20.388  18.439 -0.1361  0.0282 -0.1619
  513OCT     C2 1026  14.009  20.113  18.416  0.2575 -0.5156  0.2099
  514OCT     C1 1027   3.117   4.744   3.832 -0.1451  0.0214 -0.2523
  514OCT     C2 1028   2.993   4.940   3.394 -0.0600  0.0399  0.1142
  515OCT     C1 1029  14.494  13.610   9.058  0.0356 -0.1931 -0.3812
  515OCT     C2 1030  14.910  13.812   8.982  0.1222 -0.4274 -0.0700
  516OCT     C1 1031  18.821   8.713  17.762  0.0054 -0.0863  0.0374
  516OCT     C2 1032  19.061   8.304  17.537  0.0024 -0.0211  0.2530
  517OCT     C1 1033   0.887   4.480  11.371 -0.2988 -0.0424 -0.0898
  517OCT     C2 1034   1.290   4.458  11.135 -0.1361  0.0597 -0.2804
  518OCT     C1 1035  12.116   8.497   5.056 -0.0844 -0.2342 -0.0677
  518OCT     C2 1036  11.647   8.491   5.171 -0.3307 -0.0404 -0.0784
  519OCT     C1 1037  15.795  14.210   9.450 -0.3025  0.0606 -0.1836
  519OCT     C2 1038  15.783  14.487   9.048  0.0475  0.1475  0.0807
  520OCT     C1 1039  18.229   3.940   8.622  0.1086 -0.0244 -0.0922
  520OCT     C2 1040  18.290   3.643   8.291  0.1610 -0.1063 -0.0719
  521OCT     C1 1041   8.537   5.986   7.538 -0.0433 -0.1275  0.2179
  521OCT     C2 1042   8.317   5.813   7.888 -0.2204  0.0461 -0.0164
  522OCT     C1 1043   3.311  16.558  20.877 -0.1169  0.0098 -0.1179
  522OCT     C2 1044   3.713  16.758  20.948 -0.3201  0.1304  0.3449
  523OCT     C1 1045   0.636   3.150   2.002 -0.1890  0.0191 -0.1288
  523OCT     C2 1046   0.286   3.268   1.667 -0.1613  0.2894  0.3075
  524OCT     C1 1047  18.126   4.038   3.290  0.1386  0.0324  0.2145
  524OCT     C2 1048  18.126   3.689   2.990 -0.1716  0.2627 -0.3295
  525OCT     C1 1049  20.536  13.972  10.688  0.4912 -0.0778  0.0988
  525OCT     C2 1050  20.152  13.783  10.851 -0.1248 -0.0514 -0.0451
  526OCT     C1 1051  20.802   6.257  14.548 -0.1409 -0.6271 -0.1308
  526OCT     C2 1052  20.440   6.362  14.792 -0.0484 -0.2135  0.0769
  527OCT     C1 1053   1.756   4.905   6.726  0.1006 -0.3981 -0.3335
  527OCT     C2 1054   2.229   4.772   6.913  0.2351 -0.3408 -0.5161
  528OCT     C1 1055   0.686   2.426  13.059 -0.1166 -0.1354  0.2582
  528OCT     C2 1056   0.438   2.317  12.677  0.0110  0.0452 -0.0439
  529OCT     C1 1057   4.117   7.907   9.764  0.1696 -0.0240 -0.2387
  529OCT     C2 1058   4.318   7.742  10.144 -0.2090 -0.2007  0.0773
  530OCT     C1 1059   4.412   2.682  23.664  0.4486 -0.3627  0.3692
  530OCT     C2 1060   4.603   2.667   0.333  0.0918 -0.2599  0.2909
  531OCT     C1 1061   4.528   1.081   5.427  0.3558  0.1854  0.3468
  531OCT     C2 1062   4.604   1.358   5.774 -0.0494  0.0752  0.3773
  532OCT     C1 1063   3.229  13.311  20.486 -0.1682  0.1396 -0.2508
  532OCT     C2 1064   3.649  13.263  20.458  0.0515  0.3083 -0.2754
  533OCT     C1 1065  12.957   8.120  11.718 -0.3357 -0.2036  0.3178
  533OCT     C2 1066  13.392   8.078  11.511  0.4282  0.1700 -0.1065
  534OCT     C1 1067  13.295  17.757   8.188  0.0972  0.0362 -0.3170
  534OCT     C2 1068  13.536  17.396   8.001 -0.1203 -0.0066  0.1460
  535OCT     C1 1069   2.483   9.067   0.939 -0.0078  0.0301  0.1192
  535OCT     C2 1070   2.796   9.061   0.593  0.0431 -0.0920  0.2371
  536OCT     C1 1071   2.287  21.315   8.088  0.0109  0.2227 -0.0066
  536OCT     C2 1072   2.621  21.064   8.302 -0.3351  0.3181 -0.3273
  537OCT     C1 1073   4.672  12.137   0.358 -0.1323 -0.4037 -0.2252
  537OCT     C2 1074   4.319  11.831   0.287 -0.0582  0.1361  0.1635
  538OCT     C1 1075   4.916  14.395   9.007 -0.0040 -0.0717 -0.0158
  538OCT     C2 1076   4.537  14.398   8.755 -0.2111  0.3620 -0.0576
  539OCT     C1 1077  15.882  13.792   7.598  0.0458  0.1871 -0.0189
  539OCT     C2 1078  15.532  13.987   7.776  0.3234  0.1437  0.1594
  540OCT     C1 1079  15.724  14.061   5.750  0.3652  0.0253 -0.1658
  540OCT     C2 1080  16.193  13.973   5.843  0.0418 -0.3559 -0.0798
  541OCT     C1 1081  16.331  17.514  17.393  0.1850  0.2506  0.1406
  541OCT     C2 1082  16.216  17.181  17.082 -0.0250 -0.1092  0.2097
  542OCT     C1 1083   4.867   9.369  19.690  0.2254  0.5234 -0.0887
  542OCT     C2 1084   4.861   9.616  20.090  0.3119  0.1368 -0.3343
  543OCT     C1 1085  10.236   3.775  12.106  0.0881 -0.3274 -0.1829
  543OCT     C2 1086   9.891   3.530  12.343 -0.0977 -0.0599  0.0632
  544OCT     C1 1087  11.156  20.041   6.698 -0.0026  0.1119  0.4074
  544OCT     C2 1088  10.783  20.274   6.891  0.2488  0.0325  0.0038
  545OCT     C1 1089   3.144  20.761   0.699 -0.0395 -0.3548  0.3153
  545OCT     C2 1090   2.778  20.646   0.545  0.2741  0.1590  0.3972
  546OCT     C1 1091   1.393  20.810   2.224 -0.0403  0.0106 -0.3045
  546OCT     C2 1092   1.526  20.354   2.320 -0.5498  0.0345  0.0333
  547OCT     C1 1093  16.039  22.220   2.212 -0.2285 -0.5040 -0.1072
  547OCT     C2 1094  15.634  21.988   2.187  0.3023 -0.1066  0.3147
  548OCT     C1 1095   5.109   4.785  18.107 -0.0300  0.1971  0.1467
  548OCT     C2 1096   5.131   4.627  17.691  0.0189  0.0993 -0.0316
  549OCT     C1 1097  22.654  19.021   8.131  0.1880  0.0991  0.1211
  549OCT     C2 1098  22.378  19.352   7.971 -0.3521 -0.3632  0.3338
  550OCT     C1 1099   3.576  10.978   4.081 -0.4248 -0.0716 -0.0536
  550OCT     C2 1100   3.828  11.033   4.499  0.0624  0.0791 -0.2928
  551OCT     C1 1101   7.009  15.168   0.671 -0.0364  0.0247 -0.0546
  551OCT     C2 1102   7.084  14.862   0.328  0.1013 -0.1445 -0.3021
  552OCT     C1 1103   2.197  22.360  12.922 -0.3331  0.3088 -0.1486
  552OCT     C2 1104   2.437  22.757  12.953 -0.1111  0.1930  0.3506
  553OCT     C1 1105  15.318   5.360   0.979 -0.1051  0.1615  0.2548
  553OCT     C2 1106  15.377   5.233   1.405 -0.2376 -0.1918 -0.1457
  554OCT     C1 1107   7.931   9.763   5.931  0.0422  0.0748  0.0713
  554OCT     C2 1108   7.892   9.694   5.460  0.0606 -0.1128 -0.0669
  555OCT     C1 1109  16.639  21.384   6.276 -0.1951  0.5936  0.1353
  555OCT     C2 1110  16.923  21.134   6.471  0.1415  0.2276  0.1637
  556OCT     C1 1111   7.297  21.071  23.567  0.1817  0.0538 -0.5870
  556OCT     C2 1112   7.101  20.721   0.132 -0.2193  0.6053  0.0540
  557OCT     C1 1113   0.971   4.061   6.821  0.1005  0.0676  0.1048
  557OCT     C2 1114   0.789   4.522   6.758 -0.1180 -0.2998  0.0431
  558OCT     C1 1115   6.450  22.092  21.161 -0.0315  0.1671 -0.0759
  558OCT     C2 1116   6.380  21.816  21.503  0.0947  0.0407  0.1141
  559OCT     C1 1117  16.041   4.565  18.582  0.2386  0.0290 -0.3491
  559OCT     C2 1118  15.626   4.430  18.298  0.1946  0.0155  0.0360
  560OCT     C1 1119   8.631   6.371   0.044  0.1979  0.1279 -0.1580
  560OCT     C2 1120   8.758   6.670   0.427  0.0324  0.3120  0.0869
  561OCT     C1 1121  18.492  20.022   8.928 -0.1960 -0.0417  0.2075
  561OCT     C2 1122  18.365  20.062   8.465  0.0295 -0.0599  0.0150
  562OCT     C1 1123   0.470  11.003  14.940  0.2558 -0.0075  0.6141
  562OCT     C2 1124   0.060  10.775  14.851 -0.1683 -0.0640  0.1608
  563OCT     C1 1125   0.172  20.090   8.468 -0.1725  0.5827  0.1425
  563OCT     C2 1126   0.439  20.450   8.446  0.0457 -0.2884  0.0981
  564OCT     C1 1127  12.776  12.363  20.570 -0.3648  0.2052  0.2706
  564OCT     C2 1128  13.063  12.015  20.442 -0.1661 -0.1095 -0.5116
  565OCT     C1 1129  23.106  19.475  17.188 -0.1678  0.4360  0.0552
  565OCT     C2 1130  23.112  19.808  17.433  0.1254 -0.0285 -0.1327
  566OCT     C1 1131  10.832   0.678   4.920  0.0048 -0.0880  0.1610
  566OCT     C2 1132  10.508   0.860   5.238  0.4599 -0.0817  0.1054
  567OCT     C1 1133  14.905  21.455   4.380  0.2868  0.0459  0.1460
  567OCT     C2 1134  14.622  21.174   4.638  0.0531 -0.1935 -0.0382
  568OCT     C1 1135   4.697   5.069  19.021 -0.0386  0.0965  0.0945
  568OCT     C2 1136   4.234   4.973  18.867  0.0658  0.2185  0.2955
  569OCT     C1 1137   6.103  18.574  20.335  0.0329 -0.4246 -0.0907
  569OCT     C2 1138   5.960  19.018  20.173  0.0653 -0.0107 -0.1810
  570OCT     C1 1139  22.059   9.539   6.496  0.0590 -0.2541  0.3266
  570OCT     C2 1140  22.102   9.378   6.909  0.3571 -0.1805  0.0885
  571OCT     C1 1141  14.906  22.275   0.660 -0.1078  0.0794  0.0970
  571OCT     C2 1142  14.448  22.049   0.611  0.0043 -0.2756 -0.1884
  572OCT     C1 1143  18.063   8.078  10.968  0.0038  0.0018 -0.0741
  572OCT     C2 1144  17.789   8.048  11.322  0.2796 -0.1742 -0.1620
  573OCT     C1 1145   0.482   3.038   3.769  0.0754  0.1189 -0.2002
  573OCT     C2 1146   0.940   3.194   3.756 -0.0927 -0.0685  0.3305
  574OCT     C1 1147   9.019  13.676  15.206  0.0383 -0.1810  0.2286
  574OCT     C2 1148   8.937  13.265  14.905  0.2683 -0.0769  0.2638
  575OCT     C1 1149   5.861   1.464  14.317 -0.4139  0.1872  0.1619
  575OCT     C2 1150   5.599   1.530  14.699 -0.0574 -0.0530  0.0337
  576OCT     C1 1151  12.221  12.541  20.548  0.2006  0.0777 -0.0819
  576OCT     C2 1152  11.786  12.702  20.724 -0.2472  0.1312 -0.0543
  577OCT     C1 1153  10.132   9.940  21.546  0.0684  0.0793  0.2204
  577OCT     C2 1154  10.337   9.695  21.889 -0.1453 -0.0271  0.0389
  578OCT     C1 1155  21.612  11.738  19.800  0.4092 -0.0369 -0.1627
  578OCT     C2 1156  21.204  11.873  19.552 -0.2491  0.2937 -0.1005
  579OCT     C1 1157  11.157   2.962  14.169 -0.1722  0.3177  0.3170
  579OCT     C2 1158  11.328   3.373  14.007  0.2634 -0.2137  0.1175
  580OCT     C1 1159  22.761  12.402   0.597  0.1486 -0.1209 -0.0733
  580OCT     C2 1160  23.045  12.634   0.905 -0.0703  0.2436 -0.0705
  581OCT     C1 1161  17.660  11.096   8.683 -0.1364 -0.1553 -0.1571
  581OCT     C2 1162  17.759  11.423   9.021  0.0297  0.0537 -0.1142
  582OCT     C1 1163  16.400   6.848  12.260  0.1266 -0.1598 -0.2769
  582OCT     C2 1164  16.133   7.074  12.621  0.0814  0.1468 -0.2314
  583OCT     C1 1165  18.725  21.568  20.775  0.1619 -0.2661 -0.4161
  583OCT     C2 1166  18.290  21.392  20.761 -0.3114  0.2115  0.2350
  584OCT     C1 1167  16.649  20.626   8.309  0.0125 -0.0434  0.0480
  584OCT     C2 1168  16.279  20.481   8.127 -0.0916  0.1643 -0.2040
  585OCT     C1 1169  16.807  15.224   8.724 -0.0493 -0.4500  0.0121
  585OCT     C2 1170  16.778  15.685   8.556  0.1429  0.4824 -0.0382
  586OCT     C1 1171  10.346  18.010  13.030 -0.0976  0.0703 -0.2158
  586OCT     C2 1172  10.782  17.901  13.244 -0.5847 -0.3948 -0.1347
  587OCT     C1 1173   9.737  17.112  12.194  0.1526 -0.0306 -0.2928
  587OCT     C2 1174   9.362  16.898  12.405  0.1373 -0.0653  0.3318
  588OCT     C1 1175   5.199  21.229   7.430  0.1774  0.2965  0.0027
  588OCT     C2 1176   5.528  21.045   7.809  0.1278 -0.1911  0.1617
  589OCT     C1 1177  16.358   5.379  21.370 -0.0207  0.0170  0.4626
  589OCT     C2 1178  15.903   5.475  21.498 -0.0257  0.2561 -0.0724
  590OCT     C1 1179   9.043  14.136  14.892  0.1123 -0.0508  0.2036
  590OCT     C2 1180   8.818  14.469  15.173 -0.4221 -0.2184  0.1070
  591OCT     C1 1181  22.667   3.346   2.488  0.0991 -0.3121  0.0084
  591OCT     C2 1182  23.032   3.096   2.538 -0.1157  0.0072 -0.0999
  592OCT     C1 1183  13.449  19.171   9.405  0.4193  0.1434  0.3758
  592OCT     C2 1184  13.506  19.071   9.853  0.1480 -0.1094 -0.2073
  593OCT     C1 1185  23.551  16.526   8.302 -0.0202  0.1289  0.2138
  593OCT     C2 1186   0.158  16.713   8.060  0.2694  0.0260  0.0049
  594OCT     C1 1187  18.990   4.923  21.670 -0.1119 -0.3198  0.1849
  594OCT     C2 1188  19.284   5.295  21.452 -0.4980 -0.1532  0.1296
  595OCT     C1 1189  11.084  14.511   5.605 -0.0440  0.0659 -0.0180
  595OCT     C2 1190  10.680  14.390   5.544 -0.0362 -0.2585  0.0845
  596OCT     C1 1191   0.674   0.873  11.666  0.1081  0.0348  0.1690
  596OCT     C2 1192   0.651   1.049  12.101  0.2467  0.2738  0.2317
  597OCT     C1 1193   8.245  17.198   9.450  0.2754 -0.1671 -0.2520
  597OCT     C2 1194   8.159  17.055   9.014 -0.0531 -0.1225 -0.3565
  598OCT     C1 1195   0.552   8.012   7.513  0.0823  0.2438  0.4232
  598OCT     C2 1196   0.158   8.062   7.636  0.2337 -0.0693 -0.1835
  599OCT     C1 1197   2.257   5.255  13.703  0.2616  0.0995 -0.0507
  599OCT     C2 1198   2.062   5.604  13.421  0.0945  0.3536 -0.1565
  600OCT     C1 1199   9.691  12.516   0.821 -0.2388  0.0403  0.1382
  600OCT     C2 1200   9.836  12.301   1.208 -0.0839 -0.2679 -0.2834
  601OCT     C1 1201  11.316  15.994  19.325 -0.0512  0.0563 -0.0183
  601OCT     C2 1202  11.632  16.153  19.029 -0.3361  0.1683 -0.3404
  602OCT     C1 1203  10.589   8.755   2.095  0.1775  0.1138 -0.5367
  602OCT     C2 1204  10.902   8.529   2.340 -0.1642  0.0968 -0.0020
  603OCT     C1 1205   9.745  18.994  12.045 -0.1310  0.3139 -0.1636
  603OCT     C2 1206   9.882  19.273  11.728  0.1930 -0.1474 -0.4380
  604OCT     C1 1207  12.005  20.068  19.683  0.0789 -0.0005 -0.0420
  604OCT     C2 1208  12.247  20.416  19.462 -0.1801  0.0572  0.0538
  605OCT     C1 1209  15.537  17.387  13.242  0.0784  0.1722 -0.2274
  605OCT     C2 1210  16.008  17.311  13.400 -0.1563  0.0466 -0.1218
  606OCT     C1 1211  22.379   4.728   3.227  0.0949  0.1158  0.1364
  606OCT     C2 1212  22.781   4.440   3.173  0.0777  0.1673  0.0258
  607OCT     C1 1213   0.147  16.910  17.603 -0.0669  0.0359 -0.0268
  607OCT     C2 1214  23.497  17.205  17.586  0.4946 -0.1547 -0.1378
  608OCT     C1 1215  13.273   1.071   2.594 -0.0477  0.2308  0.2448
  608OCT     C2 1216  13.421   1.530   2.657  0.2178 -0.1748 -0.0977
  609OCT     C1 1217  20.456  16.931  13.343 -0.1629 -0.2254 -0.1273
  609OCT     C2 1218  20.615  17.121  13.706  0.0703 -0.2285 -0.2172
  610OCT     C1 1219  22.509  10.893  11.056  0.0647 -0.0626 -0.4535
  610OCT     C2 1220  22.485  10.416  11.236 -0.4514  0.1087  0.0927
  611OCT     C1 1221  17.741   4.897   4.471  0.2642  0.0247 -0.0369
  611OCT     C2 1222  18.059   4.665   4.279 -0.2053  0.1659 -0.2524
  612OCT     C1 1223  14.232   0.416   8.580  0.1522 -0.0657  0.0257
  612OCT     C2 1224  13.882   0.560   8.339 -0.1167 -0.3474 -0.2401
  613OCT     C1 1225  23.707   5.907   6.777 -0.0014  0.2915 -0.0596
  613OCT     C2 1226   0.178   5.961   7.197  0.0435 -0.1917 -0.4012
  614OCT     C1 1227   0.322  17.180  19.600 -0.0758  0.2952  0.0010
  614OCT     C2 1228   0.664  16.898  19.788  0.0687 -0.5035  0.0390
  615OCT     C1 1229  11.922  20.168  12.196 -0.0573 -0.2018 -0.3431
  615OCT     C2 1230  12.397  20.075  12.332  0.0847 -0.0965 -0.1565
  616OCT     C1 1231   1.206   1.006   9.182  0.5333  0.1150  0.3265
  616OCT     C2 1232   1.580   1.002   8.944  0.1931 -0.1568  0.1244
  617OCT     C1 1233  17.303   9.110  23.155 -0.1455 -0.0063 -0.2306
  617OCT     C2 1234  17.054   9.029  22.807  0.2726 -0.2632 -0.0293
  618OCT     C1 1235   7.912  14.473   8.935 -0.0487  0.0597 -0.0127
  618OCT     C2 1236   7.814  14.753   9.244  0.2158  0.0435 -0.1780
  619OCT     C1 1237  19.562  16.886  10.874 -0.1107 -0.0532 -0.0963
  619OCT     C2 1238  19.759  16.522  11.190  0.1501  0.0624 -0.1958
  620OCT     C1 1239  22.903  17.647  12.486  0.0922  0.1123 -0.0693
  620OCT     C2 1240  23.331  17.534  12.374  0.1822 -0.3629 -0.3152
  621OCT     C1 1241  11.509   1.145   0.254 -0.0614 -0.2583 -0.0729
  621OCT     C2 1242  11.529   0.714   0.412  0.0799 -0.5630  0.0353
  622OCT     C1 1243  19.666   0.742  15.225  0.0393  0.0212  0.1807
  622OCT     C2 1244  19.383   0.300  15.189  0.1171  0.2371 -0.1613
  623OCT     C1 1245   2.244  10.129  15.222 -0.0695 -0.0155  0.0714
  623OCT     C2 1246   2.668   9.889  15.262 -0.0305  0.0889  0.0084
  624OCT     C1 1247  18.403  19.284  20.555  0.1363  0.0812 -0.0305
  624OCT     C2 1248  18.329  19.711  20.528  0.3002  0.2106  0.0130
  625OCT     C1 1249   3.548  13.128   7.709 -0.2231 -0.1391 -0.0552
  625OCT     C2 1250   4.026  13.152   7.525  0.2923  0.4042 -0.0324
  626OCT     C1 1251   7.517   8.388  10.118 -0.1537 -0.0767  0.1167
  626OCT     C2 1252   7.154   8.051  10.129 -0.0533 -0.1332  0.0772
  627OCT     C1 1253   3.172  12.731   6.789 -0.3024 -0.3011  0.1278
  627OCT     C2 1254   3.268  13.169   6.629  0.1080 -0.0358  0.0217
  628OCT     C1 1255  17.321  10.142   2.139 -0.0328  0.4696 -0.4092
  628OCT     C2 1256  17.479   9.801   2.473  0.1498 -0.1809 -0.1461
  629OCT     C1 1257   7.956  19.279  13.841 -0.2295 -0.0769 -0.1997
  629OCT     C2 1258   7.586  19.007  13.772  0.2406  0.3418 -0.1362
  630OCT     C1 1259  21.046   2.938   9.217  0.0425 -0.0752  0.2846
  630OCT     C2 1260  21.024   2.546   8.959  0.1723  0.1483  0.0090
  631OCT     C1 1261  15.742  16.214  17.835 -0.0433  0.2329 -0.0461
  631OCT     C2 1262  15.547  16.519  18.161 -0.3458  0.2124  0.0646
  632OCT     C1 1263   9.129   0.293   8.183  0.0948 -0.0342 -0.1856
  632OCT     C2 1264   9.139   0.395   8.665  0.1124  0.0340 -0.3009
  633OCT     C1 1265   3.931  21.903  22.150 -0.0640  0.2334  0.1345
  633OCT     C2 1266   4.341  21.724  22.354 -0.2288 -0.4274  0.1356
  634OCT     C1 1267   1.973  11.702  16.560 -0.4773  0.1487  0.1741
  634OCT     C2 1268   2.429  11.744  16.743 -0.1470 -0.1161  0.0129
  635OCT     C1 1269   6.497  14.590  10.209 -0.0482 -0.0280 -0.0179
  635OCT     C2 1270   6.547  14.141  10.293  0.2301  0.1016 -0.1587
  636OCT     C1 1271   0.119  19.804   4.903 -0.5734  0.0283  0.0251
  636OCT     C2 1272   0.522  19.552   5.053  0.1195  0.1809  0.1465
  637OCT     C1 1273  10.350  10.845  22.221 -0.0004  0.1091  0.4700
  637OCT     C2 1274  10.124  11.033  21.892  0.0174  0.4010  0.0097
  638OCT     C1 1275  23.475  11.922  15.998 -0.1909 -0.4300 -0.3036
  638OCT     C2 1276  23.388  11.554  15.767 -0.4444  0.1726 -0.0968
  639OCT     C1 1277   0.151  20.292  19.471 -0.3710  0.1148 -0.2791
  639OCT     C2 1278   0.053  20.627  19.164 -0.1873 -0.0061  0.0559
  640OCT     C1 1279  20.011  12.999  13.147  0.1510  0.2085  0.0105
  640OCT     C2 1280  19.565  12.872  13.074  0.1751  0.2866 -0.1410
  641OCT     C1 1281   4.797   3.606  14.212  0.0571  0.3433  0.2118
  641OCT     C2 1282   5.228   3.343  14.285 -0.0445  0.0541 -0.2637
  642OCT     C1 1283   8.314  14.388   7.116  0.3642  0.1867 -0.3392
  642OCT     C2 1284   8.122  13.994   7.224 -0.0254  0.2429  0.1128
  643OCT     C1 1285  23.464  20.412  18.002 -0.1279 -0.2527 -0.0480
  643OCT     C2 1286   0.088  20.221  18.208 -0.2641 -0.4205 -0.3580
  644OCT     C1 1287  18.808   0.228   3.255  0.1130 -0.0588 -0.1272
  644OCT     C2 1288  18.950  23.499   3.158  0.2153 -0.1320 -0.0161
  645OCT     C1 1289   6.166  14.321  16.912  0.1950  0.0599 -0.2431
  645OCT     C2 1290   6.025  14.418  17.339 -0.0333  0.4100  0.2285
  646OCT     C1 1291  14.114  18.647   5.107 -0.1140 -0.5406  0.2743
  646OCT     C2 1292  13.981  18.814   5.507  0.1782 -0.2172 -0.0312
  647OCT     C1 1293  23.371  14.646  16.334  0.2037  0.1166  0.3169
  647OCT     C2 1294  23.519  14.415  15.979 -0.1774  0.1308  0.3495
  648OCT     C1 1295  12.448  21.311   4.605 -0.0016 -0.1573  0.0093
  648OCT     C2 1296  12.099  21.409   4.954 -0.4164  0.0864  0.1326
  649OCT     C1 1297  13.151  18.759   8.079 -0.2441  0.1536 -0.1556
  649OCT     C2 1298  12.904  18.715   7.683  0.7683 -0.1896  0.0174
  650OCT     C1 1299   8.777  18.859  21.798  0.1265  0.0007  0.3285
  650OCT     C2 1300   8.985  18.442  21.784  0.1086  0.0968 -0.1313
  651OCT     C1 1301  15.844   8.272   1.564 -0.3115 -0.3121 -0.3154
  651OCT     C2 1302  15.727   8.527   1.228 -0.1502  0.1197 -0.0261
  652OCT     C1 1303   1.452  21.605   5.367 -0.3536 -0.0810 -0.3735
  652OCT     C2 1304   1.163  21.413   5.611 -0.0343  0.1796 -0.2965
  653OCT     C1 1305   8.364   5.867  11.144  0.0585 -0.2352 -0.0025
  653OCT     C2 1306   8.099   6.232  11.265  0.0021 -0.0643  0.2150
  654OCT     C1 1307  16.006   3.121  14.843 -0.4378 -0.0091 -0.2379
  654OCT     C2 1308  15.663   3.333  14.625  0.3489  0.1203  0.1313
  655OCT     C1 1309  23.343  13.121  11.518 -0.2910  0.1637 -0.0093
  655OCT     C2 1310  22.982  13.436  11.465  0.0017 -0.0610  0.2288
  656OCT     C1 1311  19.886  15.785  17.729  0.0753  0.0159  0.3456
  656OCT     C2 1312  20.239  15.462  17.558 -0.1209  0.3470  0.1855
  657OCT     C1 1313   6.473   3.452   7.026 -0.5211  0.5533  0.0980
  657OCT     C2 1314   6.589   3.017   6.829 -0.1054 -0.0826  0.2451
  658OCT     C1 1315  20.932  23.429   8.537  0.0718  0.1632  0.0884
  658OCT     C2 1316  20.526  23.187   8.490 -0.1441  0.1686 -0.1026
  659OCT     C1 1317   6.070  19.044   1.466 -0.0720  0.2257  0.0744
  659OCT     C2 1318   6.365  19.313   1.718 -0.0207  0.4533  0.1544
  660OCT     C1 1319   7.944   0.012   1.687 -0.0268  0.3318 -0.2889
  660OCT     C2 1320   7.792   0.460   1.588 -0.0657  0.0149 -0.2756
  661OCT     C1 1321  19.952   4.187  18.469  0.0412  0.1151  0.2281
  661OCT     C2 1322  19.622   4.120  18.186  0.4114 -0.1832 -0.0668
  662OCT     C1 1323  19.599  16.654   3.124  0.2795  0.3223 -0.0271
  662OCT     C2 1324  19.181  16.351   3.113  0.1032 -0.2893 -0.0637
  663OCT     C1 1325  17.667   8.550  16.892 -0.2158  0.0555  0.0838
  663OCT     C2 1326  17.609   8.386  17.306  0.2026  0.0179  0.3076
  664OCT     C1 1327   8.768   2.513   8.946  0.1869  0.1586  0.2663
  664OCT     C2 1328   9.194   2.326   8.838  0.0168  0.1932  0.1759
  665OCT     C1 1329   8.219   2.887   4.225 -0.0401  0.1152  0.1150
  665OCT     C2 1330   8.540   2.739   3.971 -0.0177 -0.2416  0.1753
  666OCT     C1 1331  20.203   7.313   0.261  0.3508 -0.1061  0.0122
  666OCT     C2 1332  20.354   7.702   0.513  0.2106  0.3266 -0.1298
  667OCT     C1 1333  11.295   1.699  15.042 -0.1217 -0.4057  0.1403
  667OCT     C2 1334  11.264   1.311  15.349 -0.0246 -0.0873 -0.5553
  668OCT     C1 1335  21.940   1.346  15.421 -0.0057  0.3693  0.1215
  668OCT     C2 1336  22.008   1.337  14.919  0.1180  0.0753 -0.3394
  669OCT     C1 1337   9.498   2.065  11.763 -0.1777 -0.7299 -0.2744
  669OCT     C2 1338   9.811   2.051  12.151 -0.2766  0.1110 -0.1969
  670OCT     C1 1339  15.447   5.871  20.241  0.0005  0.2191 -0.0710
  670OCT     C2 1340  15.112   5.800  19.923 -0.2437  0.1175  0.0483
  671OCT     C1 1341   8.060  22.243  18.451  0.0488  0.0187 -0.2618
  671OCT     C2 1342   7.910  22.069  18.039  0.0723 -0.2310 -0.1567
  672OCT     C1 1343   1.023   3.056  19.037 -0.0942 -0.2890 -0.1876
  672OCT     C2 1344   1.155   2.959  19.522  0.3772 -0.0963  0.2784
  673OCT     C1 1345   8.987   4.611  10.315  0.0650 -0.0963  0.0265
  673OCT     C2 1346   8.732   4.303  10.533 -0.2537  0.2329 -0.4720
  674OCT     C1 1347   1.956   6.505   6.301 -0.1577 -0.1925  0.2202
  674OCT     C2 1348   1.886   6.270   5.916 -0.1782  0.2815  0.2733
  675OCT     C1 1349  19.078   9.974  14.010  0.0826 -0.0996 -0.2517
  675OCT     C2 1350  19.263  10.383  14.098 -0.0464 -0.3076 -0.2896
  676OCT     C1 1351   2.205  12.869  14.850  0.1247  0.1061 -0.3317
  676OCT     C2 1352   2.242  12.761  14.359 -0.2188  0.4581  0.5981
  677OCT     C1 1353   3.154   3.070  12.474  0.0051 -0.0635  0.1622
  677OCT     C2 1354   3.231   2.989  12.071 -0.0287  0.1590 -0.0486
  678OCT     C1 1355  12.446  11.471  20.901  0.1665 -0.0760  0.2389
  678OCT     C2 1356  11.992  11.375  20.995 -0.1488  0.0172 -0.2393
  679OCT     C1 1357  18.116   2.440   5.509 -0.1182 -0.1011  0.2662
  679OCT     C2 1358  17.958   2.857   5.668  0.0506  0.0352 -0.1080
  680OCT     C1 1359  19.286  15.732  10.937 -0.0843  0.3248 -0.0731
  680OCT     C2 1360  19.664  15.954  11.055 -0.0713 -0.0967  0.1975
  681OCT     C1 1361   5.469  20.321  11.851 -0.0626  0.0093 -0.0104
  681OCT     C2 1362   5.055  20.167  11.840 -0.1193  0.0364  0.0202
  682OCT     C1 1363  22.152  12.784  16.935  0.1114 -0.0391 -0.1219
  682OCT     C2 1364  22.517  12.977  16.760 -0.4186 -0.3751 -0.1874
  683OCT     C1 1365  11.551  15.348  21.165 -0.2286 -0.1439  0.0909
  683OCT     C2 1366  11.279  15.512  21.485 -0.2151  0.1725  0.1798
  684OCT     C1 1367  12.070  22.287  12.907 -0.3165 -0.0428  0.0585
  684OCT     C2 1368  11.600  22.270  12.844  0.0591  0.1893  0.2829
  685OCT     C1 1369   7.496   1.725   6.128 -0.0243 -0.0409 -0.3462
  685OCT     C2 1370   7.920   1.558   6.103 -0.2283  0.0478  0.1877
  686OCT     C1 1371   1.781   1.236  15.143 -0.0969 -0.0072 -0.1684
  686OCT     C2 1372   1.356   1.216  14.893  0.1420  0.0219  0.2795
  687OCT     C1 1373  10.143   0.980   5.967 -0.2026  0.1264  0.1296
  687OCT     C2 1374   9.709   0.732   5.979  0.0351  0.0348 -0.3803
  688OCT     C1 1375   1.868   1.322   9.276  0.0955 -0.0967 -0.2842
  688OCT     C2 1376   2.237   1.353   9.547  0.0775 -0.0065 -0.2117
  689OCT     C1 1377  20.547   8.522   8.568 -0.1219  0.0405  0.1885
  689OCT     C2 1378  20.702   8.913   8.625 -0.2871 -0.3432 -0.2782
  690OCT     C1 1379  10.655  12.944   6.448  0.5115  0.0050 -0.1893
  690OCT     C2 1380  10.841  12.525   6.578 -0.1813 -0.2861 -0.2071
  691OCT     C1 1381  20.715   7.368   1.802  0.1094  0.3351 -0.1855
  691OCT     C2 1382  21.084   7.221   1.506 -0.2519 -0.1739  0.0637
  692OCT     C1 1383   0.745  13.620  18.152  0.2701  0.0540  0.1361
  692OCT     C2 1384   1.043  13.755  18.455 -0.0084  0.0285  0.1848
  693OCT     C1 1385   5.676  12.117  19.588  0.1453  0.2263 -0.1910
  693OCT     C2 1386   5.332  11.831  19.755  0.3706 -0.1693 -0.0067
  694OCT     C1 1387  18.925  14.845   8.323  0.0790  0.0219 -0.1126
  694OCT     C2 1388  18.575  15.008   8.635 -0.0224 -0.0218  0.0240
  695OCT     C1 1389  11.766  19.463  23.349 -0.0070  0.3452  0.1763
  695OCT     C2 1390  11.340  19.256  23.464  0.0344 -0.2058  0.1596
  696OCT     C1 1391  14.228  10.826  19.030 -0.0217  0.4056 -0.3867
  696OCT     C2 1392  14.374  10.856  19.437 -0.3725 -0.0632 -0.0038
  697OCT     C1 1393   9.393   2.942  11.423  0.3601 -0.0006  0.1582
  697OCT     C2 1394   9.303   3.231  11.076  0.1253  0.0657 -0.1546
  698OCT     C1 1395   6.612  17.024  23.557 -0.2266 -0.0969 -0.0869
  698OCT     C2 1396   6.559  16.708  23.194  0.1228 -0.3577  0.1175
  699OCT     C1 1397   3.435  14.433   2.643 -0.3414 -0.4513 -0.2060
  699OCT     C2 1398   3.289  13.977   2.795  0.1802  0.1965  0.2589
  700OCT     C1 1399   7.454   1.661   3.799 -0.0605  0.1984  0.0439
  700OCT     C2 1400   7.246   1.257   3.618  0.0273  0.1937 -0.0207
  701OCT     C1 1401   4.578  15.015  19.474  0.1263  0.3482 -0.3537
  701OCT     C2 1402   4.314  15.411  19.578  0.2570  0.1453 -0.0015
  702OCT     C1 1403  17.612  22.649   5.776  0.3006 -0.2730  0.1825
  702OCT     C2 1404  17.506  22.214   5.621 -0.1065 -0.3872  0.0505
  703OCT     C1 1405  18.237  11.203   8.914  0.1966  0.1121 -0.3159
  703OCT     C2 1406  18.270  10.961   9.351 -0.4369 -0.4569 -0.0406
  704OCT     C1 1407   0.405  20.905  20.570 -0.1892  0.2235 -0.0929
  704OCT     C2 1408   0.799  21.000  20.694  0.3474  0.0482  0.1166
  705OCT     C1 1409  15.035  17.293   2.074 -0.0833 -0.4193 -0.2290
  705OCT     C2 1410  15.103  16.831   2.022  0.1098 -0.0359  0.0700
  706OCT     C1 1411   8.174  14.036   4.088  0.3471 -0.0916 -0.1820
  706OCT     C2 1412   8.243  14.043   4.558  0.4064  0.3785 -0.0757
  707OCT     C1 1413   1.852  18.356  13.506 -0.0880  0.1708 -0.2638
  707OCT     C2 1414   1.599  18.003  13.485 -0.3100 -0.0509 -0.0374
  708OCT     C1 1415  21.579  10.299   6.005 -0.2679 -0.0521  0.1323
  708OCT     C2 1416  21.799  10.102   6.306  0.2707  0.1139  0.3775
  709OCT     C1 1417  23.190   4.508   2.281  0.1736 -0.1034 -0.2670
  709OCT     C2 1418  23.637   4.350   2.146 -0.3358 -0.0690  0.1928
  710OCT     C1 1419   6.334   2.171   2.533  0.0384 -0.1637  0.0079
  710OCT     C2 1420   6.822   2.272   2.576  0.2297 -0.3171 -0.1214
  711OCT     C1 1421   2.692   3.655  11.627  0.0922 -0.3007 -0.0548
  711OCT     C2 1422   3.064   3.378  11.475  0.2721 -0.0878  0.0839
  712OCT     C1 1423  18.842  19.708   8.696  0.0007 -0.2016  0.1550
  712OCT     C2 1424  19.288  19.666   8.726  0.1032 -0.1524  0.0562
  713OCT     C1 1425  16.185  17.918  12.082  0.0541  0.0484 -0.1683
  713OCT     C2 1426  16.489  17.874  12.442 -0.0147  0.0334 -0.0762
  714OCT     C1 1427  19.322  10.059  19.845  0.2675 -0.0188 -0.1408
  714OCT     C2 1428  19.005   9.982  20.215 -0.2002 -0.3380  0.1676
  715OCT     C1 1429   1.225   4.816  10.428  0.4332 -0.1139  0.1957
  715OCT     C2 1430   1.627   4.605  10.402 -0.2185 -0.1179 -0.0917
  716OCT     C1 1431  12.039  15.199  14.699 -0.1142 -0.0397 -0.0577
  716OCT     C2 1432  12.267  14.874  14.928 -0.1848  0.2335 -0.2786
  717OCT     C1 1433   2.242  21.003  12.157  0.2937 -0.2403  0.2913
  717OCT     C2 1434   2.503  21.134  12.550 -0.2519 -0.2687 -0.0090
  718OCT     C1 1435   3.750   6.255   0.942  0.5253  0.1942  0.5333
  718OCT     C2 1436   3.577   6.322   0.552  0.0689  0.0747  0.1965
  719OCT     C1 1437   7.072  20.125  16.986 -0.0557 -0.1754  0.2798
  719OCT     C2 1438   7.460  19.917  16.802 -0.0879  0.1828  0.0515
  720OCT     C1 1439  10.282  17.536  19.382 -0.0327 -0.3155 -0.1988
  720OCT     C2 1440  10.505  17.091  19.573  0.3325  0.0878  0.0717
  721OCT     C1 1441   2.799   6.744   0.757  0.2229  0.1934 -0.4134
  721OCT     C2 1442   2.862   6.633   0.300  0.0788  0.1790  0.3182
  722OCT     C1 1443   3.077   0.654   0.121 -0.0702  0.2284 -0.1812
  722OCT     C2 1444   2.661   0.946   0.174  0.3374 -0.3116  0.3925
  723OCT     C1 1445   1.393  18.109  18.001  0.3803  0.0510  0.0548
  723OCT     C2 1446   1.819  18.245  17.979 -0.2734 -0.2069  0.4523
  724OCT     C1 1447   6.218   1.323   8.251  0.1031  0.1194  0.1127
  724OCT     C2 1448   6.098   1.826   8.420  0.0432 -0.1162 -0.1148
  725OCT     C1 1449   5.340   8.985  21.642  0.3466  0.0078  0.1927
  725OCT     C2 1450   5.425   8.524  21.519 -0.0663 -0.0280 -0.0428
  726OCT     C1 1451  13.759  11.673  15.641 -0.2434 -0.2047  0.3395
  726OCT     C2 1452  13.764  11.658  15.151 -0.2934 -0.0119  0.2041
  727OCT     C1 1453  11.540  14.782  22.842 -0.0459  0.0645  0.0262
  727OCT     C2 1454  11.885  14.735  23.092  0.0377 -0.1824 -0.3039
  728OCT     C1 1455   4.017   7.396   3.439  0.1328 -0.1341  0.2155
  728OCT     C2 1456   3.832   7.832   3.478  0.0815  0.3009  0.1152
  729OCT     C1 1457  18.571   2.647  12.492  0.1898 -0.2229  0.2443
  729OCT     C2 1458  18.520   2.362  12.141 -0.3179  0.0423  0.2669
  730OCT     C1 1459   8.153   0.668  14.203  0.1757  0.0797 -0.1200
  730OCT     C2 1460   7.687   0.614  14.059 -0.3243  0.1935  0.1010
  731OCT     C1 1461  10.468   6.302   6.426  0.0319  0.0224 -0.2347
  731OCT     C2 1462  10.223   6.337   6.765  0.1220 -0.2425 -0.2190
  732OCT     C1 1463   7.558   2.174  15.855  0.1759  0.2099 -0.0471
  732OCT     C2 1464   7.367   1.950  15.517  0.2277  0.0975 -0.1332
  733OCT     C1 1465  13.939  18.229  20.134 -0.2728  0.0350 -0.2011
  733OCT     C2 1466  13.780  17.829  20.260  0.1324 -0.2767  0.1072
  734OCT     C1 1467   2.635  17.068  20.523  0.1059  0.2509 -0.1603
  734OCT     C2 1468   2.920  16.690  20.544  0.2159  0.3055 -0.0673
  735OCT     C1 1469  10.710  19.518  10.546  0.0351 -0.2354  0.1161
  735OCT     C2 1470  10.361  19.891  10.611 -0.1572  0.0630  0.1823
  736OCT     C1 1471  13.384  12.878   8.147 -0.2176  0.0241 -0.1364
  736OCT     C2 1472  13.727  12.994   7.955 -0.1197  0.0056  0.2877
  737OCT     C1 1473   9.704   6.602  18.485  0.3319 -0.5292 -0.1571
  737OCT     C2 1474  10.154   6.572  18.394 -0.1204 -0.0570  0.5580
  738OCT     C1 1475  15.653   5.485   9.906  0.2717  0.2639 -0.0904
  738OCT     C2 1476  15.330   5.469   9.584 -0.2006 -0.0444 -0.0078
  739OCT     C1 1477  13.462  16.696  13.266 -0.2300 -0.3010  0.0080
  739OCT     C2 1478  13.893  16.594  13.102  0.1198  0.2142 -0.0518
  740OCT     C1 1479  15.251   1.535   2.738  0.2771  0.1171 -0.2690
  740OCT     C2 1480  15.558   1.722   3.027  0.4171  0.4086 -0.0332
  741OCT     C1 1481   6.347  10.220  20.110 -0.2472  0.3085 -0.4933
  741OCT     C2 1482   6.060  10.556  20.286  0.2017 -0.0134  0.0944
  742OCT     C1 1483  11.605  15.982  16.393  0.1490 -0.0387  0.0479
  742OCT     C2 1484  11.162  15.851  16.372 -0.2445  0.0221  0.1214
  743OCT     C1 1485  17.649  11.832  10.199  0.2600  0.3292 -0.4748
  743OCT     C2 1486  17.529  12.160   9.941 -0.1018  0.0554 -0.3394
  744OCT     C1 1487   2.041  18.222  19.868  0.0268 -0.0845 -0.0053
  744OCT     C2 1488   1.703  17.957  19.715 -0.0737 -0.0596  0.1054
  745OCT     C1 1489   9.208   4.106  15.132 -0.0447 -0.1745  0.1630
  745OCT     C2 1490   9.375   4.051  14.679 -0.1144 -0.1639  0.2600
  746OCT     C1 1491  18.230  23.008  12.472 -0.1430  0.0225 -0.3534
  746OCT     C2 1492  18.686  22.958  12.259 -0.1765  0.3154  0.0860
  747OCT     C1 1493   1.305   9.610   1.957  0.1543 -0.0461 -0.2062
  747OCT     C2 1494   1.380   9.546   1.509 -0.0096 -0.1931 -0.1450
  748OCT     C1 1495  14.677   8.645   8.718 -0.0936 -0.1411  0.1397
  748OCT     C2 1496  14.272   8.698   8.405  0.1117  0.0279  0.0963
  749OCT     C1 1497   3.951  23.181  11.818  0.1773  0.0682  0.0906
  749OCT     C2 1498   3.860  22.807  11.537 -0.0927 -0.0008 -0.4324
  750OCT     C1 1499  11.404  12.376   6.701 -0.0811  0.2597  0.2088
  750OCT     C2 1500  11.209  11.974   6.521  0.1693 -0.0349  0.2686
  751OCT     C1 1501  13.252  10.571  23.264 -0.3069 -0.1833 -0.0624
  751OCT     C2 1502  13.290  10.987  23.578  0.4906 -0.1719  0.1852
  752OCT     C1 1503  11.181  17.253  10.903 -0.4449 -0.2312  0.1275
  752OCT     C2 1504  11.101  17.640  10.623  0.1119 -0.0407  0.1122
  753OCT     C1 1505   2.174   9.552   7.479  0.3904 -0.7723 -0.4497
  753OCT     C2 1506   1.997   9.182   7.233  0.1848  0.1136 -0.1760
  754OCT     C1 1507  17.556   2.858  20.129 -0.2582 -0.0204 -0.1696
  754OCT     C2 1508  17.891   3.019  19.766  0.1004 -0.1892 -0.2592
  755OCT     C1 1509   8.614   7.031   5.921 -0.2947 -0.1530 -0.0127
  755OCT     C2 1510   8.491   7.134   6.436 -0.0422  0.0628 -0.2406
  756OCT     C1 1511  17.333   4.597   3.653 -0.2102 -0.0446 -0.1293
  756OCT     C2 1512  17.124   4.180   3.626 -0.0747  0.0182 -0.0172
  757OCT     C1 1513  20.633  21.722   0.428  0.1172  0.1167 -0.5313
  757OCT     C2 1514  21.108  21.844   0.348 -0.1922  0.2816 -0.2346
  758OCT     C1 1515   7.498  12.440  12.635 -0.0777  0.1787 -0.1392
  758OCT     C2 1516   7.997  12.384  12.535  0.0083 -0.2157  0.1280
  759OCT     C1 1517  23.178   3.213  12.902 -0.5305 -0.3853 -0.1770
  759OCT     C2 1518  23.273   3.653  12.759  0.1244  0.1663  0.2267
  760OCT     C1 1519  10.506   4.629  22.872  0.1300 -0.0428  0.0591
  760OCT     C2 1520  10.540   4.402  23.246 -0.1094  0.1712  0.1093
  761OCT     C1 1521  21.643  16.096  14.505 -0.2226 -0.2115  0.0054
  761OCT     C2 1522  21.938  16.422  14.695  0.2908 -0.0867 -0.1375
  762OCT     C1 1523  12.204   0.198  10.829  0.1951 -0.2193 -0.1569
  762OCT     C2 1524  12.203  23.448  10.895 -0.0898 -0.0259  0.0111
  763OCT     C1 1525  21.950   1.021  23.416  0.0776  0.4080 -0.2003
  763OCT     C2 1526  22.344   0.861  23.328  0.0687  0.1680 -0.1661
  764OCT     C1 1527  11.888  16.798   1.037 -0.1710 -0.0302  0.1598
  764OCT     C2 1528  11.921  16.843   1.496  0.0932 -0.3598  0.0651
  765OCT     C1 1529   7.482  14.946  20.731 -0.3581  0.0197 -0.0869
  765OCT     C2 1530   7.152  15.257  20.631 -0.0119 -0.1392  0.0052
  766OCT     C1 1531   6.562   8.178  12.290  0.3379  0.1160 -0.1170
  766OCT     C2 1532   6.834   7.975  11.909 -0.0613  0.5023 -0.1314
  767OCT     C1 1533  20.089  15.664   5.577  0.2004  0.0610  0.1717
  767OCT     C2 1534  20.481  15.789   5.378  0.0543  0.0103 -0.2881
  768OCT     C1 1535  13.967   8.038  18.010 -0.1499 -0.1210 -0.3430
  768OCT     C2 1536  13.665   8.290  17.800  0.2000  0.3778  0.0355
  769OCT     C1 1537  23.648   5.516  12.817  0.0276  0.1542  0.2190
  769OCT     C2 1538   0.083   5.178  12.544 -0.3288  0.2909  0.3866
  770OCT     C1 1539  22.442   4.087  14.908  0.4483 -0.1707  0.2209
  770OCT     C2 1540  22.583   4.483  15.053  0.4726 -0.1722  0.1373
  771OCT     C1 1541  14.275   3.875  14.111 -0.0804  0.3215 -0.1180
  771OCT     C2 1542  14.336   4.353  13.965  0.1449 -0.0880  0.0167
  772OCT     C1 1543  12.350  20.613  21.306  0.1087 -0.0637  0.0428
  772OCT     C2 1544  12.455  20.141  21.268 -0.0820 -0.2358  0.2447
  773OCT     C1 1545   2.504   9.555  12.687  0.1468 -0.1131  0.2587
  773OCT     C2 1546   2.130   9.294  12.697 -0.2386  0.0596 -0.0568
  774OCT     C1 1547  17.099  22.746  12.591  0.1975  0.2808 -0.3845
  774OCT     C2 1548  16.949  22.497  12.968  0.0284 -0.0241  0.1672
  775OCT     C1 1549  22.814  10.988  17.756 -0.2927  0.0300  0.0947
  775OCT     C2 1550  22.696  10.559  17.572  0.1284 -0.0503  0.3626
  776OCT     C1 1551   1.244   1.999  22.256  0.0723 -0.1565 -0.0786
  776OCT     C2 1552   0.953   2.374  22.077  0.1377  0.3990 -0.0516
  777OCT     C1 1553   6.514  15.022  11.954 -0.1158  0.1250 -0.1349
  777OCT     C2 1554   6.629  15.406  12.219  0.3919  0.0347  0.3023
  778OCT     C1 1555  21.724  23.495  10.031 -0.0178  0.4106 -0.0369
  778OCT     C2 1556  21.686  23.523  10.505 -0.0402  0.0248  0.0629
  779OCT     C1 1557   7.230   7.285  13.714 -0.0473 -0.1801 -0.0563
  779OCT     C2 1558   7.538   7.288  13.346 -0.4524 -0.1304 -0.0871
  780OCT     C1 1559   2.852   1.840  15.210 -0.1058  0.3583 -0.4188
  780OCT     C2 1560   3.235   1.803  14.993  0.3509  0.1304 -0.4597
  781OCT     C1 1561  18.688  17.693   4.427 -0.2962 -0.1063  0.0932
  781OCT     C2 1562  18.701  18.129   4.389  0.3884  0.2515  0.1091
  782OCT     C1 1563  19.500  15.734  22.169  0.2541  0.0457  0.1343
  782OCT     C2 1564  19.287  15.880  21.806  0.1550  0.1409 -0.0691
  783OCT     C1 1565  11.618  20.233  22.443 -0.2809 -0.3088  0.0843
  783OCT     C2 1566  11.120  20.252  22.429 -0.0791 -0.1184 -0.2777
  784OCT     C1 1567  15.297   2.835  23.080 -0.0250  0.4114 -0.0147
  784OCT     C2 1568  15.382   2.634  22.636 -0.1102 -0.1563  0.0275
  785OCT     C1 1569  12.612   7.784  17.830  0.0043  0.3606 -0.1072
  785OCT     C2 1570  12.372   7.474  17.613  0.3011 -0.0893  0.0155
  786OCT     C1 1571  19.125  23.434   0.818  0.2127  0.1587 -0.2752
  786OCT     C2 1572  18.889  23.356   1.195  0.1466 -0.0893 -0.3391
  787OCT     C1 1573   1.939   6.274   8.488 -0.0385  0.0408  0.2350
  787OCT     C2 1574   2.179   6.399   8.066 -0.3266 -0.0674  0.1054
  788OCT     C1 1575   0.520   4.309   8.541  0.2807  0.0721  0.3995
  788OCT     C2 1576   0.704   4.695   8.515 -0.2824  0.0498  0.3368
  789OCT     C1 1577  10.945  21.620   6.831 -0.0218 -0.0681 -0.1557
  789OCT     C2 1578  11.208  22.032   6.766  0.0661  0.1152 -0.1028
  790OCT     C1 1579  23.249   5.261  10.923  0.3651 -0.0148 -0.4032
  790OCT     C2 1580  23.553   4.909  10.991  0.0403 -0.2783 -0.2965
  791OCT     C1 1581   7.170  21.689  18.238 -0.0002  0.1286  0.2663
  791OCT     C2 1582   7.562  21.842  18.266  0.0392  0.2079  0.1038
  792OCT     C1 1583   2.043  13.351   8.604 -0.1561 -0.1725 -0.1024
  792OCT     C2 1584   2.238  13.409   8.988  0.0718  0.1624  0.0568
  793OCT     C1 1585  13.032   3.287   9.398 -0.0756 -0.0613 -0.0538
  793OCT     C2 1586  13.439   3.219   9.539 -0.2966 -0.1233 -0.0138
  794OCT     C1 1587  15.679   2.773   6.378  0.2483 -0.0882  0.0848
  794OCT     C2 1588  15.748   2.796   6.894 -0.1127  0.1650  0.0165
  795OCT     C1 1589  13.742  16.694   4.290  0.4186 -0.1970  0.1882
  795OCT     C2 1590  13.409  16.835   4.619 -0.0048  0.2967  0.4098
  796OCT     C1 1591   5.406   1.813   0.896  0.1918 -0.3324  0.1510
  796OCT     C2 1592   5.189   1.922   1.330  0.1431  0.1854  0.0565
  797OCT     C1 1593   6.414  21.100  22.435  0.2030  0.3132 -0.1221
  797OCT     C2 1594   6.577  21.527  22.307  0.0413  0.0533  0.5121
  798OCT     C1 1595   0.882  11.103   6.800 -0.0683 -0.1357  0.2072
  798OCT     C2 1596   0.846  10.848   6.406 -0.1424  0.0041  0.1306
  799OCT     C1 1597  14.993  17.145   5.585  0.2262 -0.1125 -0.1254
  799OCT     C2 1598  14.943  16.680   5.451  0.3276 -0.3366  0.0410
  800OCT     C1 1599   8.344   5.628   4.325  0.2097 -0.1964  0.2280
  800OCT     C2 1600   8.289   5.341   3.950  0.0005  0.0088  0.2017
  801OCT     C1 1601   5.790  11.615  23.515  0.0526  0.0992  0.2552
  801OCT     C2 1602   5.707  11.998  23.221  0.0663 -0.0744  0.0437
  802OCT     C1 1603  12.308  14.266  21.355  0.2903  0.0922  0.1133
  802OCT     C2 1604  12.468  14.697  21.461 -0.1253 -0.1074 -0.2475
  803OCT     C1 1605   9.695   6.944  12.726  0.0781  0.1578  0.1255
  803OCT     C2 1606   9.701   7.138  12.300 -0.0252  0.1819 -0.1204
  804OCT     C1 1607  14.583   2.631   6.305  0.3393  0.1188  0.0376
  804OCT     C2 1608  14.476   2.330   5.912 -0.0490  0.0022  0.1126
  805OCT     C1 1609   6.751   7.767  10.786 -0.1031  0.4303  0.1087
  805OCT     C2 1610   6.860   7.637  11.163 -0.0754 -0.2065 -0.0638
  806OCT     C1 1611  19.344   2.078  11.819 -0.0751 -0.2199 -0.4371
  806OCT     C2 1612  19.657   2.044  12.175 -0.1581  0.0611  0.2431
  807OCT     C1 1613  22.910   0.613   7.279  0.5399  0.2464  0.1012
  807OCT     C2 1614  22.681   0.898   7.559 -0.0011 -0.1690 -0.4164
  808OCT     C1 1615   8.784  19.482   5.308 -0.1267  0.0118 -0.2942
  808OCT     C2 1616   8.717  19.967   5.227 -0.3262  0.0853  0.0080
  809OCT     C1 1617  21.513  11.011   0.125 -0.1339 -0.1400  0.1693
  809OCT     C2 1618  21.918  10.885  23.639  0.1103 -0.0090  0.0388
  810OCT     C1 1619  11.705  13.473  13.841 -0.2494  0.3744 -0.1482
  810OCT     C2 1620  11.262  13.269  13.921  0.1430 -0.1635 -0.3067
  811OCT     C1 1621   2.370  16.907  18.422 -0.0762 -0.1923 -0.7163
  811OCT     C2 1622   2.490  16.539  18.744  0.2109 -0.0077 -0.2338
  812OCT     C1 1623   6.650  13.287  11.058 -0.2828  0.1764  0.0994
  812OCT     C2 1624   6.687  12.844  10.854 -0.0527 -0.2847 -0.2379
  813OCT     C1 1625   6.637  10.229   5.444  0.1632  0.1593 -0.3438
  813OCT     C2 1626   6.263  10.306   5.158  0.2189 -0.0187 -0.1266
  814OCT     C1 1627  16.356   8.050  18.914 -0.0573  0.1555  0.0384
  814OCT     C2 1628  16.574   8.181  18.514  0.1836  0.1746  0.2269
  815OCT     C1 1629   6.809  11.309   4.621 -0.0707 -0.1423  0.1884
  815OCT     C2 1630   7.188  11.575   4.575  0.0925 -0.0498 -0.0962
  816OCT     C1 1631  17.043  20.541   3.556  0.0998 -0.1405 -0.2493
  816OCT     C2 1632  16.569  20.554   3.413  0.1318 -0.3643  0.1800
  817OCT     C1 1633  22.598   5.048   1.617  0.1851  0.2293  0.0084
  817OCT     C2 1634  23.015   4.825   1.730 -0.1033 -0.5372 -0.1789
  818OCT     C1 1635  17.860   6.180   2.884  0.2381  0.3556 -0.0244
  818OCT     C2 1636  17.977   6.130   2.376 -0.1949 -0.3022 -0.1357
  819OCT     C1 1637  18.583   7.920  20.664 -0.4105 -0.0722  0.0487
  819OCT     C2 1638  18.797   8.172  20.957  0.1054  0.0919  0.1643
  820OCT     C1 1639  11.900   5.278  12.686 -0.0778 -0.4781  0.1034
  820OCT     C2 1640  12.264   5.439  12.460  0.1064  0.1254  0.4457
  821OCT     C1 1641   4.408   2.156  20.813 -0.1488  0.1337  0.0788
  821OCT     C2 1642   4.496   1.801  20.524 -0.0381 -0.0723  0.2129
  822OCT     C1 1643  10.930  23.474   5.413  0.1315  0.0690  0.4019
  822OCT     C2 1644  11.258  23.530   5.773  0.1646  0.0945  0.1096
  823OCT     C1 1645  21.635  16.130  12.531 -0.2315 -0.1182 -0.2284
  823OCT     C2 1646  21.183  16.118  12.529 -0.1254  0.3378  0.1319
  824OCT     C1 1647   1.492  13.410  14.180 -0.2348  0.0707 -0.0931
  824OCT     C2 1648   1.239  13.349  13.827 -0.1559 -0.1446 -0.1699
  825OCT     C1 1649  11.368  22.154   8.540 -0.1241 -0.0191 -0.0781
  825OCT     C2 1650  11.251  22.224   8.078  0.1729 -0.2146 -0.1226
  826OCT     C1 1651  11.052   9.882  13.495 -0.1386 -0.1134 -0.0257
  826OCT     C2 1652  10.795   9.543  13.381 -0.2315  0.1866  0.1567
  827OCT     C1 1653  19.615  19.380   0.656 -0.0583 -0.1009  0.1268
  827OCT     C2 1654  19.855  19.516   0.269 -0.1825 -0.1626 -0.0036
  828OCT     C1 1655  10.964  10.195  11.367 -0.0268  0.1280  0.1547
  828OCT     C2 1656  10.636   9.937  11.562 -0.3695 -0.0745  0.1465
  829OCT     C1 1657  13.519  13.027  17.814  0.0479  0.0611 -0.4473
  829OCT     C2 1658  13.949  12.894  17.864  0.0763 -0.1745 -0.2095
  830OCT     C1 1659   3.530  12.017   1.562 -0.0545  0.0712 -0.0579
  830OCT     C2 1660   3.243  11.842   1.807 -0.2652  0.1198  0.1348
  831OCT     C1 1661  18.290   2.858  16.389  0.1323 -0.0298 -0.2685
  831OCT     C2 1662  18.537   2.514  16.200 -0.1629  0.0484 -0.1514
  832OCT     C1 1663  19.757   5.264  14.882 -0.1203 -0.1804  0.3047
  832OCT     C2 1664  20.263   5.296  14.790 -0.0221  0.2670 -0.2850
  833OCT     C1 1665  14.988  10.971  17.867 -0.0728  0.1591  0.1832
  833OCT     C2 1666  15.209  11.294  17.698  0.1509  0.0179  0.0209
  834OCT     C1 1667   6.499  16.468  19.388  0.0479 -0.2570 -0.0557
  834OCT     C2 1668   6.581  16.287  19.804 -0.1383 -0.1846 -0.0334
  835OCT     C1 1669  10.828   6.671  16.301 -0.0596  0.1418  0.1525
  835OCT     C2 1670  11.282   6.784  16.240 -0.2199 -0.0236  0.1687
  836OCT     C1 1671  23.589  14.456   2.672 -0.1883  0.0799 -0.2194
  836OCT     C2 1672  23.245  14.670   2.913 -0.0199  0.1246 -0.0961
  837OCT     C1 1673  15.327   3.116   2.896  0.0362 -0.3038 -0.0422
  837OCT     C2 1674  15.510   2.717   2.716  0.2497 -0.0158 -0.1521
  838OCT     C1 1675  13.846  12.534  20.064  0.1480 -0.0453  0.2875
  838OCT     C2 1676  13.483  12.321  20.300 -0.0910  0.1864 -0.1226
  839OCT     C1 1677  19.080   2.597  10.103  0.2902  0.0168  0.1272
  839OCT     C2 1678  18.856   2.547  10.524 -0.0440 -0.6168  0.0649
  840OCT     C1 1679   1.498   1.899   8.522 -0.2024  0.0476  0.3937
  840OCT     C2 1680   1.125   2.074   8.286  0.0831 -0.3036  0.1104
  841OCT     C1 1681   8.608  23.520   9.045 -0.1396  0.1016  0.1944
  841OCT     C2 1682   8.906  23.395   9.433  0.1311  0.1627 -0.0864
  842OCT     C1 1683   2.946   5.039  17.838 -0.0377  0.1169  0.0077
  842OCT     C2 1684   3.202   5.458  17.816  0.2304  0.3066  0.0375
  843OCT     C1 1685  12.023   2.001  12.381 -0.0082 -0.3787 -0.0068
  843OCT     C2 1686  11.682   1.833  12.633 -0.0585 -0.1130 -0.1519
  844OCT     C1 1687  20.002  18.631   5.002  0.2519 -0.0401 -0.0291
  844OCT     C2 1688  20.046  19.106   5.135 -0.1257  0.2623 -0.3044
  845OCT     C1 1689  10.601  13.754   6.381 -0.0150  0.2340  0.1345
  845OCT     C2 1690  10.574  13.875   6.795 -0.0098 -0.0133 -0.3558
  846OCT     C1 1691  11.953   9.761  13.590  0.2752 -0.1081  0.2000
  846OCT     C2 1692  12.212   9.443  13.362 -0.0129 -0.0346 -0.1199
  847OCT     C1 1693   5.294   2.430   2.875 -0.3532  0.2564 -0.0194
  847OCT     C2 1694   5.482   2.715   3.180 -0.0351 -0.0329 -0.0620
  848OCT     C1 1695   4.489  13.199  12.629  0.1469 -0.1644  0.2316
  848OCT     C2 1696   4.555  12.742  12.483 -0.3295  0.0699 -0.1170
  849OCT     C1 1697   2.982   7.365   7.601  0.5045  0.0599  0.1493
  849OCT     C2 1698   3.008   7.325   8.081 -0.0240 -0.0315 -0.3362
  850OCT     C1 1699   0.194  12.838   3.499  0.0146  0.0010  0.5437
  850OCT     C2 1700   0.064  12.401   3.386  0.1596 -0.1233 -0.2543
  851OCT     C1 1701  17.225  20.051  12.580 -0.3411  0.2098  0.0689
  851OCT     C2 1702  16.928  20.366  12.514  0.0936  0.2594  0.1441
  852OCT     C1 1703  10.029  22.515   3.789  0.0513  0.2658 -0.2472
  852OCT     C2 1704   9.808  22.630   4.225  0.1052  0.0034 -0.2815
  853OCT     C1 1705  20.818  15.419   8.359  0.0565 -0.2888  0.2224
  853OCT     C2 1706  20.361  15.315   8.347  0.1263 -0.0455  0.0438
  854OCT     C1 1707   5.341   0.445   1.813 -0.0046  0.0078  0.0027
  854OCT     C2 1708   4.990   0.267   2.096 -0.4485 -0.1888  0.4185
  855OCT     C1 1709  12.288   8.770  16.517  0.2281 -0.0345 -0.1107
  855OCT     C2 1710  12.428   8.383  16.707 -0.0254 -0.4080 -0.3334
  856OCT     C1 1711  15.909  12.157   7.107 -0.1957 -0.2096  0.1744
  856OCT     C2 1712  15.700  12.106   6.676 -0.1060  0.3822 -0.2543
  857OCT     C1 1713  10.531  17.135   0.447  0.0703 -0.0871 -0.3360
  857OCT     C2 1714  10.939  17.177   0.205  0.1285  0.1844  0.0451
  858OCT     C1 1715   1.665   8.359  12.851  0.0341  0.2032 -0.1722
  858OCT     C2 1716   1.343   8.381  12.559  0.0723 -0.4662  0.4485
  859OCT     C1 1717  21.830  20.564  11.381 -0.1321  0.1505  0.0936
  859OCT     C2 1718  21.983  20.165  11.576  0.1023 -0.0761 -0.2997
  860OCT     C1 1719  15.997   6.121   8.373  0.0542 -0.1343 -0.1373
  860OCT     C2 1720  16.269   5.774   8.343  0.0976 -0.2050  0.3717
  861OCT     C1 1721  13.627   8.093   3.004 -0.2683  0.3031 -0.2641
  861OCT     C2 1722  14.048   8.285   3.207  0.1790  0.0563 -0.0280
  862OCT     C1 1723  21.986  18.794   2.008 -0.0951 -0.2202 -0.2424
  862OCT     C2 1724  21.697  18.473   1.838  0.0200  0.0391  0.0239
  863OCT     C1 1725  11.232   7.331  15.004 -0.3283 -0.0668  0.1464
  863OCT     C2 1726  11.292   7.561  15.421  0.1097  0.1091  0.1224
  864OCT     C1 1727   3.730   9.902   1.803  0.0098  0.3591 -0.3337
  864OCT     C2 1728   4.152   9.705   1.836  0.1018  0.0946 -0.1310
  865OCT     C1 1729   1.278  21.523  19.112 -0.0054  0.1941 -0.1998
  865OCT     C2 1730   1.081  21.942  18.910 -0.2871 -0.1832  0.0861
  866OCT     C1 1731   8.318  13.153  19.641  0.3452 -0.2315  0.0631
  866OCT     C2 1732   8.391  12.825  19.262 -0.3618 -0.0174 -0.1925
  867OCT     C1 1733   6.516   0.173  20.862 -0.0192 -0.1526 -0.1151
  867OCT     C2 1734   6.540   0.602  20.999 -0.0188 -0.1290  0.1578
  868OCT     C1 1735   9.645  17.278  12.770 -0.1518 -0.2006  0.0741
  868OCT     C2 1736   9.527  17.666  12.544  0.3152  0.2502 -0.2079
  869OCT     C1 1737   3.232   6.451  22.434  0.1993 -0.0640  0.0431
  869OCT     C2 1738   3.173   6.182  22.052  0.4197  0.0754  0.0385
  870OCT     C1 1739  23.678   8.178  10.130 -0.2755 -0.2773 -0.2399
  870OCT     C2 1740   0.209   8.361  10.415 -0.0226 -0.1969 -0.4500
  871OCT     C1 1741  13.845  18.808  10.063  0.2033 -0.0137 -0.0936
  871OCT     C2 1742  13.803  18.391   9.845  0.0848  0.1088  0.3058
  872OCT     C1 1743  12.788   8.235   6.434  0.2504 -0.1675  0.4646
  872OCT     C2 1744  12.956   8.151   6.055 -0.2504  0.1416 -0.3831
  873OCT     C1 1745   1.332  19.549  23.034  0.2048 -0.0720 -0.2492
  873OCT     C2 1746   1.433  19.988  23.010  0.2449  0.1163 -0.1399
  874OCT     C1 1747  21.682  17.482  15.879  0.0109 -0.2239 -0.0277
  874OCT     C2 1748  22.057  17.718  15.734  0.0022  0.4554 -0.2633
  875OCT     C1 1749   3.108  23.050   2.252  0.1106 -0.1267 -0.2573
  875OCT     C2 1750   2.634  23.128   2.289 -0.1240  0.0381 -0.1137
  876OCT     C1 1751  15.838   2.724   4.874  0.0717 -0.0353  0.2466
  876OCT     C2 1752  16.153   2.522   5.150  0.0146 -0.0972 -0.4149
  877OCT     C1 1753   8.354  13.073  15.636  0.0907 -0.0000  0.0904
  877OCT     C2 1754   8.263  12.822  16.018 -0.3234 -0.0343  0.3315
  878OCT     C1 1755   9.427  20.355   6.934  0.1013 -0.3364 -0.1007
  878OCT     C2 1756   9.354  20.070   7.270 -0.0583  0.0804 -0.1078
  879OCT     C1 1757   4.271  18.634  15.550 -0.3564 -0.0184 -0.2562
  879OCT     C2 1758   4.656  18.358  15.351  0.0454  0.4810  0.5274
  880OCT     C1 1759  21.733   9.656  16.645  0.0340  0.1863  0.1195
  880OCT     C2 1760  21.711   9.566  17.108 -0.0489 -0.1038  0.2251
  881OCT     C1 1761  11.720   8.573  17.791  0.3001  0.2473 -0.0564
  881OCT     C2 1762  11.402   8.875  17.647  0.2592 -0.1538 -0.0767
  882OCT     C1 1763  17.409  18.042  13.286 -0.4358  0.0162 -0.3290
  882OCT     C2 1764  17.892  17.983  13.193 -0.0596 -0.1581 -0.0453
  883OCT     C1 1765   8.091  14.001   5.839 -0.2324 -0.0655 -0.0390
  883OCT     C2 1766   8.124  13.535   5.950 -0.2867  0.1102  0.0052
  884OCT     C1 1767  13.098  23.352  20.533 -0.0100  0.0972 -0.2270
  884OCT     C2 1768  13.400  23.121  20.183  0.0737 -0.1805  0.0685
  885OCT     C1 1769   3.521   6.766  19.146  0.0372 -0.3288 -0.0083
  885OCT     C2 1770   3.622   7.203  19.339  0.1456 -0.2680 -0.0630
  886OCT     C1 1771   5.848  14.881   7.822  0.3602 -0.4589 -0.1436
  886OCT     C2 1772   6.046  15.284   8.003  0.3460 -0.0026 -0.2994
  887OCT     C1 1773  13.123  15.990   3.579  0.0931  0.2510 -0.1320
  887OCT     C2 1774  13.352  16.279   3.278 -0.2677  0.1813 -0.0878
  888OCT     C1 1775   1.409   6.430   3.708 -0.1969 -0.1467  0.0520
  888OCT     C2 1776   1.376   6.059   3.445  0.2795 -0.1159 -0.0811
  889OCT     C1 1777   8.592  23.500   4.313  0.1068  0.1019  0.1277
  889OCT     C2 1778   9.019  23.558   4.317 -0.2935 -0.2959  0.2101
  890OCT     C1 1779  21.032  19.551   4.361  0.1320 -0.0271 -0.0360
  890OCT     C2 1780  20.752  19.217   4.433  0.0023 -0.0336 -0.1851
  891OCT     C1 1781  16.044   3.480  16.973  0.3530  0.1107  0.1498
  891OCT     C2 1782  16.460   3.397  17.099 -0.2483 -0.0238  0.0495
  892OCT     C1 1783   2.510  11.547  13.293 -0.1903  0.1431 -0.1236
  892OCT     C2 1784   2.626  11.666  12.839  0.0171 -0.1198 -0.0085
  893OCT     C1 1785  20.777   0.340  21.088  0.4130  0.1617  0.0146
  893OCT     C2 1786  20.836   0.391  21.514  0.0560  0.0910  0.0074
  894OCT     C1 1787   1.165  15.844  16.662  0.1887 -0.4019  0.0561
  894OCT     C2 1788   0.987  15.830  17.077  0.1359  0.2564 -0.3202
  895OCT     C1 1789  19.155  23.672  11.205 -0.4599 -0.0112 -0.2245
  895OCT     C2 1790  19.030  23.239  11.329  0.0028 -0.1515 -0.1379
  896OCT     C1 1791   6.786  19.624  17.126  0.0431 -0.2439  0.1431
  896OCT     C2 1792   7.064  19.641  16.710  0.2768 -0.0767  0.0281
  897OCT     C1 1793  21.892   7.068  17.871  0.1263 -0.2159 -0.1748
  897OCT     C2 1794  21.715   6.807  18.244 -0.0414 -0.2042 -0.1718
  898OCT     C1 1795  13.802   5.291  21.269  0.0642  0.1148  0.1813
  898OCT     C2 1796  14.215   5.454  21.420 -0.0315  0.0668 -0.4092
  899OCT     C1 1797  16.421   6.426   6.397  0.1987 -0.0028  0.1512
  899OCT     C2 1798  16.271   6.608   5.967 -0.0029 -0.3164  0.1602
  900OCT     C1 1799  13.135   0.850   5.214  0.2107  0.0756 -0.1839
  900OCT     C2 1800  13.218   1.228   4.996 -0.0926 -0.4106  0.1726
  901OCT     C1 1801  17.042  21.636   6.128 -0.0909  0.0828 -0.1827
  901OCT     C2 1802  17.282  21.278   6.142  0.0998 -0.2016 -0.2077
  902OCT     C1 1803  16.274  18.138  23.279  0.0043 -0.1095  0.2560
  902OCT     C2 1804  15.829  18.255  23.260  0.0475 -0.0586 -0.0539
  903OCT     C1 1805  11.146  16.588  13.262  0.0308  0.3679  0.2559
  903OCT     C2 1806  11.200  16.681  12.834 -0.1769  0.0607  0.3252
  904OCT     C1 1807   5.781  11.368  21.382 -0.0996  0.0193 -0.2216
  904OCT     C2 1808   6.141  11.331  21.638 -0.1469 -0.1535  0.3407
  905OCT     C1 1809  21.201  21.395   0.631 -0.0025 -0.0731 -0.0825
  905OCT     C2 1810  21.367  21.107   0.285 -0.0767  0.1826  0.0647
  906OCT     C1 1811  10.049  20.775   3.273  0.1177 -0.0765 -0.0667
  906OCT     C2 1812   9.655  20.877   3.047  0.1224 -0.1414  0.0267
  907OCT     C1 1813  14.495   2.847  17.172 -0.0961 -0.2320 -0.2008
  907OCT     C2 1814  14.106   3.049  17.295 -0.0968 -0.0541  0.4194
  908OCT     C1 1815   9.229  12.783  16.451  0.0260 -0.0651  0.3254
  908OCT     C2 1816   8.969  12.926  16.805  0.1593 -0.6297 -0.3153
  909OCT     C1 1817   5.646  12.747   0.974 -0.0416 -0.1182  0.2335
  909OCT     C2 1818   5.528  13.179   0.744 -0.1788  0.1476 -0.1975
  910OCT     C1 1819   9.326   3.572   4.372  0.2063  0.1587  0.0116
  910OCT     C2 1820   9.146   3.957   4.498 -0.0506 -0.2300  0.1150
  911OCT     C1 1821  23.729  17.443   4.815  0.1917  0.3758 -0.0556
  911OCT     C2 1822  23.418  17.400   4.493 -0.1832 -0.1655 -0.2725
  912OCT     C1 1823   0.432   2.617   0.883 -0.1839 -0.2984 -0.2495
  912OCT     C2 1824   0.545   2.288   0.589 -0.0031  0.0645 -0.1673
  913OCT     C1 1825   3.051  18.451  10.949  0.2820  0.2642 -0.2670
  913OCT     C2 1826   2.804  18.733  11.132  0.1332 -0.1723 -0.0121
  914OCT     C1 1827  17.175  14.976  10.054 -0.3453 -0.2205  0.3264
  914OCT     C2 1828  17.187  14.592   9.821  0.1026 -0.2026  0.0035
  915OCT     C1 1829  18.193  22.601  11.740  0.1527 -0.2172  0.0526
  915OCT     C2 1830  17.944  22.828  12.106 -0.2956 -0.3875  0.1255
  916OCT     C1 1831   9.687  21.157  16.576  0.3338  0.0062  0.2813
  916OCT     C2 1832   9.380  21.182  16.165 -0.1953  0.4020 -0.1766
  917OCT     C1 1833   3.777  16.883   9.330  0.1768  0.1329 -0.1418
  917OCT     C2 1834   3.405  16.985   9.115 -0.2792 -0.0324  0.1371
  918OCT     C1 1835   1.206   3.704   2.684 -0.1421  0.0457  0.4061
  918OCT     C2 1836   1.230   3.827   2.218 -0.1401  0.2681 -0.0033
  919OCT     C1 1837   2.011  19.367   7.060 -0.1819  0.0038  0.1071
  919OCT     C2 1838   1.731  19.656   6.730 -0.5858 -0.0712  0.2717
  920OCT     C1 1839  19.065  13.577  12.444  0.0435  0.0375 -0.1906
  920OCT     C2 1840  19.392  13.499  12.798  0.3316 -0.2910  0.0593
  921OCT     C1 1841  19.683  13.550  19.291  0.0726  0.0617  0.0713
  921OCT     C2 1842  19.447  13.301  19.654 -0.3541  0.1318 -0.1753
  922OCT     C1 1843   5.834  12.821  13.335 -0.0028  0.1450  0.1568
  922OCT     C2 1844   6.109  12.510  13.202 -0.1672  0.2147 -0.2146
  923OCT     C1 1845   2.240   3.405   5.286 -0.0128  0.1667  0.0199
  923OCT     C2 1846   2.307   3.590   4.848 -0.0999 -0.2345 -0.2150
  924OCT     C1 1847   1.501  10.749   8.543  0.0416 -0.6334 -0.3714
  924OCT     C2 1848   1.743  10.967   8.209 -0.0128  0.2893 -0.2410
  925OCT     C1 1849  15.323   4.126  14.910 -0.0261 -0.1191  0.1505
  925OCT     C2 1850  15.298   3.765  15.178 -0.0450  0.1343  0.1123
  926OCT     C1 1851   9.723   5.232  15.397  0.1528 -0.3156  0.4928
  926OCT     C2 1852   9.632   5.719  15.321  0.0474  0.0508 -0.1307
  927OCT     C1 1853  19.738   3.741   2.018 -0.0697 -0.3310  0.0865
  927OCT     C2 1854  20.157   3.574   2.120 -0.0003 -0.1141  0.2403
  928OCT     C1 1855   4.909   7.756  19.888 -0.1135  0.0358  0.0857
  928OCT     C2 1856   4.927   7.437  20.211  0.0728 -0.0061 -0.0083
  929OCT     C1 1857   5.573   1.585   1.429  0.0499  0.1130  0.1272
  929OCT     C2 1858   5.835   1.848   1.208 -0.1886  0.0841 -0.2280
  930OCT     C1 1859  10.987   9.667   6.808  0.2041 -0.1296  0.1181
  930OCT     C2 1860  11.296   9.420   6.588  0.0995  0.1883  0.0692
  931OCT     C1 1861   6.125   1.021  23.105 -0.1024  0.0714  0.0375
  931OCT     C2 1862   6.592   1.006  23.012 -0.1122 -0.1506 -0.1203
  932OCT     C1 1863   9.692  12.878   8.281 -0.1054 -0.0482  0.0573
  932OCT     C2 1864   9.284  12.948   8.423 -0.0123  0.2953 -0.1194
  933OCT     C1 1865   2.701   4.719  17.124  0.0531  0.2111  0.3066
  933OCT     C2 1866   2.293   4.897  17.000  0.0504  0.3632 -0.0298
  934OCT     C1 1867  21.041  20.048   4.538  0.0979 -0.1432 -0.1330
  934OCT     C2 1868  20.633  20.247   4.545  0.1283 -0.0943 -0.2309
  935OCT     C1 1869  14.362  19.955  16.810 -0.0650  0.5582 -0.1828
  935OCT     C2 1870  13.903  19.897  16.690 -0.1528  0.3216 -0.4560
  936OCT     C1 1871  22.745  12.097  18.612 -0.0768 -0.1273 -0.0863
  936OCT     C2 1872  23.140  12.180  18.409 -0.0546  0.1250 -0.3852
  937OCT     C1 1873   9.077  23.301   8.879  0.1971  0.2576 -0.0341
  937OCT     C2 1874   9.338  23.404   8.495 -0.2775  0.2997  0.3430
  938OCT     C1 1875  21.276  11.681   5.864 -0.3930 -0.2175 -0.0763
  938OCT     C2 1876  21.517  11.662   6.264  0.0035 -0.0028 -0.1816
  939OCT     C1 1877   5.095   2.949  14.766  0.2318 -0.1998 -0.2393
  939OCT     C2 1878   5.061   2.785  14.348 -0.3604 -0.3735  0.0570
  940OCT     C1 1879   0.872  22.560   4.350  0.2933 -0.0856  0.4857
  940OCT     C2 1880   0.652  22.279   4.742  0.2068  0.1721 -0.2904
  941OCT     C1 1881  11.911   1.301  10.692  0.4494 -0.1140  0.1303
  941OCT     C2 1882  12.257   1.510  10.888  0.1410  0.0278 -0.0778
  942OCT     C1 1883   0.301   5.031   6.388 -0.2123 -0.1968 -0.0194
  942OCT     C2 1884  23.626   4.903   6.221  0.0545  0.2482  0.1261
  943OCT     C1 1885   7.751  14.319  23.609 -0.0597 -0.3496  0.0723
  943OCT     C2 1886   7.458  14.585   0.145  0.2121 -0.3757  0.1823
  944OCT     C1 1887   8.131   0.437   0.133 -0.1554 -0.0294  0.0292
  944OCT     C2 1888   7.787   0.201   0.356 -0.1367 -0.0496 -0.1512
  945OCT     C1 1889  18.385  19.792  23.484 -0.2634  0.3903 -0.1686
  945OCT     C2 1890  18.367  20.194  23.302  0.0773 -0.1002 -0.0454
  946OCT     C1 1891   5.524   1.225   4.781 -0.1055 -0.0499  0.1409
  946OCT     C2 1892   5.453   1.352   5.220 -0.1091  0.3860  0.0910
  947OCT     C1 1893  16.703  21.868   0.597  0.1400 -0.0450  0.2638
  947OCT     C2 1894  16.972  22.216   0.606 -0.1964 -0.0639  0.0022
  948OCT     C1 1895  13.740  11.480  13.297 -0.3985  0.0889 -0.2458
  948OCT     C2 1896  13.579  11.533  12.837  0.0913  0.2091 -0.2608
  949OCT     C1 1897  14.665   1.471  22.931  0.0739  0.0833  0.1699
  949OCT     C2 1898  14.923   1.392  23.348 -0.0672 -0.2970  0.1187
  950OCT     C1 1899  21.523  15.674   6.098  0.0171  0.2044 -0.1259
  950OCT     C2 1900  21.561  15.334   5.792  0.0981 -0.0281  0.1253
  951OCT     C1 1901   0.885  11.123   7.730 -0.0522  0.1389 -0.0054
  951OCT     C2 1902   0.444  11.161   7.661  0.0696 -0.2695  0.4186
  952OCT     C1 1903   2.501  19.818   6.239 -0.2192 -0.5794 -0.0531
  952OCT     C2 1904   2.236  19.633   5.944 -0.2961  0.3238  0.4031
  953OCT     C1 1905   6.875   5.704  23.402  0.0445  0.0608  0.0527
  953OCT     C2 1906   6.924   5.561   0.081  0.0885 -0.2010  0.0799
  954OCT     C1 1907  20.673  21.199   8.956  0.1879  0.5982  0.0038
  954OCT     C2 1908  20.522  21.283   8.546  0.1097 -0.0236  0.1117
  955OCT     C1 1909  20.304   8.581   5.027  0.3906  0.1588  0.0383
  955OCT     C2 1910  20.078   8.685   4.665  0.0026  0.2334  0.3432
  956OCT     C1 1911  18.065   1.284   3.007 -0.1240 -0.0974  0.2552
  956OCT     C2 1912  17.966   1.476   3.376  0.3926  0.0619 -0.0831
  957OCT     C1 1913  10.373  14.131   7.764  0.1121 -0.3774  0.1026
  957OCT     C2 1914  10.605  13.781   7.919  0.1204 -0.0073 -0.0906
  958OCT     C1 1915  22.385   6.183   0.447 -0.1696  0.0200 -0.1198
  958OCT     C2 1916  22.655   5.835   0.339 -0.0502  0.1890  0.2073
  959OCT     C1 1917   3.076   7.087  22.266 -0.5516  0.0203 -0.1165
  959OCT     C2 1918   2.848   6.806  22.556 -0.0034  0.2384  0.2608
  960OCT     C1 1919   8.211  10.381   1.475  0.2863  0.0215 -0.0794
  960OCT     C2 1920   8.003  10.733   1.243 -0.1336 -0.1044 -0.0596
  961OCT     C1 1921   7.475  16.509  17.586 -0.2309  0.1379 -0.2210
  961OCT     C2 1922   7.246  16.916  17.452  0.2514  0.1399 -0.1967
  962OCT     C1 1923  20.399  17.935  10.950 -0.0878 -0.2207  0.2217
  962OCT     C2 1924  20.848  18.096  11.019  0.1848 -0.0170  0.3597
  963OCT     C1 1925  11.352  10.707   1.432  0.1502 -0.2401  0.0219
  963OCT     C2 1926  11.671  11.007   1.219 -0.0641 -0.0194  0.2348
  964OCT     C1 1927  18.652  13.052   0.189  0.2009  0.1569  0.0485
  964OCT     C2 1928  18.311  12.764   0.203 -0.2168  0.1244  0.4744
  965OCT     C1 1929   0.560  22.238  10.021  0.5645 -0.0321 -0.2014
  965OCT     C2 1930   0.604  22.479   9.659  0.0087 -0.1386  0.1192
  966OCT     C1 1931   1.243   1.885   0.253  0.2544 -0.0316  0.0964
  966OCT     C2 1932   1.231   1.807  23.500  0.0656 -0.3058  0.0909
  967OCT     C1 1933   7.030  20.788   3.791 -0.0190 -0.0569  0.4069
  967OCT     C2 1934   7.463  20.958   3.870  0.3873  0.1953 -0.1339
  968OCT     C1 1935   6.845   5.268  19.609  0.3076 -0.2734 -0.0231
  968OCT     C2 1936   6.955   5.238  20.072 -0.2214  0.2186 -0.3426
  969OCT     C1 1937   2.930  17.838   9.235 -0.0331  0.1554  0.0949
  969OCT     C2 1938   2.567  18.137   9.237 -0.0094 -0.2189  0.2280
  970OCT     C1 1939  13.545   7.429  19.234  0.1759 -0.3883  0.1024
  970OCT     C2 1940  13.887   7.339  19.502  0.1830 -0.2253  0.0315
  971OCT     C1 1941  21.807   1.905   1.777  0.1912  0.0503  0.1393
  971OCT     C2 1942  21.564   2.359   1.772 -0.0170 -0.1456 -0.1136
  972OCT     C1 1943   8.772   5.255  17.688 -0.2374  0.2176  0.2177
  972OCT     C2 1944   8.350   5.101  17.514 -0.0788  0.3745  0.3039
  973OCT     C1 1945  15.395  11.503  21.433  0.2016  0.1027 -0.0317
  973OCT     C2 1946  15.578  11.917  21.378  0.1394  0.3388  0.1649
  974OCT     C1 1947   0.700  19.932  22.361 -0.1296 -0.0882 -0.0696
  974OCT     C2 1948   0.962  20.101  22.704 -0.3751 -0.0106 -0.3922
  975OCT     C1 1949  23.242   7.177   3.922  0.2388 -0.1652 -0.0143
  975OCT     C2 1950  23.561   7.207   4.229 -0.2235 -0.1522  0.3794
  976OCT     C1 1951   3.563  11.376  22.401 -0.1730  0.0191  0.0650
  976OCT     C2 1952   3.504  11.409  22.854 -0.1183 -0.1384 -0.3733
  977OCT     C1 1953  17.465  15.175   0.230 -0.1555  0.1539 -0.1265
  977OCT     C2 1954  17.860  15.186   0.457 -0.2310 -0.2101 -0.0418
  978OCT     C1 1955  11.252  12.625  22.199 -0.1741 -0.3547 -0.0166
  978OCT     C2 1956  11.092  12.159  22.100  0.1068 -0.1252  0.3815
  979OCT     C1 1957  19.799   3.089   6.536 -0.1308  0.1204 -0.0016
  979OCT     C2 1958  20.062   3.116   6.189  0.0420 -0.4054  0.0722
  980OCT     C1 1959  20.553  13.443   9.938  0.2205  0.0639  0.2202
  980OCT     C2 1960  20.995  13.597   9.923  0.0790  0.0430  0.0465
  981OCT     C1 1961  20.362   2.573  15.705 -0.0690  0.2375 -0.1274
  981OCT     C2 1962  20.633   2.367  15.392 -0.1122  0.1549  0.1727
  982OCT     C1 1963   4.031  21.393  12.604  0.0288  0.2500  0.1092
  982OCT     C2 1964   4.284  21.656  12.844  0.2381  0.3612 -0.0440
  983OCT     C1 1965  11.323  10.565  12.190 -0.2663  0.2603  0.0773
  983OCT     C2 1966  11.458  10.585  11.716 -0.0177 -0.3476  0.0076
  984OCT     C1 1967  14.815  16.825   0.345  0.0798 -0.3433  0.1553
  984OCT     C2 1968  14.958  16.736  23.654 -0.2482 -0.0313  0.0267
  985OCT     C1 1969   5.150   2.150   5.720 -0.2203  0.0165  0.4507
  985OCT     C2 1970   4.998   2.579   5.869 -0.0027 -0.0308 -0.3503
  986OCT     C1 1971  19.641   1.267  18.892  0.1033  0.0690 -0.3077
  986OCT     C2 1972  19.847   1.268  19.355 -0.0175  0.0724  0.3535
  987OCT     C1 1973  20.771  22.721   9.323  0.0841  0.6154 -0.3264
  987OCT     C2 1974  20.710  23.092   9.544  0.2051 -0.1051  0.1460
  988OCT     C1 1975   9.788  18.801  20.944  0.2366 -0.2120  0.1861
  988OCT     C2 1976   9.405  18.799  20.690 -0.1130 -0.2682  0.0429
  989OCT     C1 1977   3.833  21.207  19.658 -0.0098 -0.0062  0.2860
  989OCT     C2 1978   3.743  20.721  19.665 -0.3009 -0.0982  0.1993
  990OCT     C1 1979   6.527   9.494   6.217  0.2229 -0.0216  0.2639
  990OCT     C2 1980   6.919   9.801   6.278 -0.1336  0.0285 -0.4315
  991OCT     C1 1981  14.757   3.715  20.969 -0.0464  0.2925  0.1582
  991OCT     C2 1982  15.007   3.328  20.862 -0.0188  0.1389  0.1532
  992OCT     C1 1983  16.730  17.716  19.988 -0.0915 -0.1117 -0.0531
  992OCT     C2 1984  16.916  17.340  20.246  0.0320 -0.0853 -0.1958
  993OCT     C1 1985  20.864   9.677  14.095  0.1265 -0.0977 -0.1586
  993OCT     C2 1986  21.192   9.975  14.301  0.0019  0.2743  0.0247
  994OCT     C1 1987  20.636   2.929  14.212  0.0256  0.0348  0.0891
  994OCT     C2 1988  20.607   2.478  14.102 -0.1298  0.1465 -0.4355
  995OCT     C1 1989   7.646   3.915  14.968 -0.0797  0.1017  0.3410
  995OCT     C2 1990   7.936   3.509  14.977 -0.0855  0.1465 -0.0820
  996OCT     C1 1991  15.930   6.103  20.582 -0.1972  0.1816 -0.0307
  996OCT     C2 1992  16.072   6.183  20.173 -0.1565 -0.3049  0.3950
  997OCT     C1 1993  16.456  12.827   7.829  0.1335 -0.2411 -0.0995
  997OCT     C2 1994  16.316  13.117   8.119 -0.1906  0.2980  0.3697
  998OCT     C1 1995  22.109   9.499  16.000 -0.0215  0.1068 -0.2393
  998OCT     C2 1996  22.028   9.934  15.829 -0.2744  0.0280  0.2371
  999OCT     C1 1997   4.377  21.046   4.593 -0.1825  0.2028  0.3647
  999OCT     C2 1998   3.946  21.023   4.777 -0.2470  0.1015 -0.1421
 1000OCT     C1 1999  15.537  12.137  11.858 -0.2497 -0.0450 -0.1815
 1000OCT     C2 2000  15.618  12.561  12.107  0.0996  0.5975 -0.0374
 1001OCT     C1 2001  22.735   8.937  23.011  0.0151 -0.0307 -0.2609
 1001OCT     C2 2002  22.784   9.148  22.566  0.4705 -0.3683 -0.2640
 1002OCT     C1 2003   4.936   8.558   3.000 -0.2948  0.1891  0.3032
 1002OCT     C2 2004   4.633   8.394   3.313 -0.1374 -0.0586  0.1282
 1003OCT     C1 2005   1.233  12.129  19.432  0.2068  0.1388  0.1981
 1003OCT     C2 2006   1.417  11.778  19.197 -0.3537  0.0446 -0.1222
 1004OCT     C1 2007   7.961  15.887  11.855 -0.1515 -0.2213 -0.2607
 1004OCT     C2 2008   7.513  16.149  11.824 -0.3097  0.1407  0.0048
 1005OCT     C1 2009  17.260  12.284  16.398  0.2485  0.0964 -0.3148
 1005OCT     C2 2010  17.057  12.609  16.599 -0.0587  0.4104 -0.0090
 1006OCT     C1 2011  12.523  15.026  12.491 -0.1538 -0.0746 -0.1112
 1006OCT     C2 2012  12.935  14.952  12.327 -0.1611  0.0453 -0.2406
 1007OCT     C1 2013  11.306  19.443   3.436 -0.2577 -0.1078 -0.0384
 1007OCT     C2 2014  11.080  19.052   3.374 -0.2657 -0.0647  0.0945
 1008OCT     C1 2015   8.125  21.027   1.000  0.2015 -0.3127  0.5224
 1008OCT     C2 2016   8.408  20.692   1.087  0.4950  0.1367 -0.1285
 1009OCT     C1 2017   3.698  15.263   1.078  0.0410  0.0051  0.1804
 1009OCT     C2 2018   3.338  14.995   1.281  0.0624 -0.1551 -0.0367
 1010OCT     C1 2019   8.283   3.150  18.083 -0.1108  0.0522 -0.1275
 1010OCT     C2 2020   8.352   2.994  18.537 -0.3224  0.1884 -0.1795
 1011OCT     C1 2021  11.750  10.728   7.060 -0.0134  0.2037  0.3403
 1011OCT     C2 2022  12.041  10.744   6.749 -0.2946 -0.1703 -0.1475
 1012OCT     C1 2023   1.545  20.196   8.809  0.2008  0.3454  0.0639
 1012OCT     C2 2024   1.106  20.323   8.763 -0.2260 -0.1518 -0.2145
 1013OCT     C1 2025  13.487  13.837   6.585  0.0459  0.2267 -0.4393
 1013OCT     C2 2026  13.539  13.592   6.272 -0.1552  0.2265  0.3332
 1014OCT     C1 2027   5.661  20.393  23.347  0.0594  0.1700 -0.1287
 1014OCT     C2 2028   5.767  20.044  23.706 -0.2525 -0.0834  0.1822
 1015OCT     C1 2029  12.632  20.884  22.399  0.0294 -0.0757  0.1148
 1015OCT     C2 2030  12.396  20.527  22.161  0.2643  0.1279 -0.1715
 1016OCT     C1 2031   7.156  21.087  12.772  0.1958  0.3522 -0.0098
 1016OCT     C2 2032   6.829  20.789  12.559  0.0977  0.1728  0.1975
 1017OCT     C1 2033  21.259   5.359  18.216 -0.1747  0.1631  0.1273
 1017OCT     C2 2034  21.607   5.553  18.388  0.4030 -0.2646 -0.1893
 1018OCT     C1 2035  13.678  20.848  15.628 -0.0130  0.1200 -0.1029
 1018OCT     C2 2036  13.940  20.995  15.257  0.0385 -0.0151 -0.0938
 1019OCT     C1 2037  19.273  21.014   7.079 -0.1251  0.1167 -0.2726
 1019OCT     C2 2038  19.468  20.768   7.410  0.1559  0.1606  0.0637
 1020OCT     C1 2039   6.124  12.730   1.242 -0.4643 -0.0264  0.2671
 1020OCT     C2 2040   6.126  12.493   0.821  0.0603 -0.0835  0.1232
 1021OCT     C1 2041   1.632  12.234   5.083  0.3948  0.1140  0.1782
 1021OCT     C2 2042   1.394  12.629   5.093  0.0476  0.3402  0.0806
 1022OCT     C1 2043  14.724  17.735  10.373  0.0138 -0.1333 -0.2133
 1022OCT     C2 2044  14.515  17.288  10.373 -0.6333  0.0643 -0.1829
 1023OCT     C1 2045   1.157  17.575   5.106 -0.3945  0.2810  0.0831
 1023OCT     C2 2046   0.743  17.435   5.379 -0.1258 -0.0284 -0.3896
 1024OCT     C1 2047   8.018   3.279   0.453  0.0413  0.2052 -0.2405
 1024OCT     C2 2048   7.794   3.242   0.053  0.6328  0.0823 -0.2842
 1025OCT     C1 2049   4.386   2.542   7.824  0.0470  0.0989 -0.4535
 1025OCT     C2 2050   4.648   2.487   8.208  0.1580 -0.1781 -0.3755
 1026OCT     C1 2051  11.795  11.819  10.950 -0.2739  0.1701  0.1306
 1026OCT     C2 2052  11.598  11.506  10.737 -0.2656 -0.1085  0.2146
 1027OCT     C1 2053  16.851  14.509  14.319 -0.0385  0.1805  0.1029
 1027OCT     C2 2054  17.074  14.239  14.013  0.3067  0.2508 -0.0760
 1028OCT     C1 2055   3.214  12.354  15.820  0.2799 -0.1550 -0.3525
 1028OCT     C2 2056   3.624  12.119  15.938 -0.0314 -0.1182  0.0902
 1029OCT     C1 2057   3.877   9.526  20.409 -0.0718  0.0142  0.0589
 1029OCT     C2 2058   3.975   9.977  20.250  0.0132  0.1387  0.2958
 1030OCT     C1 2059   5.359   6.039  21.828 -0.0808 -0.1428 -0.3622
 1030OCT     C2 2060   5.242   6.138  21.328  0.1700  0.1842 -0.0314
 1031OCT     C1 2061  16.264  22.794   8.124 -0.0010  0.3102  0.0705
 1031OCT     C2 2062  16.446  23.153   7.877 -0.1526  0.3137  0.0420
 1032OCT     C1 2063  10.115  17.647  12.362 -0.1119 -0.2058  0.2204
 1032OCT     C2 2064  10.199  17.198  12.542  0.0975  0.2147 -0.0696
 1033OCT     C1 2065   1.639   4.211  22.418 -0.0404 -0.3759  0.2370
 1033OCT     C2 2066   1.922   4.104  22.787  0.1461  0.0879  0.0311
 1034OCT     C1 2067  11.681  15.509  12.040  0.0864  0.0641  0.0237
 1034OCT     C2 2068  11.533  15.786  12.360  0.0532  0.0160 -0.2533
 1035OCT     C1 2069   6.223  12.118   3.808  0.1978  0.2164 -0.3104
 1035OCT     C2 2070   5.935  12.466   3.667 -0.0139 -0.3866  0.2459
 1036OCT     C1 2071  14.891   0.447  21.655 -0.1556  0.2463 -0.1783
 1036OCT     C2 2072  14.750   0.824  21.931  0.1694  0.2213 -0.2285
 1037OCT     C1 2073  12.607  13.441  18.857 -0.0219 -0.0250  0.2149
 1037OCT     C2 2074  12.401  13.236  19.169  0.3196  0.4318 -0.0031
 1038OCT     C1 2075   8.841  10.221  13.724 -0.0745 -0.2420 -0.2460
 1038OCT     C2 2076   8.700  10.568  13.991 -0.1125  0.2204 -0.0143
 1039OCT     C1 2077   7.762   0.682  12.684  0.0758 -0.0401 -0.0491
 1039OCT     C2 2078   7.445   0.297  12.830 -0.1201 -0.1456  0.0783
 1040OCT     C1 2079  18.825  22.096  14.171  0.0123  0.1742  0.1353
 1040OCT     C2 2080  18.672  22.402  13.859 -0.2739 -0.4284  0.2090
 1041OCT     C1 2081  16.888  13.022   1.529  0.0147 -0.4290 -0.0344
 1041OCT     C2 2082  16.970  13.438   1.733 -0.1664 -0.0463  0.0131
 1042OCT     C1 2083   2.553  19.378  18.273 -0.1012 -0.0816 -0.3470
 1042OCT     C2 2084   2.895  19.325  17.986 -0.0884  0.0083 -0.0695
 1043OCT     C1 2085   0.425   9.488  12.427 -0.0610 -0.0204  0.0054
 1043OCT     C2 2086   0.207   9.083  12.415  0.1992  0.0715  0.1141
 1044OCT     C1 2087  11.980  18.130   4.154 -0.1016 -0.2130  0.2944
 1044OCT     C2 2088  12.154  18.536   4.039 -0.0874  0.0347  0.0248
 1045OCT     C1 2089   5.078   3.558   0.701  0.3779 -0.1182 -0.1377
 1045OCT     C2 2090   4.678   3.378   0.864 -0.0298 -0.3649 -0.0335
 1046OCT     C1 2091  10.099  11.046   6.309  0.0192  0.0054  0.1845
 1046OCT     C2 2092  10.130  11.137   5.876  0.0277  0.0908 -0.0523
 1047OCT     C1 2093   0.313   2.858   1.355 -0.3673  0.0393 -0.1913
 1047OCT     C2 2094   0.710   2.799   1.459 -0.2029  0.1532 -0.3662
 1048OCT     C1 2095  13.394  17.774  17.451  0.2298  0.0588 -0.0453
 1048OCT     C2 2096  13.791  17.999  17.406 -0.0698 -0.1656  0.0769
 1049OCT     C1 2097   1.596  12.012   4.021  0.2005 -0.0672 -0.1246
 1049OCT     C2 2098   1.227  11.931   4.159  0.0281  0.3374 -0.0976
 1050OCT     C1 2099  14.551  12.100  22.562  0.2054 -0.0391  0.1951
 1050OCT     C2 2100  14.983  12.188  22.599 -0.2596  0.2529  0.1945
 1051OCT     C1 2101  10.477   5.630   4.438  0.0225  0.5054  0.3153
 1051OCT     C2 2102  10.637   5.328   4.104  0.0104 -0.3262  0.2091
 1052OCT     C1 2103  23.006   5.568  16.336 -0.1259  0.0897 -0.3619
 1052OCT     C2 2104  22.902   5.209  16.703 -0.0906  0.2218 -0.2487
 1053OCT     C1 2105  18.170  17.703   6.121 -0.1665 -0.2445  0.4071
 1053OCT     C2 2106  18.079  18.029   6.431 -0.1421 -0.1279  0.0858
 1054OCT     C1 2107  17.699   9.302   2.408 -0.1414  0.3487  0.2060
 1054OCT     C2 2108  17.980   9.626   2.393 -0.0312  0.2320  0.2061
 1055OCT     C1 2109   7.174   9.274   6.944  0.2159 -0.3107  0.0416
 1055OCT     C2 2110   7.284   8.851   7.136 -0.3811  0.2748  0.0876
 1056OCT     C1 2111   0.263  10.202   8.020  0.1482 -0.0048 -0.0713
 1056OCT     C2 2112  23.643   9.990   8.165 -0.3304  0.1337 -0.4071
 1057OCT     C1 2113   4.250   4.326  12.076 -0.1849  0.1074 -0.0863
 1057OCT     C2 2114   3.958   4.388  12.496  0.1696 -0.1929  0.1137
 1058OCT     C1 2115   8.748   3.705  11.989 -0.2071  0.1866  0.2039
 1058OCT     C2 2116   8.340   3.471  11.911 -0.1817  0.4093  0.1796
 1059OCT     C1 2117  21.720   1.826  13.043  0.1912  0.0875 -0.2035
 1059OCT     C2 2118  21.606   1.365  13.064 -0.0280  0.3323 -0.0723
 1060OCT     C1 2119  15.891   5.050  20.725  0.4005 -0.1071  0.0488
 1060OCT     C2 2120  15.700   5.431  20.488 -0.1578 -0.0728 -0.2512
 1061OCT     C1 2121  14.519  13.722  15.034  0.1510 -0.1559  0.4632
 1061OCT     C2 2122  14.175  13.483  15.221 -0.1498 -0.0709  0.0168
 1062OCT     C1 2123  10.918  22.459   5.719 -0.0280  0.2169  0.0793
 1062OCT     C2 2124  11.076  22.658   5.316 -0.0348  0.1509 -0.0047
 1063OCT     C1 2125  19.221   0.406  12.928  0.2805  0.2469  0.1860
 1063OCT     C2 2126  18.781   0.419  12.676  0.0822  0.2199  0.0284
 1064OCT     C1 2127   9.566   1.901   2.217 -0.4362 -0.0347 -0.1272
 1064OCT     C2 2128   9.972   1.927   2.427 -0.1139 -0.0050  0.4119
 1065OCT     C1 2129  17.083  16.183  23.029  0.0680 -0.1131  0.2092
 1065OCT     C2 2130  17.191  16.636  23.079  0.1153  0.0300 -0.1665
 1066OCT     C1 2131   1.711  19.600  13.922  0.2247 -0.0921 -0.1631
 1066OCT     C2 2132   2.154  19.440  14.037  0.2441 -0.1879  0.1003
 1067OCT     C1 2133  20.417   7.731   0.017 -0.1291  0.1731  0.4862
 1067OCT     C2 2134  20.837   7.979   0.017 -0.1362  0.0363  0.2686
 1068OCT     C1 2135  22.335   0.508  14.417 -0.0468 -0.0312  0.1614
 1068OCT     C2 2136  22.674   0.313  14.663 -0.0346 -0.0329  0.1919
 1069OCT     C1 2137   0.347  20.333  12.509  0.2255 -0.1526 -0.1021
 1069OCT     C2 2138  23.727  20.095  12.257  0.2077 -0.0928  0.2087
 1070OCT     C1 2139   0.697  19.747  15.834 -0.3313  0.0309 -0.0802
 1070OCT     C2 2140   1.113  19.816  15.632  0.0557 -0.0694  0.0223
 1071OCT     C1 2141  19.524   3.219  18.459 -0.0947 -0.1252 -0.0052
 1071OCT     C2 2142  19.168   3.338  18.136  0.0471 -0.0926  0.4266
 1072OCT     C1 2143   1.271   7.651   2.569 -0.1194 -0.3438 -0.0962
 1072OCT     C2 2144   0.974   7.835   2.288  0.0065 -0.0129  0.0775
 1073OCT     C1 2145  13.800   9.147   0.029  0.2926 -0.2921  0.2859
 1073OCT     C2 2146  13.443   9.271   0.319  0.1332  0.1814 -0.2813
 1074OCT     C1 2147  21.999   0.505   2.817  0.0687 -0.0267  0.2043
 1074OCT     C2 2148  21.557   0.653   2.772  0.4058  0.0998 -0.1820
 1075OCT     C1 2149   4.624  21.916  10.560  0.0913 -0.1094  0.0264
 1075OCT     C2 2150   4.797  22.298  10.464  0.1565  0.4939  0.2346
 1076OCT     C1 2151  14.051   5.469  20.848 -0.5226 -0.0420 -0.0465
 1076OCT     C2 2152  14.486   5.356  20.997 -0.1328  0.1065  0.4049
 1077OCT     C1 2153   3.726  16.880   4.761  0.2060 -0.1987 -0.4918
 1077OCT     C2 2154   3.752  16.759   4.352 -0.0427 -0.1380  0.0857
 1078OCT     C1 2155   9.422   5.171  23.459 -0.1013 -0.0456 -0.4590
 1078OCT     C2 2156   9.618   4.764  23.500  0.0668 -0.3720 -0.1400
 1079OCT     C1 2157  12.516   5.596   5.886  0.1311  0.0330  0.1539
 1079OCT     C2 2158  12.397   6.035   5.769 -0.0179  0.0771  0.3373
 1080OCT     C1 2159  13.612  10.835  15.748  0.1422 -0.3149 -0.1347
 1080OCT     C2 2160  13.442  10.476  16.052  0.0764  0.0278  0.0031
 1081OCT     C1 2161   9.820  21.488   9.528  0.1218  0.3997 -0.1968
 1081OCT     C2 2162  10.174  21.214   9.598 -0.3298  0.0158  0.2889
 1082OCT     C1 2163  15.514  17.381  19.167  0.1000 -0.0050 -0.2005
 1082OCT     C2 2164  15.863  17.299  18.918 -0.0287  0.2352 -0.0090
 1083OCT     C1 2165  14.265  15.927  20.220  0.2164 -0.2115 -0.0367
 1083OCT     C2 2166  13.961  15.921  19.895  0.0788  0.0615  0.0591
 1084OCT     C1 2167  20.781  20.702   2.334 -0.1392  0.4399  0.0553
 1084OCT     C2 2168  21.181  20.908   2.419  0.3993 -0.3374 -0.2635
 1085OCT     C1 2169  16.152   3.720   0.667  0.1751 -0.0838  0.3195
 1085OCT     C2 2170  16.317   3.395   0.382 -0.1386 -0.0719 -0.0517
 1086OCT     C1 2171  11.497   7.528  18.847 -0.1826  0.2215  0.1668
 1086OCT     C2 2172  11.421   7.918  19.060  0.1132 -0.1881 -0.0105
 1087OCT     C1 2173   9.872  22.298  10.765 -0.0545  0.1296  0.0443
 1087OCT     C2 2174   9.953  22.719  10.692 -0.1325  0.0956 -0.0920
 1088OCT     C1 2175  14.914  13.633   9.950 -0.0308 -0.0403 -0.0744
 1088OCT     C2 2176  15.226  13.483   9.653 -0.0852 -0.3343 -0.2623
 1089OCT     C1 2177  13.099  13.621  17.793 -0.2373  0.1733  0.0644
 1089OCT     C2 2178  13.006  13.584  18.304  0.2085  0.0440 -0.1217
 1090OCT     C1 2179  17.019  18.539  20.894  0.1446  0.0396  0.0901
 1090OCT     C2 2180  16.628  18.240  20.847  0.1251  0.0376  0.0474
 1091OCT     C1 2181   4.289  10.593   4.123  0.1989 -0.3156 -0.2592
 1091OCT     C2 2182   4.735  10.569   4.273  0.0456  0.1182  0.3055
 1092OCT     C1 2183   6.839   7.852   1.949 -0.3030  0.1438  0.1016
 1092OCT     C2 2184   7.075   7.707   2.308 -0.3905  0.0505 -0.3078
 1093OCT     C1 2185   6.808  14.117  12.284 -0.0487 -0.0009 -0.3810
 1093OCT     C2 2186   6.975  14.502  12.418  0.2772  0.0993  0.4200
 1094OCT     C1 2187   4.855  13.166  19.938  0.2222  0.0358 -0.2626
 1094OCT     C2 2188   4.650  13.548  19.860 -0.2272  0.1382 -0.2109
 1095OCT     C1 2189   6.878   4.764  22.849 -0.1647 -0.0692  0.3395
 1095OCT     C2 2190   7.241   4.425  23.029  0.2959 -0.1864  0.0077
 1096OCT     C1 2191   3.361   2.412   4.178 -0.0862 -0.1543 -0.0307
 1096OCT     C2 2192   3.526   2.434   3.776  0.1714  0.2055 -0.2370
 1097OCT     C1 2193  22.278  15.098   8.089  0.1189 -0.1783 -0.0124
 1097OCT     C2 2194  22.564  15.070   7.756 -0.1838  0.3279 -0.0555
 1098OCT     C1 2195   8.486  21.384  16.068  0.0223 -0.0238 -0.2320
 1098OCT     C2 2196   8.754  21.665  16.376  0.0167  0.1132  0.2515
 1099OCT     C1 2197  12.709  12.912  12.722  0.0583  0.0726 -0.0758
 1099OCT     C2 2198  13.097  12.709  12.795 -0.0022  0.0971 -0.1639
 1100OCT     C1 2199  13.669  10.513  16.590  0.0332  0.1380 -0.1475
 1100OCT     C2 2200  14.039  10.222  16.695  0.0903  0.1460 -0.0268
 1101OCT     C1 2201  20.173  21.463   6.658  0.1059 -0.2690 -0.2371
 1101OCT     C2 2202  20.498  21.290   6.963 -0.0582 -0.1598 -0.0824
 1102OCT     C1 2203  13.579   2.483  16.912 -0.2986  0.3672  0.0327
 1102OCT     C2 2204  13.732   2.718  17.265  0.1587 -0.2174  0.0352
 1103OCT     C1 2205   3.144  17.718  23.450 -0.0244 -0.0167 -0.3795
 1103OCT     C2 2206   3.226  18.111  23.698 -0.1258  0.1248 -0.2250
 1104OCT     C1 2207  22.734  14.804   6.858  0.1730 -0.4714  0.2374
 1104OCT     C2 2208  23.034  14.643   6.482  0.0198 -0.0931  0.0659
 1105OCT     C1 2209   4.077   9.491   5.012 -0.0527 -0.1032 -0.0124
 1105OCT     C2 2210   4.359   9.268   5.246 -0.3792  0.3620  0.2733
 1106OCT     C1 2211  14.426   2.399   6.680 -0.2184 -0.1778 -0.1194
 1106OCT     C2 2212  14.337   2.070   6.330  0.1602 -0.0987  0.1868
 1107OCT     C1 2213  21.582   9.603   5.947 -0.0567  0.1386  0.0553
 1107OCT     C2 2214  21.799   9.237   6.125 -0.2697  0.2306 -0.3035
 1108OCT     C1 2215   4.063  13.955  22.389  0.2008  0.2968 -0.0030
 1108OCT     C2 2216   3.836  13.569  22.472 -0.0955 -0.0760  0.0153
 1109OCT     C1 2217   1.336   4.278   6.394  0.0112  0.0016  0.2406
 1109OCT     C2 2218   1.138   4.067   6.014 -0.2672  0.1488 -0.0004
 1110OCT     C1 2219   2.675  22.788   9.097  0.2519 -0.4765 -0.2210
 1110OCT     C2 2220   3.000  23.191   9.225 -0.0629  0.4018 -0.1318
 1111OCT     C1 2221  13.697   1.847  13.900 -0.0582  0.6240 -0.0417
 1111OCT     C2 2222  14.014   1.408  13.959 -0.2074 -0.4048  0.4279
 1112OCT     C1 2223  19.894  15.073  11.679 -0.3075 -0.3655  0.1979
 1112OCT     C2 2224  20.355  15.064  11.526  0.2437  0.2297  0.1203
 1113OCT     C1 2225  10.830   7.425   8.918 -0.1312 -0.2391 -0.0853
 1113OCT     C2 2226  11.076   7.816   8.783  0.2534 -0.2606  0.0448
 1114OCT     C1 2227  10.175  10.612   6.985  0.1891 -0.2600  0.0752
 1114OCT     C2 2228  10.068  10.517   6.537  0.0865 -0.2931  0.1338
 1115OCT     C1 2229  22.698  19.044   0.712  0.1040  0.0220  0.3715
 1115OCT     C2 2230  22.718  18.672   0.441 -0.0552 -0.3441  0.4647
 1116OCT     C1 2231  17.681  10.608   8.567 -0.1394 -0.0236 -0.0263
 1116OCT     C2 2232  17.746  10.982   8.203 -0.1312 -0.4088 -0.4782
 1117OCT     C1 2233  15.085   0.924   1.644  0.1878  0.1373 -0.1592
 1117OCT     C2 2234  15.330   0.995   1.232 -0.0326  0.5246 -0.0127
 1118OCT     C1 2235  22.016  16.687  19.830  0.2491 -0.2411 -0.0321
 1118OCT     C2 2236  22.419  16.436  19.748 -0.2172 -0.0106  0.0198
 1119OCT     C1 2237  14.113  14.553   0.139 -0.2614 -0.3656 -0.2027
 1119OCT     C2 2238  14.514  14.457  23.662  0.0193 -0.2912 -0.0930
 1120OCT     C1 2239   4.361  22.050  22.703  0.2048 -0.0583  0.1280
 1120OCT     C2 2240   4.670  22.129  22.374 -0.1694  0.0659  0.1818
 1121OCT     C1 2241   8.307  17.550  15.042  0.2265 -0.2003  0.0719
 1121OCT     C2 2242   8.758  17.551  15.236  0.1863 -0.3120 -0.3031
 1122OCT     C1 2243   0.245   6.858   0.135  0.0526  0.1722  0.1609
 1122OCT     C2 2244   0.054   7.006  23.496 -0.1564 -0.1274  0.2031
 1123OCT     C1 2245  17.050  15.661   9.702 -0.1418  0.0030 -0.0995
 1123OCT     C2 2246  16.868  15.431   9.347  0.1430  0.3216  0.2760
 1124OCT     C1 2247   5.203   4.250  13.023  0.2504 -0.1852 -0.0274
 1124OCT     C2 2248   5.232   4.719  13.051  0.0507  0.3595 -0.0560
 1125OCT     C1 2249   0.057  11.118  21.436 -0.1166 -0.1290  0.0331
 1125OCT     C2 2250  23.628  10.796  21.620 -0.0201  0.1963 -0.2666
 1126OCT     C1 2251  18.231  20.449  16.166 -0.2120  0.2186  0.3583
 1126OCT     C2 2252  18.223  20.097  16.411 -0.1351 -0.2797  0.0178
 1127OCT     C1 2253  22.813  16.755   3.853 -0.2899  0.1391 -0.1481
 1127OCT     C2 2254  23.214  16.918   3.658  0.2985 -0.1312 -0.1516
 1128OCT     C1 2255  20.282  13.202  13.568 -0.0773  0.1677 -0.0431
 1128OCT     C2 2256  20.316  13.603  13.297 -0.3710  0.2655 -0.1708
 1129OCT     C1 2257  11.165  13.685   4.814 -0.0521  0.1889  0.1165
 1129OCT     C2 2258  11.313  13.828   4.419  0.2079  0.5007  0.4034
 1130OCT     C1 2259   1.112  21.536   0.657 -0.4027  0.0379  0.1438
 1130OCT     C2 2260   1.285  21.908   0.460 -0.2032 -0.3181  0.2320
 1131OCT     C1 2261  10.157   6.366   8.224 -0.0847 -0.1437  0.0796
 1131OCT     C2 2262  10.165   6.716   7.962  0.2085 -0.2845 -0.0132
 1132OCT     C1 2263   0.143   0.012  14.982  0.1906 -0.3473  0.0200
 1132OCT     C2 2264   0.379  23.374  15.138 -0.1068 -0.0477 -0.1029
 1133OCT     C1 2265   4.105  16.034   3.236 -0.2809 -0.0722  0.0395
 1133OCT     C2 2266   3.969  16.442   3.277 -0.1421 -0.0336  0.0130
 1134OCT     C1 2267   1.292   0.476   4.899 -0.4272  0.0799 -0.0704
 1134OCT     C2 2268   1.376   0.620   4.503  0.0631 -0.0987  0.2412
 1135OCT     C1 2269   8.763   9.959  21.634 -0.2261  0.0878  0.5246
 1135OCT     C2 2270   8.412  10.032  21.983  0.1054  0.2215  0.1025
 1136OCT     C1 2271  16.078  22.279   7.730  0.0174 -0.2326  0.0985
 1136OCT     C2 2272  16.461  22.256   8.084 -0.2275  0.0485 -0.3284
 1137OCT     C1 2273   1.922  19.423   0.732  0.3112  0.0090  0.0502
 1137OCT     C2 2274   1.766  19.365   1.175  0.1064  0.6941 -0.0643
 1138OCT     C1 2275  10.933   6.960   6.425  0.2935 -0.1889 -0.2580
 1138OCT     C2 2276  10.500   6.752   6.338  0.4474  0.0639 -0.1088
 1139OCT     C1 2277  23.210  19.884   8.706  0.1432 -0.0212 -0.0952
 1139OCT     C2 2278  23.606  19.974   8.879 -0.1814  0.0856 -0.1715
 1140OCT     C1 2279  14.624   2.897   7.415  0.2275 -0.2430  0.1467
 1140OCT     C2 2280  15.002   2.816   7.740  0.2312  0.3841  0.0789
 1141OCT     C1 2281  12.901   4.825  13.031  0.0849 -0.2062  0.1855
 1141OCT     C2 2282  12.368   4.756  13.133 -0.3281  0.0966 -0.2135
 1142OCT     C1 2283   1.885  16.705  22.687 -0.0638  0.0730 -0.3397
 1142OCT     C2 2284   2.267  16.946  22.800  0.3130 -0.0993 -0.1410
 1143OCT     C1 2285  12.079  16.186  10.181 -0.0886  0.1568 -0.1325
 1143OCT     C2 2286  11.734  16.519  10.106 -0.0739  0.1267 -0.2151
 1144OCT     C1 2287   6.174  20.738   2.165 -0.0098  0.4910 -0.1536
 1144OCT     C2 2288   6.504  20.684   2.524 -0.0139 -0.3126  0.0401
 1145OCT     C1 2289   5.416  16.466   5.144 -0.1038 -0.1169 -0.2708
 1145OCT     C2 2290   5.333  16.594   5.536  0.1329  0.0011 -0.1354
 1146OCT     C1 2291  20.281   4.300   8.084 -0.2193 -0.0894  0.1290
 1146OCT     C2 2292  20.666   4.423   8.265 -0.2045  0.0862 -0.3199
 1147OCT     C1 2293   7.825  12.764  12.971 -0.0364  0.0671 -0.0398
 1147OCT     C2 2294   8.238  12.631  13.068  0.1015 -0.1596 -0.0407
 1148OCT     C1 2295   3.983  13.250  22.914 -0.0171 -0.1546 -0.1076
 1148OCT     C2 2296   3.588  13.189  23.134 -0.1440 -0.1320 -0.0717
 1149OCT     C1 2297  12.044  21.066   8.924  0.2450  0.3554  0.3783
 1149OCT     C2 2298  12.104  21.129   9.428 -0.0925  0.0185  0.1894
 1150OCT     C1 2299  23.224  15.139   4.362 -0.4340 -0.0241 -0.0779
 1150OCT     C2 2300  22.959  14.976   4.719 -0.3151 -0.0483  0.0393
 1151OCT     C1 2301  17.985  14.677  12.248  0.1225  0.5253  0.0072
 1151OCT     C2 2302  18.304  14.537  11.970  0.2205  0.3027 -0.0037
 1152OCT     C1 2303   2.702   7.098   5.277 -0.0233  0.4438 -0.0143
 1152OCT     C2 2304   2.710   7.225   5.757  0.0576 -0.2575 -0.1207
 1153OCT     C1 2305  18.057   9.891   9.763  0.1716 -0.3594 -0.1077
 1153OCT     C2 2306  18.104  10.363   9.878 -0.0521 -0.0041  0.4000
 1154OCT     C1 2307   8.437  16.423   9.230  0.0186  0.0773 -0.2879
 1154OCT     C2 2308   8.888  16.404   9.254  0.0107  0.1366 -0.0692
 1155OCT     C1 2309  18.624  19.976  15.598  0.0287 -0.0611  0.0275
 1155OCT     C2 2310  19.064  19.822  15.778 -0.3172 -0.2399 -0.1688
 1156OCT     C1 2311   5.486  14.330  22.835  0.0141  0.0929 -0.3811
 1156OCT     C2 2312   5.487  14.054  23.255 -0.1211  0.0133  0.0789
 1157OCT     C1 2313  11.591  14.520  12.378 -0.0286 -0.1536  0.1241
 1157OCT     C2 2314  11.482  14.262  12.738 -0.2556 -0.1574 -0.2191
 1158OCT     C1 2315  19.506   8.253  19.319  0.0142 -0.2612  0.1091
 1158OCT     C2 2316  19.495   7.830  19.173 -0.2685  0.0964  0.0126
 1159OCT     C1 2317  21.068  18.215  20.264  0.2818 -0.0575  0.1902
 1159OCT     C2 2318  21.314  17.838  20.209  0.0689 -0.2727  0.2759
 1160OCT     C1 2319  12.117  11.665   3.296  0.3192  0.2147 -0.0582
 1160OCT     C2 2320  11.956  11.276   3.106 -0.1338  0.1642  0.1309
 1161OCT     C1 2321  21.284  15.154  16.786  0.0743  0.1300  0.1081
 1161OCT     C2 2322  21.718  15.070  16.983 -0.0081  0.3681 -0.1155
 1162OCT     C1 2323  10.928   2.931   9.011 -0.0874 -0.0458  0.0164
 1162OCT     C2 2324  10.520   2.771   8.745  0.2170 -0.3097 -0.2963
 1163OCT     C1 2325  18.625   6.559   8.053  0.1948  0.3174  0.2146
 1163OCT     C2 2326  18.819   6.903   7.884 -0.4775  0.1316 -0.0756
 1164OCT     C1 2327   1.701  22.311  21.868  0.3050 -0.0236  0.1820
 1164OCT     C2 2328   1.223  22.481  22.074 -0.2374 -0.0201  0.0492
 1165OCT     C1 2329  23.315  13.026  13.832 -0.0356  0.0454  0.0181
 1165OCT     C2 2330  22.866  13.138  14.008 -0.0078  0.0363 -0.1913
 1166OCT     C1 2331   1.114   7.157   7.615 -0.0797 -0.3601 -0.1338
 1166OCT     C2 2332   0.960   6.951   7.190  0.0422  0.2844  0.2730
 1167OCT     C1 2333  22.422   2.931   1.619  0.3042 -0.1390 -0.2532
 1167OCT     C2 2334  22.644   3.154   1.270 -0.1361 -0.0470  0.0652
 1168OCT     C1 2335  23.055   4.639   2.796 -0.2892 -0.4305  0.3898
 1168OCT     C2 2336  22.950   5.009   3.072  0.0350 -0.0708 -0.0535
 1169OCT     C1 2337  15.826   6.478  23.675 -0.1325  0.0275  0.1749
 1169OCT     C2 2338  15.594   6.228  23.350 -0.2932  0.4206 -0.1999
 1170OCT     C1 2339  14.410  18.488  17.781  0.1860 -0.1154  0.0035
 1170OCT     C2 2340  14.817  18.589  17.617 -0.0088  0.4342 -0.0130
 1171OCT     C1 2341   8.806  15.999   6.692  0.2928  0.4837  0.0825
 1171OCT     C2 2342   8.693  16.247   6.320 -0.0651 -0.1410 -0.0741
 1172OCT     C1 2343  14.277   7.909  13.659 -0.3094 -0.4726  0.1841
 1172OCT     C2 2344  13.846   7.609  13.616 -0.1058  0.0576 -0.5785
 1173OCT     C1 2345   9.889   1.546   9.227 -0.1214  0.1268 -0.0653
 1173OCT     C2 2346   9.985   2.011   9.169 -0.0708 -0.1488 -0.2377
 1174OCT     C1 2347  15.088   9.669  20.926 -0.3008  0.2378  0.3328
 1174OCT     C2 2348  14.716   9.664  20.688  0.0596 -0.0108 -0.0518
 1175OCT     C1 2349   0.152  13.974  18.827  0.3156  0.2731  0.1539
 1175OCT     C2 2350  23.736  13.665  19.136  0.0494 -0.0880  0.4648
 1176OCT     C1 2351   0.239  14.313   1.382 -0.3005 -0.0046 -0.0156
 1176OCT     C2 2352  23.599  14.616   1.266 -0.0716  0.3204  0.2812
 1177OCT     C1 2353   9.817  20.808   1.397  0.4004 -0.2115  0.2302
 1177OCT     C2 2354   9.362  20.962   1.523  0.0352  0.0500  0.2576
 1178OCT     C1 2355   0.835   2.203   1.647  0.4687 -0.6068  0.2458
 1178OCT     C2 2356   0.493   2.139   1.386  0.7693 -0.0201  0.2431
 1179OCT     C1 2357  23.587  16.061  13.280  0.0894  0.1990  0.0138
 1179OCT     C2 2358  23.539  16.119  13.763 -0.2715 -0.4095  0.1518
 1180OCT     C1 2359  19.121  17.428   6.968  0.3692 -0.1462  0.0090
 1180OCT     C2 2360  19.056  16.980   7.010 -0.0039  0.4547 -0.0800
 1181OCT     C1 2361  22.247   3.758  20.803  0.1422 -0.2630  0.3186
 1181OCT     C2 2362  22.060   4.156  20.623 -0.0395  0.0445  0.1839
 1182OCT     C1 2363  11.558   2.951   3.627 -0.0756 -0.0110  0.0037
 1182OCT     C2 2364  11.694   2.619   3.960 -0.2401 -0.1992  0.0639
 1183OCT     C1 2365  23.291  23.238  10.883 -0.0763  0.3436 -0.2578
 1183OCT     C2 2366  22.930  22.985  11.099 -0.0424  0.0938 -0.0170
 1184OCT     C1 2367   2.577   1.948  17.324 -0.3367  0.0038 -0.2456
 1184OCT     C2 2368   2.691   2.152  16.925 -0.1138  0.3538  0.2028
 1185OCT     C1 2369  18.942  18.136  18.750  0.3086  0.4089 -0.3563
 1185OCT     C2 2370  19.414  18.086  18.936 -0.0682  0.3481  0.1528
 1186OCT     C1 2371  16.921  16.502  22.591 -0.0528 -0.0807 -0.2007
 1186OCT     C2 2372  16.914  16.655  22.129  0.1455  0.2031  0.0626
 1187OCT     C1 2373   0.241  11.085  19.055  0.0833 -0.2508 -0.1845
 1187OCT     C2 2374   0.575  10.787  19.167  0.1913 -0.1527 -0.2253
 1188OCT     C1 2375   3.672  16.386  16.137  0.0956  0.1920  0.1074
 1188OCT     C2 2376   3.885  16.770  16.306 -0.2519  0.0717  0.3047
 1189OCT     C1 2377   2.836   4.987   9.962 -0.0903 -0.1341 -0.5779
 1189OCT     C2 2378   2.579   4.998   9.557 -0.2825 -0.0959  0.0719
 1190OCT     C1 2379  12.896   0.378  10.777 -0.1105  0.0896 -0.3709
 1190OCT     C2 2380  12.985   0.659  11.085  0.0100 -0.0064  0.2448
 1191OCT     C1 2381  23.028  13.883   9.125 -0.2782 -0.0993 -0.2407
 1191OCT     C2 2382  22.860  13.506   9.333  0.3567 -0.2628 -0.2455
 1192OCT     C1 2383   5.362  20.002   3.561 -0.0832  0.0941 -0.2859
 1192OCT     C2 2384   5.378  19.686   3.891 -0.2795  0.0771 -0.2491
 1193OCT     C1 2385  15.288   7.160  11.317  0.1028 -0.2048 -0.0257
 1193OCT     C2 2386  15.486   7.466  11.068 -0.4728  0.0317  0.0235
 1194OCT     C1 2387   0.379   7.307  23.216  0.1404 -0.0311 -0.1430
 1194OCT     C2 2388   0.382   7.392  23.677 -0.0627  0.0144 -0.3911
 1195OCT     C1 2389   1.607  12.108  19.956 -0.1441 -0.1420 -0.0582
 1195OCT     C2 2390   1.766  11.971  19.547 -0.0136  0.0422  0.1405
 1196OCT     C1 2391  16.089   6.537  13.300  0.0166  0.1019  0.1894
 1196OCT     C2 2392  16.355   6.322  13.612 -0.4100 -0.2668 -0.0258
 1197OCT     C1 2393  19.458  21.217  23.390  0.3615  0.1257 -0.0172
 1197OCT     C2 2394  19.181  21.123  23.035  0.1091 -0.0221  0.1999
 1198OCT     C1 2395   1.045  13.203  22.550  0.2611 -0.3045  0.1574
 1198OCT     C2 2396   0.760  13.433  22.929 -0.2402  0.3802 -0.2558
 1199OCT     C1 2397  12.817  14.411   0.917 -0.0950  0.4940 -0.0135
 1199OCT     C2 2398  12.526  14.253   0.636 -0.2663  0.0504  0.4476
 1200OCT     C1 2399   6.410   5.930  13.224 -0.4424  0.0075  0.0787
 1200OCT     C2 2400   6.368   5.896  12.785 -0.2172 -0.0925  0.1050
 1201OCT     C1 2401   9.969  23.597   0.374  0.1269  0.0944 -0.3323
 1201OCT     C2 2402  10.094  23.149   0.410  0.0753 -0.1065  0.0550
 1202OCT     C1 2403  19.804  17.112  21.522  0.1995 -0.1939  0.2386
 1202OCT     C2 2404  19.468  17.062  21.223 -0.0572  0.0877  0.1848
 1203OCT     C1 2405   7.266   7.099  21.376 -0.1631  0.3379  0.1942
 1203OCT     C2 2406   7.281   7.140  20.955  0.0445 -0.0252  0.0780
 1204OCT     C1 2407  22.051   8.813  12.737 -0.0845 -0.1137  0.1217
 1204OCT     C2 2408  22.259   8.839  13.141  0.3312 -0.0432 -0.0557
 1205OCT     C1 2409  17.930   0.240  11.133  0.0835 -0.0493 -0.0261
 1205OCT     C2 2410  18.040   0.074  10.706 -0.3156 -0.2066 -0.0728
 1206OCT     C1 2411  21.534   8.238   1.428 -0.0761  0.0091 -0.0234
 1206OCT     C2 2412  21.646   8.387   0.959  0.3468 -0.1438 -0.0208
 1207OCT     C1 2413   3.090   1.790  17.131  0.3380  0.1738 -0.0593
 1207OCT     C2 2414   3.098   1.376  17.235 -0.0125  0.0948 -0.2127
 1208OCT     C1 2415  10.219  16.801  22.785 -0.0500 -0.3514  0.0157
 1208OCT     C2 2416   9.772  16.735  22.972  0.4101 -0.0153  0.1428
 1209OCT     C1 2417   0.939   2.951   7.823  0.3137 -0.1010 -0.0837
 1209OCT     C2 2418   1.325   2.754   7.661 -0.2716  0.3726 -0.0201
 1210OCT     C1 2419  19.815   3.553  14.625  0.1462  0.0038 -0.4300
 1210OCT     C2 2420  20.019   3.159  14.715  0.2031  0.0244 -0.0727
 1211OCT     C1 2421  18.132  23.067  14.752 -0.1099 -0.1161 -0.1213
 1211OCT     C2 2422  18.294  23.222  15.120 -0.1852  0.0808 -0.2697
 1212OCT     C1 2423  20.629  20.541   6.077  0.0218  0.0489 -0.0676
 1212OCT     C2 2424  20.187  20.675   5.877  0.0347 -0.2490  0.1732
 1213OCT     C1 2425   4.606  12.301   2.456  0.1188 -0.1220 -0.1962
 1213OCT     C2 2426   4.872  12.236   2.041  0.0341  0.3080 -0.3502
 1214OCT     C1 2427  10.425  15.719  14.345  0.3155  0.0114 -0.2197
 1214OCT     C2 2428  10.021  15.869  14.257 -0.0797  0.3809  0.2475
 1215OCT     C1 2429   3.518   6.978   1.392 -0.3891 -0.1847  0.2040
 1215OCT     C2 2430   3.732   6.551   1.372  0.0057  0.0700 -0.0962
 1216OCT     C1 2431  14.936  15.685   7.813  0.1106  0.1303  0.0784
 1216OCT     C2 2432  14.926  15.342   8.137 -0.1107  0.1601 -0.2176
 1217OCT     C1 2433   8.538  21.760   9.509 -0.0531 -0.0293 -0.0598
 1217OCT     C2 2434   8.914  21.491   9.403 -0.0370  0.0240 -0.0327
 1218OCT     C1 2435  10.699   1.401  19.787  0.1669 -0.3548 -0.4045
 1218OCT     C2 2436  10.684   1.158  19.371 -0.1733  0.2182  0.0093
 1219OCT     C1 2437  18.622  17.599   6.601  0.0758  0.0535  0.1078
 1219OCT     C2 2438  18.353  17.828   6.894  0.0774  0.0901 -0.0814
 1220OCT     C1 2439   3.693   9.706   4.314  0.2459  0.0569 -0.0922
 1220OCT     C2 2440   3.590   9.277   4.427  0.0103 -0.0217 -0.1772
 1221OCT     C1 2441  20.606  15.034   1.631  0.3133 -0.1782 -0.1941
 1221OCT     C2 2442  20.622  14.716   1.954 -0.0727  0.3940 -0.3468
 1222OCT     C1 2443  15.638   0.179   2.875 -0.1556 -0.1039 -0.0647
 1222OCT     C2 2444  15.636  23.458   2.949 -0.2381  0.1036  0.1654
 1223OCT     C1 2445  19.834   4.254   2.618  0.3495  0.0184  0.3128
 1223OCT     C2 2446  19.991   3.894   2.415 -0.1674  0.0656 -0.0772
 1224OCT     C1 2447  22.444   7.687   4.151  0.1948  0.0725  0.1540
 1224OCT     C2 2448  22.806   7.946   4.063  0.0059 -0.2722  0.1827
 1225OCT     C1 2449   7.089  11.060  23.048 -0.3524  0.1539  0.1228
 1225OCT     C2 2450   6.624  11.187  23.091  0.1092  0.0514  0.2494
 1226OCT     C1 2451   1.079  18.848  21.053  0.1792  0.1492 -0.1540
 1226OCT     C2 2452   1.180  18.685  21.524 -0.0117  0.2243  0.3904
 1227OCT     C1 2453   5.941   9.727  23.210  0.2336  0.2305  0.1920
 1227OCT     C2 2454   6.278   9.921  23.497  0.0524 -0.0211 -0.3023
 1228OCT     C1 2455  22.138  12.877   2.653 -0.4558  0.0624 -0.0990
 1228OCT     C2 2456  22.423  12.465   2.776 -0.0165  0.0244  0.0874
 1229OCT     C1 2457  17.714  15.330  20.706 -0.1813  0.1851 -0.3490
 1229OCT     C2 2458  17.650  15.223  20.277 -0.2661  0.0281  0.0333
 1230OCT     C1 2459   7.819  22.257  17.012  0.0833 -0.1207 -0.1839
 1230OCT     C2 2460   7.989  22.666  17.126  0.2742  0.0946 -0.2187
 1231OCT     C1 2461   2.751  10.047  12.899 -0.3386  0.0338 -0.3803
 1231OCT     C2 2462   2.757   9.976  13.414 -0.1268 -0.2563  0.0171
 1232OCT     C1 2463   9.291  19.828  21.216 -0.1186 -0.0763 -0.0010
 1232OCT     C2 2464   9.048  19.830  21.598  0.1259  0.1156  0.2801
 1233OCT     C1 2465  22.601  22.153   4.422 -0.3433 -0.2696  0.3613
 1233OCT     C2 2466  22.775  22.111   4.027 -0.0755  0.0904  0.0822
 1234OCT     C1 2467   5.422  17.079  19.165  0.1932 -0.1232 -0.0904
 1234OCT     C2 2468   5.403  16.554  19.230  0.0640 -0.0685 -0.1548
 1235OCT     C1 2469  11.876  13.878  14.598 -0.2079 -0.2496 -0.2162
 1235OCT     C2 2470  11.507  14.089  14.327  0.0799 -0.0853  0.4151
 1236OCT     C1 2471  21.669  17.410   2.071 -0.0320  0.3011 -0.3668
 1236OCT     C2 2472  21.882  17.797   2.200  0.0422 -0.0574  0.0956
 1237OCT     C1 2473  17.206   6.350   9.327  0.1015 -0.1782  0.0519
 1237OCT     C2 2474  16.794   6.545   9.385 -0.0572  0.0171  0.0092
 1238OCT     C1 2475  13.598  14.141  20.029 -0.2078  0.1505  0.4203
 1238OCT     C2 2476  13.434  14.586  20.053  0.2853 -0.1763  0.1663
 1239OCT     C1 2477   6.886  13.966  14.449  0.1169  0.2132 -0.0403
 1239OCT     C2 2478   7.106  13.848  14.874  0.0702  0.1178 -0.1471
 1240OCT     C1 2479  21.407  17.595   1.449  0.2414  0.1621  0.2154
 1240OCT     C2 2480  21.468  17.975   1.212 -0.1521 -0.0489 -0.1773
 1241OCT     C1 2481  23.021   9.550  18.138 -0.1695  0.1134  0.1433
 1241OCT     C2 2482  23.136   9.497  17.697 -0.2190  0.2712  0.1310
 1242OCT     C1 2483  13.978  15.489  12.220  0.0897  0.1052 -0.1414
 1242OCT     C2 2484  14.350  15.400  12.480  0.1868 -0.1828 -0.1910
 1243OCT     C1 2485   8.928  19.594  12.939 -0.0912 -0.0274  0.3867
 1243OCT     C2 2486   8.750  19.556  12.525 -0.1749  0.1407 -0.6941
 1244OCT     C1 2487   4.648  22.458   3.019  0.2941  0.0574 -0.0545
 1244OCT     C2 2488   4.499  22.040   3.233  0.2447 -0.1516  0.2524
 1245OCT     C1 2489   8.776  17.095  23.183 -0.0169  0.1964 -0.2690
 1245OCT     C2 2490   9.054  17.206  23.513  0.2557  0.0225 -0.0481
 1246OCT     C1 2491  20.154   5.210   3.600 -0.1947 -0.1967  0.2786
 1246OCT     C2 2492  20.411   5.091   4.004 -0.1254 -0.3196  0.1352
 1247OCT     C1 2493   6.583  23.052  20.593 -0.1842  0.5692 -0.1435
 1247OCT     C2 2494   6.117  22.864  20.558  0.1758  0.2520 -0.2397
 1248OCT     C1 2495  19.942   9.606  18.552  0.0486  0.0099 -0.5422
 1248OCT     C2 2496  20.335   9.603  18.743  0.0348 -0.0880  0.1474
 1249OCT     C1 2497   7.819   9.361  13.672 -0.0491  0.1759 -0.0629
 1249OCT     C2 2498   8.193   9.507  13.450 -0.3188 -0.0122  0.0255
 1250OCT     C1 2499   2.212   9.767   1.037  0.2058 -0.5130 -0.1296
 1250OCT     C2 2500   2.226   9.812   1.495  0.3442 -0.3900  0.2995
 1251OCT     C1 2501   8.527  20.372   1.496 -0.2043  0.1074  0.3240
 1251OCT     C2 2502   8.409  20.531   1.950  0.4009  0.2271 -0.0876
 1252OCT     C1 2503  18.777  13.728  12.032  0.1662  0.0687  0.2278
 1252OCT     C2 2504  18.839  14.075  12.293  0.0798  0.4494 -0.0052
 1253OCT     C1 2505  18.235  19.598   1.537  0.1155  0.4183 -0.0516
 1253OCT     C2 2506  18.023  19.251   1.419  0.0834 -0.1267  0.2052
 1254OCT     C1 2507  21.837  12.662  13.435  0.0025  0.1483 -0.4711
 1254OCT     C2 2508  21.726  12.990  13.746  0.4231 -0.5052 -0.1277
 1255OCT     C1 2509  23.696  15.524  11.568 -0.0138  0.0372 -0.1368
 1255OCT     C2 2510  23.468  15.736  11.183  0.2538 -0.1884 -0.1127
 1256OCT     C1 2511  18.883  18.828  23.226  0.0284  0.0714  0.2522
 1256OCT     C2 2512  18.463  18.945  22.969  0.1728 -0.2261 -0.2312
 1257OCT     C1 2513   5.403   5.116  22.114  0.2865 -0.2657  0.3465
 1257OCT     C2 2514   4.963   5.027  22.096 -0.5709 -0.3377 -0.3132
 1258OCT     C1 2515   0.842   7.147  19.001 -0.0426 -0.2601  0.1605
 1258OCT     C2 2516   0.423   7.161  18.761  0.0775  0.3392 -0.0802
 1259OCT     C1 2517   8.753  10.854  15.524  0.0003  0.2262  0.1925
 1259OCT     C2 2518   8.302  10.961  15.508 -0.1760  0.2511  0.1031
 1260OCT     C1 2519  16.749  12.747  20.978  0.1800 -0.0000  0.1488
 1260OCT     C2 2520  17.116  13.032  20.873 -0.0618  0.2707  0.1559
 1261OCT     C1 2521  17.277  10.622   9.570  0.1090  0.0152  0.0172
 1261OCT     C2 2522  16.910  10.522   9.262  0.3296 -0.0494  0.0355
 1262OCT     C1 2523  15.840  14.096   2.334  0.0533 -0.1775  0.1207
 1262OCT     C2 2524  15.854  13.690   2.066 -0.1337 -0.2547  0.4452
 1263OCT     C1 2525   9.896   5.075  18.253  0.4689 -0.5800  0.0362
 1263OCT     C2 2526  10.212   4.835  18.031  0.0425 -0.0008 -0.2279
 1264OCT     C1 2527  13.373   0.728  14.246 -0.1663  0.0575  0.0340
 1264OCT     C2 2528  13.017   0.993  14.306  0.2745  0.3412 -0.0002
 1265OCT     C1 2529  10.111   7.627   9.922 -0.3680 -0.2366  0.4189
 1265OCT     C2 2530   9.912   7.266   9.794  0.1395 -0.1270  0.1976
 1266OCT     C1 2531  10.436  15.473  22.292 -0.2845 -0.0328 -0.0399
 1266OCT     C2 2532  10.558  15.092  22.007  0.1187  0.0429 -0.0110
 1267OCT     C1 2533  19.020  18.567   0.890 -0.3495  0.0839 -0.3327
 1267OCT     C2 2534  18.845  18.298   1.213  0.3512  0.2271 -0.0478
 1268OCT     C1 2535  11.896   9.884   2.431  0.0180 -0.0444 -0.3457
 1268OCT     C2 2536  12.035   9.468   2.361 -0.0528  0.1780  0.0557
 1269OCT     C1 2537  13.250  14.343   1.241 -0.3100 -0.2313 -0.0602
 1269OCT     C2 2538  13.663  14.327   0.953  0.0778 -0.1062 -0.1170
 1270OCT     C1 2539  22.360  22.729  13.810  0.2715 -0.0179 -0.1896
 1270OCT     C2 2540  22.494  22.501  13.415  0.1496  0.1933 -0.1270
 1271OCT     C1 2541   7.454   1.454  17.579  0.1656 -0.2015  0.2993
 1271OCT     C2 2542   7.150   1.746  17.802 -0.0191 -0.0380 -0.0346
 1272OCT     C1 2543   6.601   3.199   0.993 -0.0493  0.1291 -0.2287
 1272OCT     C2 2544   6.882   3.341   1.313  0.2071 -0.0228 -0.0852
 1273OCT     C1 2545  17.619   1.556   5.466 -0.3883 -0.0031  0.1466
 1273OCT     C2 2546  17.504   1.785   5.067 -0.3015  0.0910 -0.1289
 1274OCT     C1 2547  19.322  10.897  14.926 -0.0788  0.0570 -0.4003
 1274OCT     C2 2548  19.683  11.087  14.668 -0.0639 -0.2227  0.1977
 1275OCT     C1 2549   5.511   8.742  22.847 -0.2067 -0.1367 -0.0201
 1275OCT     C2 2550   5.242   8.368  22.923 -0.1268  0.0089  0.0218
 1276OCT     C1 2551   3.970  21.781   6.072 -0.0225  0.5767  0.1609
 1276OCT     C2 2552   4.167  21.744   6.461 -0.0432  0.0669  0.0465
 1277OCT     C1 2553   4.858  11.796   2.450  0.0623 -0.0088  0.0039
 1277OCT     C2 2554   4.838  11.362   2.591 -0.1743 -0.0647 -0.0495
 1278OCT     C1 2555  18.838   9.015   6.193 -0.1269  0.2829 -0.0839
 1278OCT     C2 2556  18.425   9.137   6.315 -0.1268 -0.3238  0.1708
 1279OCT     C1 2557  19.966  10.116   7.117  0.0270  0.3597 -0.2197
 1279OCT     C2 2558  19.803  10.521   7.133  0.0310 -0.1367  0.1921
 1280OCT     C1 2559   7.513  20.456  16.893  0.1232  0.1041 -0.1430
 1280OCT     C2 2560   7.488  20.678  16.463 -0.0730 -0.2430  0.0856
 1281OCT     C1 2561  10.803  12.688  11.555  0.3753  0.3195 -0.3037
 1281OCT     C2 2562  10.492  12.824  11.898  0.2122  0.0485  0.3586
 1282OCT     C1 2563  22.494  17.981  16.679 -0.1447 -0.0174 -0.3114
 1282OCT     C2 2564  22.385  18.196  16.236  0.0430 -0.1571  0.0628
 1283OCT     C1 2565   8.249  12.094   4.720 -0.0470 -0.0381 -0.0160
 1283OCT     C2 2566   8.213  12.409   5.038 -0.1438  0.1983 -0.3862
 1284OCT     C1 2567   7.587  10.803  19.964 -0.1647  0.1014  0.1031
 1284OCT     C2 2568   7.180  10.912  20.128  0.0556  0.2564 -0.1433
 1285OCT     C1 2569  18.514  19.669  10.766 -0.4541 -0.2753  0.0529
 1285OCT     C2 2570  18.286  20.063  10.602 -0.2039  0.0169 -0.3086
 1286OCT     C1 2571  11.795   3.928   2.335 -0.0883 -0.3015 -0.1412
 1286OCT     C2 2572  12.042   4.247   2.163 -0.2609  0.0704 -0.0559
 1287OCT     C1 2573   9.899  11.914   1.599 -0.3623  0.1689  0.0806
 1287OCT     C2 2574   9.968  11.761   1.154 -0.0449 -0.1116 -0.5223
 1288OCT     C1 2575  18.120  18.809   0.808  0.2156 -0.0397  0.2004
 1288OCT     C2 2576  18.170  19.202   0.548 -0.1862 -0.3062  0.2303
 1289OCT     C1 2577   6.016   2.901  12.078 -0.2552 -0.1304  0.1168
 1289OCT     C2 2578   5.830   2.464  12.163  0.1643  0.2705 -0.2341
 1290OCT     C1 2579  20.560  16.026   6.517 -0.0548  0.0942 -0.0888
 1290OCT     C2 2580  20.683  15.686   6.263  0.0187  0.2182 -0.1932
 1291OCT     C1 2581  17.489   4.022  11.225  0.1498  0.1676  0.0574
 1291OCT     C2 2582  17.244   3.684  11.439 -0.1873  0.2217 -0.4016
 1292OCT     C1 2583   1.099   2.103  13.329 -0.1192  0.1111 -0.1824
 1292OCT     C2 2584   1.431   1.966  12.913  0.1277  0.0053  0.0144
 1293OCT     C1 2585  19.989  19.981  13.301  0.2234  0.0620 -0.0494
 1293OCT     C2 2586  20.307  20.238  13.499  0.0440 -0.0142 -0.3241
 1294OCT     C1 2587   7.222   4.948   5.380  0.3190 -0.1109 -0.1137
 1294OCT     C2 2588   6.940   5.272   5.594 -0.0395 -0.2349 -0.2541
 1295OCT     C1 2589  15.357   9.372  12.386 -0.0786  0.0119 -0.0182
 1295OCT     C2 2590  14.963   9.366  12.106  0.1767  0.0372  0.2785
 1296OCT     C1 2591  18.801  22.885  17.306  0.0156  0.0281 -0.0126
 1296OCT     C2 2592  18.548  22.618  17.589 -0.1961 -0.0696 -0.0198
 1297OCT     C1 2593   8.776  18.762  17.623 -0.0061  0.2196 -0.0489
 1297OCT     C2 2594   8.337  18.805  17.760 -0.4265  0.0585 -0.0213
 1298OCT     C1 2595   6.076   3.602  15.129  0.0766 -0.3230 -0.1411
 1298OCT     C2 2596   6.208   3.175  15.219 -0.1611 -0.2071 -0.4724
 1299OCT     C1 2597  18.652  11.713  15.326  0.3564  0.0872  0.1598
 1299OCT     C2 2598  18.664  11.790  14.851  0.3468 -0.0985 -0.1534
 1300OCT     C1 2599   5.182   9.287  10.981 -0.1906 -0.1126  0.1491
 1300OCT     C2 2600   5.361   9.290  11.394 -0.2662  0.1522 -0.1199
 1301OCT     C1 2601   7.392  16.685   3.260 -0.0344  0.0761 -0.5594
 1301OCT     C2 2602   7.802  16.635   3.558 -0.0800 -0.3098  0.0456
 1302OCT     C1 2603  12.614   0.992   4.418 -0.4664 -0.1779 -0.0308
 1302OCT     C2 2604  12.787   0.903   4.837 -0.4295  0.1981 -0.0755
 1303OCT     C1 2605  18.926  22.787  14.570 -0.1716 -0.0721  0.0175
 1303OCT     C2 2606  18.718  22.749  14.178  0.1802 -0.1825 -0.0607
 1304OCT     C1 2607   4.513   6.038   3.253 -0.0199 -0.0683 -0.0823
 1304OCT     C2 2608   4.770   5.976   2.835  0.1183 -0.3560  0.1380
 1305OCT     C1 2609  22.039  17.365   9.063  0.1127  0.0231 -0.0545
 1305OCT     C2 2610  22.314  17.478   9.392  0.2044  0.2708  0.2823
 1306OCT     C1 2611   3.374   6.059  11.913 -0.1870 -0.1730  0.0047
 1306OCT     C2 2612   3.428   5.745  12.241 -0.0295  0.2465  0.0708
 1307OCT     C1 2613   1.550   2.895  12.074  0.0647 -0.1672  0.4329
 1307OCT     C2 2614   1.141   3.166  12.032 -0.0288  0.0431 -0.4530
 1308OCT     C1 2615  16.666  22.884  15.737  0.0087 -0.2196 -0.2710
 1308OCT     C2 2616  16.679  22.462  15.472  0.0133 -0.0654  0.2582
 1309OCT     C1 2617  13.369  16.977  21.796 -0.2407  0.0389 -0.0108
 1309OCT     C2 2618  13.635  16.613  21.790  0.1408 -0.1589 -0.6196
 1310OCT     C1 2619   5.280  13.988  11.130  0.3654  0.1941  0.0765
 1310OCT     C2 2620   5.349  14.447  11.157  0.0263 -0.0309  0.1552
 1311OCT     C1 2621  15.281   7.222  20.198 -0.0057  0.1263 -0.2389
 1311OCT     C2 2622  14.978   7.582  20.291 -0.1895  0.3307  0.3506
 1312OCT     C1 2623   8.112   6.664   4.293 -0.0001  0.0920  0.2457
 1312OCT     C2 2624   7.771   6.457   4.575  0.0795  0.0908  0.0645
 1313OCT     C1 2625   0.503   7.670  17.944  0.1004 -0.2900 -0.3350
 1313OCT     C2 2626   0.057   7.617  17.952  0.4039  0.1236 -0.2729
 1314OCT     C1 2627   2.569   1.854   4.611  0.0421 -0.1122  0.2033
 1314OCT     C2 2628   2.701   1.418   4.657  0.2343  0.4333  0.1040
 1315OCT     C1 2629   4.035   8.285  12.797 -0.1724 -0.1704 -0.0947
 1315OCT     C2 2630   4.129   8.281  13.257 -0.1125  0.1459 -0.4043
 1316OCT     C1 2631  11.332  21.492  16.143 -0.1087  0.2838 -0.2232
 1316OCT     C2 2632  10.991  21.140  16.281 -0.0966  0.0334  0.2492
 1317OCT     C1 2633  11.746  21.522  15.015 -0.2543 -0.2305  0.3147
 1317OCT     C2 2634  11.435  21.266  14.837  0.1272  0.4067 -0.1197
 1318OCT     C1 2635  15.211  12.567  18.061  0.1706  0.0441  0.3004
 1318OCT     C2 2636  14.877  12.420  17.765 -0.1792 -0.2531 -0.3084
 1319OCT     C1 2637   0.574   8.387  15.581  0.2299 -0.2604  0.0456
 1319OCT     C2 2638   0.820   8.231  15.255  0.3041 -0.1076  0.0359
 1320OCT     C1 2639   3.050  11.443  17.355  0.1885 -0.2423 -0.0503
 1320OCT     C2 2640   2.657  11.754  17.349 -0.1099 -0.1526  0.1713
 1321OCT     C1 2641  19.996  13.762  11.366 -0.0108 -0.0087  0.1004
 1321OCT     C2 2642  19.772  14.114  11.195 -0.0215  0.0263 -0.1175
 1322OCT     C1 2643  23.069  17.913  16.667 -0.0689  0.0879 -0.1713
 1322OCT     C2 2644  22.850  18.060  16.298  0.1485  0.2387 -0.0210
 1323OCT     C1 2645   0.654  11.080  21.417 -0.0482  0.1702 -0.0853
 1323OCT     C2 2646   0.858  10.739  21.675  0.3039 -0.0006 -0.2606
 1324OCT     C1 2647  16.263   4.408  14.558  0.0540 -0.2961  0.5194
 1324OCT     C2 2648  16.047   4.849  14.609 -0.1140 -0.1810  0.0703
 1325OCT     C1 2649   3.615   0.138   5.707 -0.1188  0.1142  0.1538
 1325OCT     C2 2650   3.814   0.017   6.151  0.0951  0.0269 -0.0048
 1326OCT     C1 2651  11.912   6.075   1.697  0.0304  0.3215  0.2241
 1326OCT     C2 2652  12.185   5.960   2.031  0.1418 -0.2023 -0.0970
 1327OCT     C1 2653   7.101  15.100   4.111 -0.0606 -0.1185  0.2788
 1327OCT     C2 2654   7.132  15.562   4.187 -0.4444  0.0285 -0.0083
 1328OCT     C1 2655  17.419   0.149   3.442  0.2022 -0.2962  0.2307
 1328OCT     C2 2656  17.094  23.583   3.263 -0.1487  0.1338 -0.2627
 1329OCT     C1 2657  22.701   2.731  11.476 -0.0710  0.3222 -0.2872
 1329OCT     C2 2658  23.112   2.663  11.210 -0.1251 -0.2074 -0.0245
 1330OCT     C1 2659  17.568  14.625   3.770 -0.2051 -0.1598  0.0088
 1330OCT     C2 2660  17.474  14.553   3.330  0.3640 -0.0035 -0.3626
 1331OCT     C1 2661  23.589  20.862  12.099  0.1462 -0.0237  0.1169
 1331OCT     C2 2662  23.741  20.858  12.545  0.1477 -0.1415  0.0620
 1332OCT     C1 2663  16.879  15.434  11.813  0.0077 -0.1255  0.1994
 1332OCT     C2 2664  16.950  15.823  11.552 -0.2293  0.2279  0.0993
 1333OCT     C1 2665  14.762  16.195  20.182 -0.4548  0.2228 -0.1582
 1333OCT     C2 2666  14.905  16.256  20.624  0.0039 -0.0899 -0.0299
 1334OCT     C1 2667  17.246   3.554  10.936 -0.0600  0.3439  0.1902
 1334OCT     C2 2668  17.660   3.689  10.733  0.0954  0.3017  0.0055
 1335OCT     C1 2669  12.850  13.393   0.678 -0.0589  0.0327 -0.2217
 1335OCT     C2 2670  12.685  12.988   0.876 -0.3460  0.0574  0.0847
 1336OCT     C1 2671  10.092   3.533  15.642  0.1189  0.1900  0.2736
 1336OCT     C2 2672  10.011   3.931  15.466 -0.3183  0.1237 -0.0584
 1337OCT     C1 2673   8.974   7.329  15.717 -0.4284 -0.4026 -0.0549
 1337OCT     C2 2674   8.795   7.587  15.364  0.2033  0.3139  0.2997
 1338OCT     C1 2675  10.107  13.940  10.785 -0.0965  0.2226 -0.1503
 1338OCT     C2 2676   9.961  13.473  10.772 -0.0413 -0.1890 -0.1223
 1339OCT     C1 2677   6.656   0.547   1.975  0.0735  0.1177 -0.2817
 1339OCT     C2 2678   6.246   0.693   1.944  0.0145 -0.1991  0.2920
 1340OCT     C1 2679   9.768  23.421  21.989 -0.0233  0.3632  0.4199
 1340OCT     C2 2680  10.172  23.295  21.851  0.1900  0.0244  0.1385
 1341OCT     C1 2681   0.399  14.742  19.798  0.2488  0.2177  0.4266
 1341OCT     C2 2682   0.790  14.891  19.892 -0.1963 -0.0763  0.1331
 1342OCT     C1 2683  15.557  11.937  23.559  0.1382  0.0113  0.0541
 1342OCT     C2 2684  15.606  12.178  23.169  0.0308 -0.0876  0.0030
 1343OCT     C1 2685  20.824   6.935   3.455 -0.3551 -0.0002  0.0279
 1343OCT     C2 2686  20.971   7.369   3.634  0.1619 -0.3625  0.2272
 1344OCT     C1 2687  19.361   7.461  16.063  0.1796 -0.1086 -0.2240
 1344OCT     C2 2688  19.639   7.811  15.920 -0.1300 -0.0154  0.0849
 1345OCT     C1 2689  22.791   7.791   8.636 -0.2481 -0.0809  0.0303
 1345OCT     C2 2690  22.875   7.329   8.772  0.2483  0.2176  0.0838
 1346OCT     C1 2691   8.806  13.879  19.407 -0.0142  0.0491 -0.0699
 1346OCT     C2 2692   8.799  13.654  19.795 -0.1063 -0.4290  0.0924
 1347OCT     C1 2693  14.682  18.559   3.160  0.1062  0.0113 -0.3235
 1347OCT     C2 2694  14.334  18.679   3.400 -0.4505  0.1108  0.2970
 1348OCT     C1 2695   5.938  10.642   3.352 -0.2168  0.3542 -0.0626
 1348OCT     C2 2696   6.111  10.387   3.710  0.0869 -0.0723 -0.1135
 1349OCT     C1 2697   3.113  13.387   4.200  0.0627 -0.0717 -0.1884
 1349OCT     C2 2698   3.053  12.929   4.196  0.0529 -0.2687 -0.4095
 1350OCT     C1 2699  18.952  14.114   9.803  0.1168  0.1495  0.2308
 1350OCT     C2 2700  18.593  14.181  10.115 -0.0863 -0.1264  0.2493
 1351OCT     C1 2701  21.053  14.309  20.528  0.1605 -0.1320  0.0128
 1351OCT     C2 2702  21.292  14.247  20.116  0.2957 -0.0447  0.2945
 1352OCT     C1 2703   1.860   5.259  16.873 -0.0404 -0.0856 -0.2204
 1352OCT     C2 2704   1.474   5.531  16.989  0.0407 -0.0342  0.0139
 1353OCT     C1 2705  13.023  22.901  23.366 -0.0247  0.0007 -0.0515
 1353OCT     C2 2706  12.985  23.291  23.096  0.1467 -0.2210 -0.0287
 1354OCT     C1 2707  20.598   5.822   0.324  0.0028 -0.1055  0.2014
 1354OCT     C2 2708  21.005   6.038   0.346  0.2028 -0.2200  0.0710
 1355OCT     C1 2709  18.709   1.946  22.596  0.2638  0.0251 -0.2403
 1355OCT     C2 2710  18.530   1.826  22.157 -0.0103  0.1371  0.2339
 1356OCT     C1 2711   1.640  20.611  12.073 -0.1048 -0.0734  0.3104
 1356OCT     C2 2712   2.093  20.439  12.016  0.1703  0.0708  0.0056
 1357OCT     C1 2713  10.883  17.428  21.780 -0.2105  0.2615 -0.0094
 1357OCT     C2 2714  10.698  17.756  21.501  0.0702 -0.0803 -0.0335
 1358OCT     C1 2715  23.447   9.433  15.762 -0.0077 -0.1423 -0.1939
 1358OCT     C2 2716   0.026   9.226  15.506  0.0300 -0.0924 -0.2634
 1359OCT     C1 2717   0.890  12.936  19.128  0.2897 -0.1803  0.0833
 1359OCT     C2 2718   0.520  12.740  19.350 -0.3154  0.1046  0.3315
 1360OCT     C1 2719   6.256  19.768  22.886 -0.1744 -0.1401  0.1765
 1360OCT     C2 2720   6.317  19.417  23.144 -0.0871  0.1524  0.1132
 1361OCT     C1 2721   2.192  20.524  14.141 -0.0779 -0.3593  0.2632
 1361OCT     C2 2722   2.218  20.715  14.594  0.1242  0.1276 -0.1496
 1362OCT     C1 2723  11.395  21.709  11.413 -0.0517  0.0313  0.1404
 1362OCT     C2 2724  11.418  21.867  10.979  0.1302 -0.2533  0.2555
 1363OCT     C1 2725   2.277  14.715  13.261 -0.1788  0.2189  0.1050
 1363OCT     C2 2726   2.153  15.160  13.335  0.3790 -0.0457 -0.1657
 1364OCT     C1 2727   9.340   9.664   9.103  0.2379 -0.1638  0.2534
 1364OCT     C2 2728   8.877   9.893   8.939 -0.3993  0.1174 -0.0884
 1365OCT     C1 2729  13.540   7.525  11.028  0.1197 -0.4005  0.0092
 1365OCT     C2 2730  13.623   7.058  10.973  0.0212 -0.1349  0.0016
 1366OCT     C1 2731  20.271   7.836   3.886 -0.4405 -0.1087  0.0741
 1366OCT     C2 2732  20.416   8.019   3.512  0.0809 -0.2984  0.1681
 1367OCT     C1 2733  10.858  16.178  19.433  0.0611 -0.1042 -0.1190
 1367OCT     C2 2734  10.723  15.775  19.317  0.2571 -0.2239 -0.0800
 1368OCT     C1 2735   4.015  21.414   4.508 -0.0762 -0.2144 -0.3418
 1368OCT     C2 2736   3.984  20.998   4.268 -0.1672 -0.0850  0.2266
 1369OCT     C1 2737  10.526  10.181  14.548  0.1885  0.2576  0.0277
 1369OCT     C2 2738  10.933  10.106  14.314  0.1192  0.0869 -0.0626
 1370OCT     C1 2739   2.682  20.673  18.586  0.1782  0.1810 -0.3352
 1370OCT     C2 2740   2.784  20.330  18.891 -0.4597  0.3487  0.2500
 1371OCT     C1 2741   3.629  14.319  15.353  0.2520 -0.1743 -0.3085
 1371OCT     C2 2742   4.059  14.353  15.192  0.1483  0.1561  0.3269
 1372OCT     C1 2743  15.784  22.946   1.842  0.2297  0.0545 -0.0537
 1372OCT     C2 2744  15.802  23.420   1.934  0.1347  0.0507  0.1238
 1373OCT     C1 2745   9.551  15.470  18.340 -0.4036  0.1484  0.0652
 1373OCT     C2 2746   9.083  15.537  18.363 -0.0110  0.0523 -0.0905
 1374OCT     C1 2747  23.022  20.693   3.564  0.1172 -0.0113  0.0926
 1374OCT     C2 2748  23.160  20.613   3.107 -0.0235 -0.4049  0.2605
 1375OCT     C1 2749  11.775   3.702  10.934 -0.1380 -0.1358  0.1804
 1375OCT     C2 2750  11.420   3.938  10.905  0.1115 -0.2966  0.2285
 1376OCT     C1 2751   7.894   2.532   7.176  0.2316  0.1072  0.4814
 1376OCT     C2 2752   8.248   2.882   7.190 -0.1178  0.0929  0.0045
 1377OCT     C1 2753   2.437   5.220  21.495 -0.1433 -0.1748 -0.2570
 1377OCT     C2 2754   2.791   5.275  21.705 -0.1281 -0.0995  0.1247
 1378OCT     C1 2755  18.524   4.730   8.807  0.0897  0.0630  0.3335
 1378OCT     C2 2756  18.184   4.459   8.574 -0.0689 -0.2898  0.1077
 1379OCT     C1 2757  23.508  18.107  14.087 -0.2722  0.0148  0.1988
 1379OCT     C2 2758  23.647  18.554  14.248 -0.0666 -0.3470  0.1394
 1380OCT     C1 2759  19.360  22.443  16.225 -0.4194 -0.0041 -0.4813
 1380OCT     C2 2760  19.093  22.285  15.811 -0.0103 -0.2737  0.1295
 1381OCT     C1 2761  16.938   6.264  21.857  0.0490  0.0937  0.4368
 1381OCT     C2 2762  16.473   6.186  21.898 -0.0806  0.0239 -0.3114
 1382OCT     C1 2763  21.017  11.066   8.330 -0.3687 -0.3412  0.1192
 1382OCT     C2 2764  21.378  10.818   8.427  0.2523 -0.0814  0.0567
 1383OCT     C1 2765   7.173  20.173   3.755  0.0292 -0.0579 -0.0298
 1383OCT     C2 2766   7.249  19.729   3.617 -0.2316 -0.1408 -0.0213
 1384OCT     C1 2767   3.680   1.028  20.050 -0.5408 -0.1090 -0.4676
 1384OCT     C2 2768   3.701   1.258  20.470  0.0295  0.4397  0.3314
 1385OCT     C1 2769  17.613   9.227   4.766  0.0284 -0.1262 -0.1605
 1385OCT     C2 2770  17.345   9.133   4.447 -0.1325 -0.0492 -0.0051
 1386OCT     C1 2771   6.882  23.537   2.326 -0.0668 -0.1705  0.0136
 1386OCT     C2 2772   7.018   0.145   1.977 -0.1103 -0.4105  0.1077
 1387OCT     C1 2773  22.082  15.482   7.732  0.2398  0.0542 -0.0833
 1387OCT     C2 2774  22.207  15.567   8.172 -0.2774 -0.1974 -0.1412
 1388OCT     C1 2775  20.247   0.811   1.165 -0.6119 -0.5040 -0.1121
 1388OCT     C2 2776  19.997   0.721   1.595 -0.1176  0.0507 -0.1056
 1389OCT     C1 2777  14.817  11.280  23.239  0.1608  0.1578  0.4713
 1389OCT     C2 2778  15.033  10.994  22.947 -0.0904  0.1575 -0.0246
 1390OCT     C1 2779  15.775  20.347  20.801 -0.5081 -0.0056 -0.0045
 1390OCT     C2 2780  15.734  20.293  21.258 -0.0809  0.0907 -0.1571
 1391OCT     C1 2781   0.067   9.622  13.538 -0.1380  0.0173  0.0929
 1391OCT     C2 2782   0.308   9.274  13.293 -0.1944  0.1696 -0.2596
 1392OCT     C1 2783   3.822  22.939   9.323 -0.0631 -0.3895 -0.2132
 1392OCT     C2 2784   3.363  22.892   9.382 -0.2600  0.0271 -0.1196
 1393OCT     C1 2785  21.919  18.035   8.870  0.0619  0.0662  0.2823
 1393OCT     C2 2786  22.425  17.983   8.973  0.0680 -0.0355 -0.3912
 1394OCT     C1 2787   9.045  20.967   0.015 -0.2863 -0.1727  0.3004
 1394OCT     C2 2788   8.698  20.685  23.633 -0.0654  0.2277 -0.0106
 1395OCT     C1 2789   7.323  22.518   5.912 -0.2120 -0.1086  0.3306
 1395OCT     C2 2790   6.893  22.509   5.776  0.2534 -0.1470 -0.2949
 1396OCT     C1 2791  13.320  21.251   6.011  0.3181  0.1816 -0.6862
 1396OCT     C2 2792  13.536  20.855   6.215  0.1730 -0.0991 -0.2009
 1397OCT     C1 2793  17.748  11.197   3.007 -0.0827  0.0420 -0.2013
 1397OCT     C2 2794  17.323  11.003   2.964  0.3404 -0.0427 -0.2801
 1398OCT     C1 2795  14.033   2.378  22.734  0.3031  0.0713 -0.4497
 1398OCT     C2 2796  13.589   2.519  22.872 -0.0369  0.2692 -0.0944
 1399OCT     C1 2797  14.707  21.781  16.010  0.0684  0.1174 -0.2372
 1399OCT     C2 2798  14.947  21.373  16.136  0.2131  0.0754 -0.0317
 1400OCT     C1 2799  18.476  23.140  17.757  0.1187  0.0609 -0.1416
 1400OCT     C2 2800  18.408  23.187  18.219  0.1019  0.2730 -0.2067
 1401OCT     C1 2801  13.944  21.441  20.053 -0.0376  0.0194  0.1766
 1401OCT     C2 2802  13.815  21.071  20.306 -0.1594 -0.0481 -0.0374
 1402OCT     C1 2803  21.158   6.387  23.525  0.2795  0.3757  0.0629
 1402OCT     C2 2804  20.902   5.988  23.511 -0.1311  0.1199  0.2353
 1403OCT     C1 2805   5.445  18.196  16.988 -0.0092  0.1266  0.2304
 1403OCT     C2 2806   4.997  18.310  16.959  0.0723 -0.2367  0.1548
 1404OCT     C1 2807   7.675  12.273   7.256 -0.0298 -0.3012 -0.4706
 1404OCT     C2 2808   7.443  12.533   6.887  0.0356 -0.2673 -0.6737
 1405OCT     C1 2809   9.612   7.731  19.436 -0.0855  0.1604 -0.1262
 1405OCT     C2 2810   9.735   7.822  19.848  0.3185  0.2159  0.1153
 1406OCT     C1 2811  16.362   4.951   5.652  0.3272 -0.0017 -0.0704
 1406OCT     C2 2812  16.748   4.756   5.600 -0.6281 -0.2854 -0.5124
 1407OCT     C1 2813   0.093  17.551  16.675  0.2011  0.0979  0.0085
 1407OCT     C2 2814  23.307  17.539  16.833 -0.1486  0.0490 -0.0566
 1408OCT     C1 2815   6.101  10.159   5.613  0.0204 -0.0042 -0.1326
 1408OCT     C2 2816   5.878   9.948   5.290 -0.2445  0.3412  0.3254
 1409OCT     C1 2817   5.136  21.709  15.833 -0.0189 -0.1981 -0.3976
 1409OCT     C2 2818   4.793  21.475  15.646 -0.2077 -0.3584 -0.2980
 1410OCT     C1 2819   1.807   4.350   5.294 -0.1192  0.1638 -0.0656
 1410OCT     C2 2820   1.984   4.085   4.961  0.2169 -0.1824  0.7616
 1411OCT     C1 2821  15.303   6.734   5.451 -0.1144 -0.1670  0.0114
 1411OCT     C2 2822  15.580   6.507   5.151 -0.2489  0.1844  0.0734
 1412OCT     C1 2823  12.240   3.792   8.884 -0.3498  0.0418 -0.2118
 1412OCT     C2 2824  11.908   3.548   9.199 -0.3286  0.0525  0.3192
 1413OCT     C1 2825   7.591   5.635   8.825  0.0608 -0.1255 -0.0083
 1413OCT     C2 2826   7.393   5.612   8.418  0.3086 -0.0028  0.2368
 1414OCT     C1 2827   9.835  15.927  17.926 -0.0169  0.0536  0.1490
 1414OCT     C2 2828   9.681  15.465  17.784 -0.1739  0.0318 -0.2337
 1415OCT     C1 2829   7.878   1.993  13.526 -0.2028 -0.6352  0.0606
 1415OCT     C2 2830   7.558   2.255  13.652 -0.1257 -0.3017 -0.0974
 1416OCT     C1 2831  17.315  16.664  21.858  0.3239  0.0481  0.2814
 1416OCT     C2 2832  17.474  17.096  22.061 -0.1216  0.0390  0.5226
 1417OCT     C1 2833  17.024  21.721  15.499 -0.1665 -0.2687 -0.2133
 1417OCT     C2 2834  17.216  21.899  15.883 -0.0689  0.0825  0.1414
 1418OCT     C1 2835  16.683   0.837   7.840 -0.2145  0.1436  0.1341
 1418OCT     C2 2836  16.657   0.632   8.264  0.2022  0.1503  0.2192
 1419OCT     C1 2837  21.642   1.233  15.817 -0.0359 -0.2069  0.2313
 1419OCT     C2 2838  21.499   0.866  16.023 -0.1344 -0.2056  0.2280
 1420OCT     C1 2839   1.421   9.113   1.847  0.0078 -0.0975  0.0544
 1420OCT     C2 2840   1.502   8.713   2.069 -0.2614 -0.5793 -0.1454
 1421OCT     C1 2841   2.386  14.522   7.182 -0.3244  0.0575  0.0123
 1421OCT     C2 2842   1.954  14.638   6.977 -0.1841  0.3798 -0.0177
 1422OCT     C1 2843  15.046  14.182  10.839  0.1999  0.1843  0.2925
 1422OCT     C2 2844  15.041  14.651  10.925  0.5725 -0.3026  0.1064
 1423OCT     C1 2845  11.775  16.087  19.590 -0.2075 -0.0841  0.0052
 1423OCT     C2 2846  11.761  15.744  19.351 -0.3075  0.0061  0.1525
 1424OCT     C1 2847   5.375   7.897  12.442 -0.4043  0.1973  0.0859
 1424OCT     C2 2848   5.327   7.887  12.901  0.0874  0.0845  0.0148
 1425OCT     C1 2849   6.226  15.465   0.499  0.0088  0.1076  0.1353
 1425OCT     C2 2850   6.252  15.234   0.928  0.2784 -0.5564  0.2277
 1426OCT     C1 2851   3.833  14.889   6.990 -0.1823 -0.1981 -0.2252
 1426OCT     C2 2852   3.603  14.982   7.386  0.0395 -0.0442  0.0628
 1427OCT     C1 2853  22.395  23.624   0.678 -0.0780 -0.0626  0.3325
 1427OCT     C2 2854  22.492  23.337   1.004  0.0723 -0.0014 -0.0448
 1428OCT     C1 2855   8.867  16.624   7.946 -0.0559  0.3201  0.3251
 1428OCT     C2 2856   8.502  16.872   7.994  0.3503 -0.0688  0.1014
 1429OCT     C1 2857  18.513  20.728  19.986 -0.2666  0.0269  0.0996
 1429OCT     C2 2858  18.936  20.646  19.864  0.0504 -0.2219  0.3403
 1430OCT     C1 2859  23.169  15.183   0.056  0.0226  0.0572 -0.1256
 1430OCT     C2 2860  23.086  14.916   0.392 -0.1290  0.0211 -0.1134
 1431OCT     C1 2861  23.399  12.628   2.544  0.2199 -0.2159  0.0531
 1431OCT     C2 2862  23.635  12.957   2.282  0.2800 -0.1300  0.0746
 1432OCT     C1 2863  12.477  23.610   0.738  0.2837  0.0111  0.0968
 1432OCT     C2 2864  12.576  23.475   0.307  0.2748 -0.3548  0.1450
 1433OCT     C1 2865   3.466   8.767  12.445  0.0692  0.0576 -0.2768
 1433OCT     C2 2866   3.262   9.202  12.602  0.0950  0.0908 -0.2268
 1434OCT     C1 2867   7.670  17.084  21.121  0.4446  0.0557  0.4735
 1434OCT     C2 2868   8.081  17.011  20.922  0.1854  0.3092 -0.1322
 1435OCT     C1 2869   9.766   7.447  17.926 -0.1153 -0.1955  0.1181
 1435OCT     C2 2870   9.337   7.523  17.797  0.1952  0.1523  0.1838
 1436OCT     C1 2871  20.482   4.578   6.867 -0.0775 -0.0377  0.4872
 1436OCT     C2 2872  20.158   4.944   6.754 -0.0390  0.1847 -0.1595
 1437OCT     C1 2873  22.501   7.137  22.393  0.1450  0.0459 -0.1352
 1437OCT     C2 2874  22.845   7.178  22.704  0.0401 -0.0926  0.2327
 1438OCT     C1 2875   4.290  17.006  20.244 -0.1842 -0.0344 -0.0076
 1438OCT     C2 2876   3.919  17.063  19.929  0.1851  0.3545  0.4567
 1439OCT     C1 2877  16.403   3.496  23.175  0.4533 -0.0876  0.0270
 1439OCT     C2 2878  16.268   3.700  22.833  0.1206  0.1436  0.1095
 1440OCT     C1 2879  20.999   0.671  11.099 -0.3317 -0.4219 -0.1767
 1440OCT     C2 2880  20.652   0.399  10.983 -0.3112 -0.2346 -0.3874
 1441OCT     C1 2881  23.707  21.362   5.526  0.1356 -0.0155 -0.0633
 1441OCT     C2 2882  23.584  20.951   5.287 -0.2221  0.0574 -0.0338
 1442OCT     C1 2883   2.558  14.281  13.968 -0.1861  0.1517 -0.0578
 1442OCT     C2 2884   2.631  13.959  13.629 -0.0977  0.0197 -0.0382
 1443OCT     C1 2885  20.865   1.052  19.068  0.0920 -0.2515 -0.2049
 1443OCT     C2 2886  20.427   1.162  19.263  0.2166  0.0905 -0.0322
 1444OCT     C1 2887  13.808   6.546   0.597 -0.2172 -0.1710 -0.0326
 1444OCT     C2 2888  14.020   6.409   0.205 -0.4100  0.0270  0.1136
 1445OCT     C1 2889  18.528  17.834  18.657 -0.2821  0.0073 -0.2631
 1445OCT     C2 2890  18.191  17.811  18.326  0.0721 -0.2517 -0.1911
 1446OCT     C1 2891  13.829   8.819  14.811  0.0174  0.0554 -0.2186
 1446OCT     C2 2892  13.417   8.824  15.044  0.4484  0.0046 -0.0468
 1447OCT     C1 2893   1.331   7.017  16.490 -0.3616 -0.5571 -0.1508
 1447OCT     C2 2894   1.634   6.628  16.524  0.1688  0.1579  0.1348
 1448OCT     C1 2895   7.562  10.858  16.761  0.0966  0.1945 -0.0739
 1448OCT     C2 2896   7.544  10.506  16.400  0.1731  0.0734 -0.3553
 1449OCT     C1 2897  14.154  11.275   7.790 -0.1971 -0.1840  0.1095
 1449OCT     C2 2898  13.713  11.262   7.938  0.0246  0.3485  0.0708
 1450OCT     C1 2899   1.982   5.151  20.904  0.0158  0.1140 -0.1185
 1450OCT     C2 2900   2.195   5.553  21.032 -0.0679  0.1637 -0.0539
 1451OCT     C1 2901   4.060  11.876  18.788 -0.2824 -0.3689  0.1491
 1451OCT     C2 2902   3.858  11.552  18.563 -0.0610 -0.2960  0.1132
 1452OCT     C1 2903  15.956  17.176   3.212 -0.2706 -0.2937 -0.0388
 1452OCT     C2 2904  15.508  17.287   3.362  0.2245 -0.2028  0.3557
 1453OCT     C1 2905  20.990   8.917  14.196 -0.3959  0.1844  0.3732
 1453OCT     C2 2906  20.568   8.781  14.063 -0.2985  0.5013  0.0027
 1454OCT     C1 2907  10.632  22.726  13.203 -0.2254 -0.3249 -0.1425
 1454OCT     C2 2908  10.594  22.846  12.815  0.0322 -0.3899 -0.0707
 1455OCT     C1 2909   7.173   6.060   8.840 -0.0985  0.0528 -0.4139
 1455OCT     C2 2910   7.255   5.783   9.166  0.0063  0.0106  0.2713
 1456OCT     C1 2911  16.959   2.719  12.149 -0.2878  0.0779  0.1288
 1456OCT     C2 2912  17.064   2.237  12.113  0.2214 -0.0877  0.1845
 1457OCT     C1 2913  19.117  14.879   9.645  0.0174 -0.0183  0.4048
 1457OCT     C2 2914  19.089  15.356   9.606 -0.1024 -0.3515  0.1661
 1458OCT     C1 2915   3.171  11.254  20.483 -0.1723  0.0967  0.0838
 1458OCT     C2 2916   2.827  11.485  20.690  0.0166 -0.1412  0.3530
 1459OCT     C1 2917  21.877  10.363   0.164 -0.1582  0.0073 -0.1289
 1459OCT     C2 2918  21.802  10.073   0.499  0.0505  0.1823 -0.2512
 1460OCT     C1 2919  11.861   4.342   0.171  0.1049 -0.3619 -0.2259
 1460OCT     C2 2920  12.129   4.194  23.600 -0.0268 -0.0435  0.0279
 1461OCT     C1 2921  17.658   2.292  22.486 -0.1123 -0.2961 -0.1307
 1461OCT     C2 2922  17.724   2.208  22.047 -0.0510  0.3717 -0.0138
 1462OCT     C1 2923   0.702   4.529   4.772  0.2781 -0.1448  0.1618
 1462OCT     C2 2924   0.956   4.948   4.768 -0.0840  0.1005  0.3608
 1463OCT     C1 2925  22.027  11.921  19.925  0.0394 -0.1159  0.3225
 1463OCT     C2 2926  22.257  11.596  20.059 -0.2392  0.3224  0.1755
 1464OCT     C1 2927   7.884   8.071  20.498 -0.2437  0.1754  0.2092
 1464OCT     C2 2928   8.019   7.615  20.441 -0.0444  0.2852 -0.0724
 1465OCT     C1 2929  18.617  21.761   6.522  0.2848  0.1265  0.2336
 1465OCT     C2 2930  18.670  21.476   6.837 -0.0086 -0.0632  0.3961
 1466OCT     C1 2931   3.041  15.176   8.343  0.0031 -0.0589  0.0953
 1466OCT     C2 2932   3.346  15.516   8.418 -0.1628  0.1304  0.0590
 1467OCT     C1 2933  17.347  15.128   6.459 -0.4917  0.1085  0.1669
 1467OCT     C2 2934  17.612  15.462   6.219 -0.2391  0.1045  0.1415
 1468OCT     C1 2935   3.388  12.709  11.520 -0.1760  0.1967 -0.0903
 1468OCT     C2 2936   3.792  12.912  11.569 -0.0530 -0.2268  0.4495
 1469OCT     C1 2937  23.739   1.490   6.383 -0.1071 -0.1985 -0.3282
 1469OCT     C2 2938   0.213   1.174   6.655 -0.1573  0.1087 -0.0993
 1470OCT     C1 2939  10.732   2.820  12.732 -0.0150 -0.0348  0.0675
 1470OCT     C2 2940  11.153   2.642  12.901  0.1097 -0.0593 -0.1495
 1471OCT     C1 2941  11.293   7.644  10.351  0.1540 -0.0153 -0.0397
 1471OCT     C2 2942  11.247   7.755  10.810 -0.0853 -0.0484 -0.0337
 1472OCT     C1 2943   1.455  14.203  23.099  0.0339 -0.3754  0.2214
 1472OCT     C2 2944   1.392  14.590  23.360  0.0599  0.1519 -0.1210
 1473OCT     C1 2945   9.271  23.042  14.245 -0.0666  0.1476  0.3417
 1473OCT     C2 2946   8.959  22.947  13.887 -0.0490  0.0171 -0.0419
 1474OCT     C1 2947  14.578  10.085  19.720 -0.0369  0.0641  0.2331
 1474OCT     C2 2948  14.690  10.441  19.435  0.1220  0.1741 -0.2775
 1475OCT     C1 2949  10.843   1.011  12.429  0.1447  0.0588 -0.2167
 1475OCT     C2 2950  11.041   1.389  12.552  0.1366  0.1284 -0.1301
 1476OCT     C1 2951   9.846  23.400  10.105  0.1764  0.0088 -0.3141
 1476OCT     C2 2952   9.765   0.116  10.211  0.3652 -0.0438  0.0235
 1477OCT     C1 2953  13.156   0.855   3.837  0.0109 -0.1543  0.0284
 1477OCT     C2 2954  12.840   0.605   4.147  0.0852  0.2959 -0.0610
 1478OCT     C1 2955   6.695   6.031   8.053  0.0902  0.2223  0.0360
 1478OCT     C2 2956   6.673   6.501   8.028  0.3774  0.0163  0.3031
 1479OCT     C1 2957   0.015  12.957  14.064 -0.0971  0.2850 -0.1592
 1479OCT     C2 2958   0.167  13.014  14.568  0.1302  0.3564  0.1960
 1480OCT     C1 2959   8.781   7.831  22.573 -0.3030  0.3832 -0.1965
 1480OCT     C2 2960   8.557   7.514  22.889  0.1776 -0.1940  0.2133
 1481OCT     C1 2961  22.059  13.340  15.500  0.0976  0.0059 -0.1242
 1481OCT     C2 2962  22.124  13.098  15.897  0.1193 -0.0998 -0.0335
 1482OCT     C1 2963  20.333   0.762   8.926 -0.4406  0.2852  0.1470
 1482OCT     C2 2964  19.874   0.638   8.817 -0.2156  0.1569  0.0693
 1483OCT     C1 2965  22.594   1.517   2.632 -0.1048 -0.4570  0.0751
 1483OCT     C2 2966  22.369   1.101   2.531  0.2171  0.2928  0.3314
 1484OCT     C1 2967   8.318   9.385  13.933  0.0474 -0.2235  0.4882
 1484OCT     C2 2968   8.005   9.092  14.147 -0.0036  0.1702  0.3612
 1485OCT     C1 2969  11.733  14.314  20.115 -0.1684 -0.0413 -0.2155
 1485OCT     C2 2970  12.123  14.030  20.274 -0.2968 -0.0909  0.2169
 1486OCT     C1 2971   3.341  16.556  17.052 -0.0057  0.3833  0.1029
 1486OCT     C2 2972   3.056  16.177  17.133 -0.0247  0.2126 -0.3209
 1487OCT     C1 2973   6.857  16.206  23.309  0.0533 -0.1639 -0.0195
 1487OCT     C2 2974   7.222  16.461  23.399 -0.1446 -0.0253  0.1900
 1488OCT     C1 2975   8.067   4.349  18.100 -0.0863  0.1705  0.1875
 1488OCT     C2 2976   8.361   3.926  18.148 -0.1445  0.2399  0.0241
 1489OCT     C1 2977  13.005   5.130   7.081 -0.4011 -0.3112  0.0119
 1489OCT     C2 2978  13.270   4.950   6.746 -0.5190  0.0541  0.0784
 1490OCT     C1 2979  14.352  18.369  10.767  0.2740  0.1974  0.1581
 1490OCT     C2 2980  14.579  18.083  11.022  0.0731  0.2128  0.1255
 1491OCT     C1 2981  21.489   7.267   8.052  0.1799  0.2770  0.3028
 1491OCT     C2 2982  21.456   6.838   8.120  0.3121 -0.0177  0.0968
 1492OCT     C1 2983   6.668   4.937   6.298  0.0988  0.2883  0.1884
 1492OCT     C2 2984   7.083   5.187   6.245  0.2386 -0.1841  0.1040
 1493OCT     C1 2985   1.397   1.672   4.597 -0.3891  0.3156  0.2792
 1493OCT     C2 2986   1.009   1.895   4.720 -0.1613 -0.1713 -0.2263
 1494OCT     C1 2987   2.530   8.718  21.517  0.2331  0.2260 -0.0137
 1494OCT     C2 2988   2.703   8.753  21.883  0.0177  0.0705 -0.2150
 1495OCT     C1 2989  11.571   9.465  17.720  0.0968  0.2501  0.3576
 1495OCT     C2 2990  11.224   9.443  18.052 -0.2063  0.0622 -0.0922
 1496OCT     C1 2991   5.582   6.675   4.677  0.1503 -0.1393  0.1098
 1496OCT     C2 2992   5.221   6.407   4.528  0.2086 -0.2563 -0.0741
 1497OCT     C1 2993  18.270  22.992  21.958  0.4543 -0.2228  0.0589
 1497OCT     C2 2994  18.481  22.602  21.937  0.3112  0.0223  0.2038
 1498OCT     C1 2995  11.758   7.708  10.411 -0.1806 -0.2906  0.0517
 1498OCT     C2 2996  12.104   7.427  10.295  0.0518  0.2273  0.0735
 1499OCT     C1 2997   9.138   7.251  10.909 -0.0560  0.4788 -0.0351
 1499OCT     C2 2998   9.171   6.902  11.183 -0.0039 -0.1870  0.3185
 1500OCT     C1 2999   9.515  11.182  10.174 -0.1758  0.0867 -0.4668
 1500OCT     C2 3000   9.897  11.274   9.827  0.2848  0.0642 -0.0577
 1501OCT     C1 3001  16.752   3.819  14.781 -0.3196 -0.0143 -0.1788
 1501OCT     C2 3002  17.077   3.827  15.086  0.1597 -0.1658  0.4333
 1502OCT     C1 3003   4.850  19.453   8.164  0.3525  0.0888  0.0054
 1502OCT     C2 3004   4.819  19.599   8.616  0.3371 -0.0944 -0.0446
 1503OCT     C1 3005   8.449  11.305   0.105  0.1349  0.0945 -0.0788
 1503OCT     C2 3006   8.536  11.741   0.227 -0.0592 -0.0749 -0.2202
 1504OCT     C1 3007  18.049   7.339   3.589 -0.0907 -0.1667 -0.5458
 1504OCT     C2 3008  18.025   7.743   3.842  0.1682 -0.0803 -0.3125
 1505OCT     C1 3009  15.273   6.201   3.971 -0.0690  0.3114 -0.4585
 1505OCT     C2 3010  15.674   6.314   3.986 -0.0312  0.0531  0.0410
 1506OCT     C1 3011   3.388  16.610  14.751 -0.4870 -0.3497 -0.2389
 1506OCT     C2 3012   3.357  16.797  14.277  0.0019 -0.1132 -0.1051
 1507OCT     C1 3013  13.203   5.744   0.892 -0.0563  0.0335  0.0360
 1507OCT     C2 3014  13.590   5.635   1.119  0.0078 -0.1221  0.1069
 1508OCT     C1 3015  11.349   1.522  14.461 -0.1844 -0.0799 -0.0740
 1508OCT     C2 3016  11.702   1.715  14.299 -0.5603 -0.0463  0.1620
 1509OCT     C1 3017  12.413   9.137   1.171 -0.4235 -0.1920  0.2603
 1509OCT     C2 3018  12.473   9.322   0.746 -0.2036 -0.4418 -0.1865
 1510OCT     C1 3019  16.161  10.115  16.592 -0.0458  0.1467  0.3415
 1510OCT     C2 3020  16.135  10.451  16.913 -0.4247 -0.1053  0.0369
 1511OCT     C1 3021  16.842   5.728   1.776 -0.4204 -0.2000 -0.0895
 1511OCT     C2 3022  16.575   5.415   1.686 -0.0148  0.0225  0.0094
 1512OCT     C1 3023   0.800   2.866  22.038 -0.0228  0.0014  0.1206
 1512OCT     C2 3024   1.208   2.725  21.812 -0.2424  0.2343 -0.0360
 1513OCT     C1 3025  22.102  16.809  17.711 -0.3459 -0.0042 -0.0546
 1513OCT     C2 3026  22.084  17.251  17.843  0.1307  0.2379 -0.0299
 1514OCT     C1 3027  15.756   0.567   0.666  0.3268 -0.0209 -0.0613
 1514OCT     C2 3028  16.092   0.548   0.285 -0.1306 -0.1217 -0.2427
 1515OCT     C1 3029  18.532   6.647  21.306 -0.0067 -0.3720  0.1994
 1515OCT     C2 3030  18.905   6.801  21.495  0.4409  0.2718  0.1594
 1516OCT     C1 3031  23.594  19.837  17.231  0.0842 -0.2803  0.0700
 1516OCT     C2 3032  23.735  19.478  16.961 -0.3378 -0.0560  0.0688
 1517OCT     C1 3033  15.988   9.395   3.061 -0.0178 -0.1391 -0.0407
 1517OCT     C2 3034  16.457   9.372   3.175 -0.1305 -0.0446 -0.5484
 1518OCT     C1 3035   9.303  20.259  18.779  0.4082  0.2019 -0.1286
 1518OCT     C2 3036   9.625  20.468  18.605 -0.2122 -0.1521  0.4464
 1519OCT     C1 3037   4.723  11.120  15.004  0.1149 -0.0047 -0.1085
 1519OCT     C2 3038   5.147  11.308  15.058  0.1438 -0.0749 -0.1348
 1520OCT     C1 3039  22.999   6.597   2.216  0.1016  0.1966  0.0060
 1520OCT     C2 3040  22.889   6.658   2.678 -0.1713  0.1274  0.2242
 1521OCT     C1 3041  10.762  18.077  22.523 -0.0849  0.2887  0.0271
 1521OCT     C2 3042  10.877  17.614  22.600 -0.2854 -0.1669  0.0187
 1522OCT     C1 3043   7.844  15.324   9.434  0.1440  0.1092  0.0453
 1522OCT     C2 3044   7.434  15.035   9.319  0.1647 -0.0099  0.0290
 1523OCT     C1 3045  14.841  13.788   1.990  0.0468  0.2643 -0.0537
 1523OCT     C2 3046  14.430  14.027   1.953  0.0711  0.3312  0.1789
 1524OCT     C1 3047   5.415   2.369  22.474 -0.1042  0.0180 -0.2503
 1524OCT     C2 3048   5.465   2.831  22.387 -0.2433  0.1384  0.3161
 1525OCT     C1 3049  21.113   9.115   5.140  0.0108 -0.2462 -0.2417
 1525OCT     C2 3050  20.847   8.773   5.263 -0.1106  0.0007  0.4541
 1526OCT     C1 3051   6.379   0.147  17.896  0.2652  0.3643  0.2043
 1526OCT     C2 3052   6.044   0.303  18.198  0.2515 -0.2007  0.1014
 1527OCT     C1 3053   1.713   7.014   7.504 -0.5067  0.0367 -0.3991
 1527OCT     C2 3054   1.499   7.077   7.900 -0.1512 -0.0969  0.1733
 1528OCT     C1 3055   9.349  11.409  11.461 -0.1038  0.1201  0.0990
 1528OCT     C2 3056   9.045  11.715  11.406  0.1551 -0.4406 -0.0542
 1529OCT     C1 3057  12.013   3.072  20.732  0.2183  0.1378  0.0121
 1529OCT     C2 3058  12.290   3.164  21.110  0.1817 -0.0597  0.0678
 1530OCT     C1 3059  17.610  17.182  12.477  0.0801  0.2643 -0.2733
 1530OCT     C2 3060  17.556  17.090  12.933  0.0084 -0.2541 -0.1739
 1531OCT     C1 3061  21.692   2.189  18.193 -0.1787  0.1551 -0.1456
 1531OCT     C2 3062  21.239   2.097  18.224 -0.0849  0.0012  0.2945
 1532OCT     C1 3063   0.128   0.900  10.525  0.0808  0.1394  0.2390
 1532OCT     C2 3064   0.325   1.305  10.384  0.1368  0.1754 -0.0881
 1533OCT     C1 3065  13.112  22.267  20.648  0.1733  0.1390  0.0607
 1533OCT     C2 3066  13.432  22.308  20.935 -0.1166  0.0609 -0.3660
 1534OCT     C1 3067  13.652  20.165  16.415  0.2239  0.2646 -0.0110
 1534OCT     C2 3068  13.235  20.285  16.205 -0.1632  0.1391 -0.1194
 1535OCT     C1 3069  23.556   3.318   2.549  0.0637  0.2868 -0.3648
 1535OCT     C2 3070  23.163   3.493   2.342  0.1885 -0.0667  0.0136
 1536OCT     C1 3071   7.955   2.312   4.876  0.1726  0.0535 -0.0445
 1536OCT     C2 3072   7.763   2.226   5.262 -0.2950 -0.0611  0.0164
 1537OCT     C1 3073   4.971  14.764  12.993  0.2296 -0.2645  0.0877
 1537OCT     C2 3074   5.161  14.405  12.776  0.2408  0.2475  0.1917
 1538OCT     C1 3075  14.581  22.148  15.602 -0.2943 -0.3288  0.2586
 1538OCT     C2 3076  14.395  21.696  15.559 -0.0701 -0.3159 -0.2317
 1539OCT     C1 3077   6.310   8.910   3.499 -0.4196  0.1249  0.0073
 1539OCT     C2 3078   6.359   9.331   3.805 -0.1398 -0.1292 -0.2021
 1540OCT     C1 3079  17.536   7.231  19.713 -0.0893  0.0303  0.1434
 1540OCT     C2 3080  17.421   7.084  19.245 -0.0526 -0.3595  0.2779
 1541OCT     C1 3081  12.385  22.912  18.925 -0.0372  0.1998 -0.1140
 1541OCT     C2 3082  11.974  22.951  19.072 -0.0787 -0.0723 -0.1705
 1542OCT     C1 3083  14.324   6.116  19.939 -0.0634  0.4654 -0.1876
 1542OCT     C2 3084  14.713   6.224  20.033 -0.3094  0.2461 -0.0082
 1543OCT     C1 3085  22.659  10.175  23.324 -0.1834  0.2086 -0.1320
 1543OCT     C2 3086  22.704  10.507  23.025  0.0045 -0.3485 -0.1422
 1544OCT     C1 3087  18.638  12.539   5.037  0.0796 -0.2995  0.0725
 1544OCT     C2 3088  19.167  12.359   5.105  0.0033 -0.3774 -0.1736
 1545OCT     C1 3089  20.591  23.701  21.479  0.0791  0.0005 -0.2290
 1545OCT     C2 3090  20.381  23.493  21.831 -0.0537 -0.4649  0.0103
 1546OCT     C1 3091   9.152  15.834  13.932  0.0529 -0.1472 -0.4888
 1546OCT     C2 3092   9.392  15.886  13.565  0.0303  0.2116 -0.0052
 1547OCT     C1 3093   0.671  18.331  23.727  0.0497  0.1075  0.0734
 1547OCT     C2 3094   1.014  18.533   0.294 -0.0591  0.1670 -0.1594
 1548OCT     C1 3095  21.679   8.254  12.481  0.1780 -0.4301  0.0445
 1548OCT     C2 3096  21.194   8.460  12.473 -0.1666 -0.0721  0.0606
 1549OCT     C1 3097  15.992   7.401  16.682  0.1666 -0.0052 -0.0842
 1549OCT     C2 3098  16.223   7.586  17.036 -0.2892  0.4010  0.2185
 1550OCT     C1 3099   3.653   4.299   9.032 -0.0503 -0.2292 -0.1662
 1550OCT     C2 3100   3.234   4.470   8.888 -0.0009 -0.1677  0.0161
 1551OCT     C1 3101  11.657   2.869  23.540  0.0106  0.1549 -0.1153
 1551OCT     C2 3102  11.695   2.735  23.075  0.0552 -0.1924 -0.2180
 1552OCT     C1 3103   0.864  20.680  18.687  0.0665 -0.0588  0.0645
 1552OCT     C2 3104   1.200  20.942  18.698  0.2054 -0.2718  0.1021
 1553OCT     C1 3105   6.324   9.171  14.759  0.1449 -0.0053 -0.1238
 1553OCT     C2 3106   6.076   9.464  15.020  0.2135  0.1046 -0.1536
 1554OCT     C1 3107   4.686  13.828   6.852  0.0905 -0.0792  0.0929
 1554OCT     C2 3108   5.028  13.805   7.195  0.0243 -0.2985 -0.0245
 1555OCT     C1 3109  16.953   4.453  15.870 -0.0945 -0.0965 -0.4080
 1555OCT     C2 3110  17.308   4.698  15.961 -0.0529 -0.0953  0.1524
 1556OCT     C1 3111  12.211  12.214  21.863 -0.0545 -0.2362 -0.1387
 1556OCT     C2 3112  12.219  11.858  22.140  0.1906 -0.0410  0.1065
 1557OCT     C1 3113  22.147   7.085  21.315 -0.0388  0.0124  0.0010
 1557OCT     C2 3114  21.789   7.282  21.057 -0.0595  0.1059  0.0947
 1558OCT     C1 3115   2.566  16.910  23.592  0.4186 -0.1573 -0.3592
 1558OCT     C2 3116   2.175  16.820   0.085  0.0302  0.1130 -0.1697
 1559OCT     C1 3117   7.445  11.257  19.773  0.0350 -0.0048  0.0203
 1559OCT     C2 3118   7.817  11.009  19.544 -0.0817 -0.5652  0.0726
 1560OCT     C1 3119   2.742   2.458   0.980  0.4571  0.0996  0.1541
 1560OCT     C2 3120   2.975   2.111   0.910  0.1355  0.1719 -0.1045
 1561OCT     C1 3121   1.800  20.408  21.930  0.2816 -0.2483 -0.5763
 1561OCT     C2 3122   2.121  20.816  21.955  0.0784 -0.1411 -0.4139
 1562OCT     C1 3123  13.255   0.983   4.383  0.4729 -0.3745 -0.1466
 1562OCT     C2 3124  13.373   0.622   4.224  0.0532  0.1076  0.2405
 1563OCT     C1 3125   4.519  19.211   0.807 -0.2058  0.1580  0.5370
 1563OCT     C2 3126   4.494  19.659   0.752  0.0495  0.1390  0.0223
 1564OCT     C1 3127   1.113  13.188   2.246 -0.1982 -0.1183  0.1997
 1564OCT     C2 3128   0.879  12.828   2.407 -0.0635  0.0650 -0.0763
 1565OCT     C1 3129  16.995  11.897  16.281  0.3411  0.1311 -0.0235
 1565OCT     C2 3130  16.925  12.141  16.685  0.1891  0.3720 -0.2239
 1566OCT     C1 3131   4.015  21.847  22.998 -0.1458 -0.0195 -0.1604
 1566OCT     C2 3132   4.106  22.001  23.455  0.0042 -0.0773  0.2826
 1567OCT     C1 3133  12.526  16.782   7.406  0.3512 -0.3014 -0.3302
 1567OCT     C2 3134  12.786  16.446   7.394 -0.1690 -0.0618 -0.1546
 1568OCT     C1 3135   3.779  11.005  22.048  0.4053 -0.1426 -0.1128
 1568OCT     C2 3136   3.888  11.123  21.618  0.0914 -0.3450  0.0777
 1569OCT     C1 3137  14.420   5.457  13.973  0.1576 -0.1773  0.0752
 1569OCT     C2 3138  14.243   5.372  13.580  0.1172 -0.0847  0.0731
 1570OCT     C1 3139  14.235  14.860  21.123  0.2733  0.0858 -0.0059
 1570OCT     C2 3140  13.911  14.865  21.482  0.2693 -0.0307 -0.1699
 1571OCT     C1 3141   7.632   4.155  16.293 -0.0562 -0.0895 -0.2964
 1571OCT     C2 3142   7.839   3.937  15.999 -0.2923 -0.1502  0.0293
 1572OCT     C1 3143   9.388   4.444   7.848 -0.2644  0.1084 -0.1376
 1572OCT     C2 3144   9.082   4.747   7.600 -0.2255  0.2141 -0.1318
 1573OCT     C1 3145  19.802   8.666   2.865 -0.0377 -0.3293  0.3650
 1573OCT     C2 3146  20.245   8.616   3.007  0.1153 -0.2475 -0.0318
 1574OCT     C1 3147   5.415   1.067  10.825  0.1693 -0.0757  0.0676
 1574OCT     C2 3148   5.314   1.329  10.429  0.2692  0.2235  0.2768
 1575OCT     C1 3149  22.851  19.760  16.731 -0.0284  0.3187 -0.1764
 1575OCT     C2 3150  23.231  19.922  16.870 -0.2632  0.2622 -0.2012
 1576OCT     C1 3151  13.555   3.546   8.651 -0.1618 -0.1227  0.0790
 1576OCT     C2 3152  13.410   3.497   9.058  0.1564 -0.1460  0.1728
 1577OCT     C1 3153  15.590  12.716   9.622 -0.0282 -0.0885  0.0180
 1577OCT     C2 3154  15.478  12.305   9.769  0.1863 -0.0730 -0.3183
 1578OCT     C1 3155   1.147  11.866  16.130 -0.0301  0.2322  0.1142
 1578OCT     C2 3156   1.291  11.810  15.646  0.0477  0.0445  0.0392
 1579OCT     C1 3157  15.490  22.012   8.141 -0.0113 -0.1275 -0.0870
 1579OCT     C2 3158  15.244  22.164   8.518  0.2046  0.0094  0.0996
 1580OCT     C1 3159   4.682   4.010   8.936 -0.0982 -0.0306  0.1017
 1580OCT     C2 3160   4.261   4.007   9.183  0.2802 -0.0846 -0.0191
 1581OCT     C1 3161  20.891  18.456  19.192 -0.3147 -0.3422  0.1178
 1581OCT     C2 3162  20.850  18.537  18.725 -0.2124 -0.1732  0.1871
 1582OCT     C1 3163   0.291  16.740   6.915  0.1852  0.1503  0.3464
 1582OCT     C2 3164  23.559  16.804   6.846 -0.2088 -0.0545  0.1654
 1583OCT     C1 3165   8.380  19.743  15.491 -0.2204  0.0545 -0.0271
 1583OCT     C2 3166   7.972  19.473  15.535  0.2275  0.0367  0.3450
 1584OCT     C1 3167   1.951  22.720   9.069  0.0942 -0.1211  0.1708
 1584OCT     C2 3168   1.936  22.412   8.702 -0.1125  0.0342  0.0385
 1585OCT     C1 3169   5.948  18.650  15.787 -0.0460  0.3121 -0.2354
 1585OCT     C2 3170   6.209  18.593  15.435  0.4526  0.0419  0.0905
 1586OCT     C1 3171  11.185  19.418  21.564 -0.2739 -0.4881  0.0512
 1586OCT     C2 3172  11.567  19.631  21.614  0.2921 -0.1324 -0.0338
 1587OCT     C1 3173  13.672  11.836  14.643  0.2308  0.1009 -0.0281
 1587OCT     C2 3174  13.253  11.988  14.555  0.0636  0.3811  0.1658
 1588OCT     C1 3175  16.424  14.322   7.802 -0.1443 -0.1705 -0.1120
 1588OCT     C2 3176  16.238  14.224   7.381  0.2115 -0.1316  0.1813
 1589OCT     C1 3177  19.005   8.635   7.648 -0.0107  0.0736 -0.3359
 1589OCT     C2 3178  19.313   8.966   7.598  0.0420 -0.0725  0.1615
 1590OCT     C1 3179   8.439   7.889   2.800  0.3022  0.1859 -0.0768
 1590OCT     C2 3180   8.001   8.093   2.835  0.1785  0.0166  0.3395
 1591OCT     C1 3181   2.233  18.591   8.444 -0.1153 -0.3267 -0.2238
 1591OCT     C2 3182   2.280  18.137   8.398  0.1971  0.1282 -0.0146
 1592OCT     C1 3183  14.643  20.191  16.060  0.0539 -0.1029 -0.0807
 1592OCT     C2 3184  15.063  20.039  16.187 -0.4191 -0.3871 -0.0204
 1593OCT     C1 3185  14.967  22.164  11.554  0.2907  0.0205 -0.1832
 1593OCT     C2 3186  15.157  22.341  11.952  0.2846  0.2294 -0.0078
 1594OCT     C1 3187  18.174  17.533  10.466 -0.1070 -0.0138 -0.3020
 1594OCT     C2 3188  18.246  17.982  10.643  0.0030 -0.2429 -0.1747
 1595OCT     C1 3189  13.084   1.512   5.706  0.0853 -0.1593 -0.4021
 1595OCT     C2 3190  13.414   1.877   5.837  0.1828 -0.0719  0.0459
 1596OCT     C1 3191  18.712   4.482  20.918 -0.1129  0.0640 -0.1052
 1596OCT     C2 3192  18.753   4.067  21.151 -0.0873 -0.0511  0.2371
 1597OCT     C1 3193  16.112   2.979  16.937  0.0048  0.0868  0.1056
 1597OCT     C2 3194  15.734   3.146  16.703  0.0348  0.0309 -0.0901
 1598OCT     C1 3195  17.503  11.322  12.488 -0.0618  0.1166  0.0035
 1598OCT     C2 3196  17.799  11.418  12.819  0.0788 -0.0175  0.3861
 1599OCT     C1 3197   0.744   7.402  13.103  0.1037 -0.0000  0.1479
 1599OCT     C2 3198   0.968   7.656  12.739 -0.2632 -0.2918 -0.0164
 1600OCT     C1 3199   8.791   3.356  10.271  0.2406  0.2641 -0.3304
 1600OCT     C2 3200   8.916   3.266  10.766 -0.1374 -0.0385  0.1605
 1601OCT     C1 3201   9.010   2.592   1.324 -0.1783 -0.3665 -0.1922
 1601OCT     C2 3202   8.663   2.541   1.649 -0.0616 -0.2126 -0.1858
 1602OCT     C1 3203   5.723   4.315  12.128 -0.0149 -0.0631 -0.4238
 1602OCT     C2 3204   5.745   4.186  11.698 -0.0866 -0.3125 -0.0059
 1603OCT     C1 3205  21.491  11.962  10.402  0.0505  0.2725  0.1036
 1603OCT     C2 3206  21.702  11.936  10.000 -0.1495  0.5407  0.2778
 1604OCT     C1 3207  12.622  15.073   9.355  0.0986  0.3369  0.0042
 1604OCT     C2 3208  12.320  15.384   9.345 -0.0033 -0.0393 -0.1254
 1605OCT     C1 3209  22.457   8.232   1.550 -0.2253 -0.1548  0.1345
 1605OCT     C2 3210  22.429   7.777   1.551 -0.0576  0.1633 -0.0777
 1606OCT     C1 3211  23.626  22.617   7.677 -0.1720 -0.2387 -0.4027
 1606OCT     C2 3212   0.246  22.938   7.695  0.1612 -0.0149  0.0713
 1607OCT     C1 3213   3.982  15.189   4.150 -0.0606 -0.1898 -0.0409
 1607OCT     C2 3214   3.546  15.303   4.258  0.3375 -0.1766  0.0740
 1608OCT     C1 3215   8.657  18.360  11.979 -0.1054 -0.2934  0.1603
 1608OCT     C2 3216   8.883  17.956  11.895  0.0118  0.4933 -0.1025
 1609OCT     C1 3217  13.507  21.829  23.021  0.1698 -0.1496  0.3050
 1609OCT     C2 3218  13.200  22.038  22.699 -0.1108  0.2679  0.0296
 1610OCT     C1 3219   4.144  19.991   4.710 -0.0389  0.1708 -0.0846
 1610OCT     C2 3220   4.446  19.799   4.415 -0.0563 -0.0954  0.1934
 1611OCT     C1 3221   6.347  16.141  12.284 -0.0093 -0.3546 -0.0036
 1611OCT     C2 3222   5.904  16.252  12.462 -0.0648 -0.0679 -0.4329
 1612OCT     C1 3223   6.937  18.577  21.857 -0.0345  0.0433  0.1802
 1612OCT     C2 3224   7.106  18.350  22.310 -0.0136  0.0676  0.2538
 1613OCT     C1 3225   6.782   6.084  17.610 -0.2722 -0.4906  0.0381
 1613OCT     C2 3226   6.709   6.368  17.974  0.0608 -0.1229  0.1786
 1614OCT     C1 3227  10.852  19.145   1.600 -0.1913  0.4468 -0.2105
 1614OCT     C2 3228  10.731  19.085   2.047  0.1913 -0.0461  0.1523
 1615OCT     C1 3229  15.925  10.841  19.446  0.0106  0.2073  0.1676
 1615OCT     C2 3230  15.999  10.721  19.861 -0.1785  0.1324 -0.7109
 1616OCT     C1 3231   0.626  11.354   0.034  0.3687  0.0022  0.0085
 1616OCT     C2 3232   0.666  11.847   0.053  0.3933 -0.0520 -0.1440
 1617OCT     C1 3233   8.562   2.214   3.991  0.4057  0.2061 -0.0764
 1617OCT     C2 3234   8.131   2.437   3.998 -0.0332  0.1040  0.1601
 1618OCT     C1 3235   2.572   9.117  19.064 -0.3450  0.3186  0.1971
 1618OCT     C2 3236   2.839   8.888  19.368 -0.0453  0.0038  0.0089
 1619OCT     C1 3237   6.013   1.572   4.778 -0.2406 -0.1825 -0.1781
 1619OCT     C2 3238   5.922   1.252   5.115  0.2446  0.0532  0.2608
 1620OCT     C1 3239   1.212   1.532   2.054 -0.1346 -0.0424 -0.0001
 1620OCT     C2 3240   1.203   1.968   1.968 -0.2070  0.3035  0.0392
 1621OCT     C1 3241   7.955  23.166   2.781 -0.0287  0.1832  0.0514
 1621OCT     C2 3242   8.172  23.490   3.008 -0.2317 -0.2582 -0.1990
 1622OCT     C1 3243  23.458   4.413  18.063  0.0588 -0.3169  0.1691
 1622OCT     C2 3244   0.017   4.436  18.424 -0.1513  0.0088  0.1561
 1623OCT     C1 3245   6.960  21.179  23.202 -0.0142 -0.0990 -0.1725
 1623OCT     C2 3246   6.935  21.444  23.594 -0.1225  0.2367  0.2789
 1624OCT     C1 3247  20.989  11.060   0.658 -0.0336 -0.0160  0.0565
 1624OCT     C2 3248  20.541  10.943   0.842 -0.0332  0.2279 -0.2858
 1625OCT     C1 3249  14.555  10.647   1.129 -0.1266 -0.3534  0.1713
 1625OCT     C2 3250  14.864  10.546   1.456 -0.1237 -0.1606  0.1333
 1626OCT     C1 3251   9.762  14.344  16.803 -0.0805 -0.4105 -0.1223
 1626OCT     C2 3252   9.932  13.898  16.666  0.0971  0.1942 -0.2269
 1627OCT     C1 3253   9.117   6.385   3.811  0.1263 -0.0604 -0.0749
 1627OCT     C2 3254   8.960   6.856   3.800  0.1645  0.0385  0.1383
 1628OCT     C1 3255  23.345   4.863   0.762  0.2623 -0.2121  0.3141
 1628OCT     C2 3256  22.930   5.116   0.750 -0.0305 -0.2960  0.1785
 1629OCT     C1 3257   7.234   3.857   1.218  0.1554 -0.2653  0.1982
 1629OCT     C2 3258   7.154   3.915   0.745  0.0653  0.1754 -0.1405
 1630OCT     C1 3259  10.763  15.238   8.717  0.0592  0.2224 -0.0432
 1630OCT     C2 3260  10.675  15.110   8.275 -0.2658 -0.0491  0.0747
 1631OCT     C1 3261   5.704   4.983  19.032  0.2441 -0.1165 -0.1741
 1631OCT     C2 3262   5.647   4.536  19.017 -0.1277 -0.1601 -0.0454
 1632OCT     C1 3263  20.632  15.533   4.911 -0.3146  0.1287  0.0323
 1632OCT     C2 3264  20.866  15.901   5.001  0.2093  0.4235 -0.1930
 1633OCT     C1 3265  20.495  18.838   5.080 -0.1947  0.0447 -0.0366
 1633OCT     C2 3266  20.759  19.225   5.199  0.4217  0.1220  0.1571
 1634OCT     C1 3267   8.910   3.576  21.268 -0.3231  0.3322  0.2340
 1634OCT     C2 3268   9.353   3.676  21.389  0.0735 -0.1315 -0.0856
 1635OCT     C1 3269  20.235  13.430  23.495  0.1687 -0.4020  0.1187
 1635OCT     C2 3270  20.370  13.461   0.183 -0.0368 -0.2419  0.4224
 1636OCT     C1 3271  20.645  12.824   3.502  0.1704  0.1140  0.1660
 1636OCT     C2 3272  20.687  12.358   3.532 -0.3094  0.1837 -0.2966
 1637OCT     C1 3273  23.357   9.546   1.527  0.1723  0.2219  0.0736
 1637OCT     C2 3274  23.194   9.384   1.103 -0.1774  0.1013 -0.1520
 1638OCT     C1 3275  14.061  17.819  13.032 -0.0176 -0.0714  0.2462
 1638OCT     C2 3276  14.324  18.107  13.200 -0.1702 -0.1015 -0.1573
 1639OCT     C1 3277  23.700  22.420  20.727  0.3184  0.0696 -0.1182
 1639OCT     C2 3278  23.531  22.072  20.920 -0.2169  0.0800 -0.0067
 1640OCT     C1 3279  19.578  23.313   2.109  0.1706 -0.0386 -0.0041
 1640OCT     C2 3280  19.702  23.634   1.860 -0.1872 -0.6117  0.0417
 1641OCT     C1 3281  21.484  10.436   5.069 -0.0070  0.1304 -0.5144
 1641OCT     C2 3282  21.223  10.786   4.848  0.1531  0.3023  0.3309
 1642OCT     C1 3283  10.291  18.766  21.326  0.2646 -0.0463  0.4284
 1642OCT     C2 3284  10.251  18.310  21.330  0.4749 -0.1402 -0.0828
 1643OCT     C1 3285   2.145  17.568   6.585 -0.2642  0.2030 -0.3071
 1643OCT     C2 3286   1.991  17.847   6.954  0.2620  0.1225  0.2754
 1644OCT     C1 3287   5.840  20.952   5.776 -0.0784 -0.1670  0.1212
 1644OCT     C2 3288   5.881  21.085   5.314  0.1703 -0.0343 -0.1973
 1645OCT     C1 3289   0.185  11.948   8.146 -0.1010 -0.1708  0.3273
 1645OCT     C2 3290   0.468  12.300   8.158  0.3283  0.1904 -0.1547
 1646OCT     C1 3291   7.118   0.452   2.890  0.1867  0.0550 -0.1916
 1646OCT     C2 3292   7.350   0.035   2.985 -0.1208  0.0665 -0.1901
 1647OCT     C1 3293   0.169   9.299  18.221 -0.3027 -0.3574  0.1786
 1647OCT     C2 3294   0.433   8.958  18.263  0.3291 -0.1024  0.1210
 1648OCT     C1 3295   5.769  21.307  20.944 -0.0838 -0.1757 -0.2176
 1648OCT     C2 3296   6.174  21.544  20.811 -0.0591 -0.2081  0.1362
 1649OCT     C1 3297   5.263   0.120  23.230  0.1787 -0.0769 -0.1865
 1649OCT     C2 3298   5.134   0.333  23.618 -0.0638  0.1982 -0.2484
 1650OCT     C1 3299  17.682   3.436  23.132  0.1526 -0.2392 -0.1264
 1650OCT     C2 3300  18.076   3.579  22.959 -0.0442 -0.1269  0.0427
 1651OCT     C1 3301   9.647  14.350  21.394 -0.2020 -0.0097 -0.0023
 1651OCT     C2 3302   9.220  14.229  21.271 -0.2035 -0.3977 -0.0499
 1652OCT     C1 3303  19.066  15.440   2.745 -0.0150  0.0459 -0.0130
 1652OCT     C2 3304  19.202  15.015   2.740 -0.1726  0.3913  0.0362
 1653OCT     C1 3305  22.822  13.203   2.310  0.3209 -0.0712  0.2812
 1653OCT     C2 3306  22.602  13.528   2.094 -0.1827  0.0136 -0.3305
 1654OCT     C1 3307  11.020  17.366   2.978  0.0883  0.4240  0.0534
 1654OCT     C2 3308  11.163  17.542   3.418  0.1650  0.0220  0.0104
 1655OCT     C1 3309  14.239  22.116  12.470  0.0542  0.3337 -0.0979
 1655OCT     C2 3310  13.862  22.349  12.501 -0.1477 -0.0062  0.6088
 1656OCT     C1 3311  20.473   1.958   0.109  0.0706  0.5043  0.0566
 1656OCT     C2 3312  20.584   1.807  23.427 -0.4561 -0.2198  0.1043
 1657OCT     C1 3313   7.674  18.653   2.313  0.0381 -0.1424  0.0374
 1657OCT     C2 3314   7.619  18.235   2.429  0.0468 -0.0401  0.0329
 1658OCT     C1 3315   0.843  12.188  14.575  0.0540  0.4863  0.3716
 1658OCT     C2 3316   0.403  12.261  14.810  0.2622  0.1009 -0.0327
 1659OCT     C1 3317   8.168   9.861  22.880  0.4447  0.0492  0.1717
 1659OCT     C2 3318   7.737   9.911  22.716 -0.4699 -0.0856 -0.3658
 1660OCT     C1 3319   4.244  17.142  17.166  0.2589  0.0584 -0.4186
 1660OCT     C2 3320   4.273  16.714  17.312 -0.0873 -0.0210  0.0088
 1661OCT     C1 3321  19.615   5.133   1.579 -0.0005 -0.3635 -0.2650
 1661OCT     C2 3322  20.030   4.961   1.610 -0.1808  0.2777  0.1636
 1662OCT     C1 3323  11.250  13.832  18.009 -0.0217  0.0314  0.1004
 1662OCT     C2 3324  11.355  13.411  18.197 -0.1168 -0.1121  0.3106
 1663OCT     C1 3325  10.334  12.967   2.504  0.3074  0.1605 -0.1786
 1663OCT     C2 3326  10.698  12.622   2.487  0.2472 -0.0909  0.0529
 1664OCT     C1 3327  11.534   9.911  18.226 -0.1889  0.0724 -0.3307
 1664OCT     C2 3328  11.880  10.058  18.525 -0.1403  0.0355  0.0249
 1665OCT     C1 3329   9.414   3.315  19.687  0.0702  0.2322 -0.0373
 1665OCT     C2 3330   9.459   2.872  19.841  0.2307  0.2036  0.2508
 1666OCT     C1 3331  23.265  19.334  21.942 -0.0343  0.1092  0.1362
 1666OCT     C2 3332  23.716  19.438  21.800  0.0969  0.1283  0.2129
 1667OCT     C1 3333  10.894  22.650   4.794 -0.2673 -0.3551  0.2233
 1667OCT     C2 3334  11.220  22.919   4.575  0.0209  0.1876  0.0423
 1668OCT     C1 3335  17.207   6.533  13.938 -0.0670  0.1799  0.0930
 1668OCT     C2 3336  16.739   6.588  13.854  0.1558  0.0881  0.0173
 1669OCT     C1 3337   9.592  23.564  18.104  0.0662 -0.1384  0.1062
 1669OCT     C2 3338   9.964  23.251  18.026  0.0789 -0.0652 -0.0005
 1670OCT     C1 3339  19.397   2.992   6.926  0.4225  0.0333 -0.1800
 1670OCT     C2 3340  19.340   3.263   6.632  0.0177  0.1996 -0.1878
 1671OCT     C1 3341  15.735   1.955  22.105 -0.5278  0.0976 -0.1063
 1671OCT     C2 3342  15.412   1.707  22.386 -0.0694  0.0477  0.0653
 1672OCT     C1 3343  12.863   9.848   4.492 -0.1863  0.0019 -0.0314
 1672OCT     C2 3344  12.821   9.423   4.593  0.3576  0.2079  0.0638
 1673OCT     C1 3345   5.155   0.014  21.414  0.2420  0.2644 -0.0071
 1673OCT     C2 3346   4.716  23.595  21.559  0.1209  0.1820  0.2767
 1674OCT     C1 3347   2.783  20.130   2.439 -0.1064  0.2627 -0.3915
 1674OCT     C2 3348   2.743  19.947   1.954 -0.1028  0.2401  0.3542
 1675OCT     C1 3349  21.507   6.596  19.825  0.1042  0.3427  0.3256
 1675OCT     C2 3350  21.086   6.746  19.658 -0.0794  0.0959  0.2061
 1676OCT     C1 3351  21.092  18.728   4.593 -0.4112  0.0407  0.0839
 1676OCT     C2 3352  21.102  18.204   4.626 -0.0142 -0.0987  0.0013
 1677OCT     C1 3353  20.606  10.418   4.647 -0.1054 -0.1513  0.2071
 1677OCT     C2 3354  21.002  10.353   4.833  0.0665 -0.2810  0.0264
 1678OCT     C1 3355   7.246  13.570   7.647  0.1295 -0.0672 -0.0950
 1678OCT     C2 3356   7.334  13.145   7.513  0.1019  0.1452 -0.2501
 1679OCT     C1 3357  20.416   7.450  14.651 -0.0761 -0.0090  0.1477
 1679OCT     C2 3358  19.997   7.715  14.719 -0.1820  0.1759  0.2253
 1680OCT     C1 3359  12.502  12.749   7.722  0.0740 -0.3782 -0.1695
 1680OCT     C2 3360  12.404  12.376   7.986  0.0259  0.1197 -0.0958
 1681OCT     C1 3361   8.690   6.851   9.643  0.4322  0.0643  0.1542
 1681OCT     C2 3362   8.506   7.014   9.241 -0.0448 -0.0238  0.0317
 1682OCT     C1 3363  22.986  11.783  11.034  0.0617 -0.0965  0.2281
 1682OCT     C2 3364  23.298  11.429  10.989 -0.1088 -0.0893  0.0154
 1683OCT     C1 3365  13.783   2.543  15.036 -0.1596  0.0485  0.2268
 1683OCT     C2 3366  13.969   2.577  14.585 -0.2723 -0.3603  0.0559
 1684OCT     C1 3367   6.597   5.434  20.557 -0.3982  0.1298  0.0617
 1684OCT     C2 3368   7.030   5.623  20.459  0.2481  0.0316 -0.0372
 1685OCT     C1 3369   8.258   1.628  22.906 -0.3294 -0.0049 -0.2288
 1685OCT     C2 3370   8.396   1.746  22.473  0.1036 -0.4163  0.0623
 1686OCT     C1 3371   7.431  15.487  23.203  0.2678  0.1629 -0.2065
 1686OCT     C2 3372   7.050  15.395  22.963 -0.3053 -0.3919 -0.1244
 1687OCT     C1 3373   0.471   2.670  17.670 -0.0147 -0.4243 -0.1086
 1687OCT     C2 3374   0.481   3.123  17.581 -0.1472 -0.0119  0.0295
 1688OCT     C1 3375  23.007  11.884   8.929  0.1113  0.0161  0.4033
 1688OCT     C2 3376  22.704  11.639   8.618  0.0558  0.0525  0.4978
 1689OCT     C1 3377  19.401  19.489   7.362 -0.0182 -0.2988 -0.2884
 1689OCT     C2 3378  19.324  19.792   7.706 -0.2433 -0.3876  0.2197
 1690OCT     C1 3379   1.460  13.278   8.625 -0.1893 -0.4935 -0.1526
 1690OCT     C2 3380   1.649  13.104   8.251 -0.1050  0.2703  0.0633
 1691OCT     C1 3381  14.556   9.776  14.811 -0.0736  0.1363  0.2379
 1691OCT     C2 3382  14.487  10.053  15.184  0.0346 -0.0448 -0.1931
 1692OCT     C1 3383  22.572  14.468  14.801 -0.3071  0.2230  0.1146
 1692OCT     C2 3384  22.151  14.349  14.521 -0.0525  0.0692  0.1114
 1693OCT     C1 3385   7.525  16.204   3.539  0.0178  0.0580 -0.2317
 1693OCT     C2 3386   7.279  16.229   3.152 -0.1135 -0.0056  0.0064
 1694OCT     C1 3387  16.973   7.322  22.861 -0.0554 -0.1894 -0.1697
 1694OCT     C2 3388  17.042   7.713  22.713  0.0861  0.1016  0.1920
 1695OCT     C1 3389   0.619  13.020   7.689 -0.1628 -0.1396 -0.0256
 1695OCT     C2 3390   0.644  12.976   8.172 -0.0544 -0.1643 -0.5975
 1696OCT     C1 3391  16.371   2.744   8.732 -0.4250 -0.3452 -0.5201
 1696OCT     C2 3392  16.162   3.132   8.876 -0.1023  0.0509 -0.1236
 1697OCT     C1 3393  12.196   4.893   9.446 -0.3604  0.0076  0.4301
 1697OCT     C2 3394  11.848   4.995   9.160 -0.2170 -0.2830 -0.0285
 1698OCT     C1 3395  20.945  15.218  19.854  0.1785  0.0363 -0.5118
 1698OCT     C2 3396  21.079  15.546  19.548 -0.0423 -0.0549  0.1158
 1699OCT     C1 3397   6.028  23.690  10.509  0.2657  0.0131 -0.2108
 1699OCT     C2 3398   5.963  23.389  10.123 -0.3415  0.3866 -0.1326
 1700OCT     C1 3399  18.645   0.553   7.905 -0.7363  0.0989  0.2200
 1700OCT     C2 3400  18.532   0.129   7.708 -0.0054  0.0372 -0.1573
 1701OCT     C1 3401  18.209  14.048   6.740 -0.1775  0.3551 -0.2590
 1701OCT     C2 3402  17.969  14.222   6.397  0.1351  0.0166 -0.3629
 1702OCT     C1 3403   3.943   3.324   8.912  0.4262 -0.0081  0.3891
 1702OCT     C2 3404   3.502   3.233   8.886  0.3150 -0.0875 -0.1494
 1703OCT     C1 3405  22.192  22.247  22.293  0.1077 -0.0219 -0.1406
 1703OCT     C2 3406  22.415  22.367  21.940 -0.1299 -0.1754  0.1168
 1704OCT     C1 3407  18.664  13.539  16.916 -0.1892 -0.0281  0.1377
 1704OCT     C2 3408  18.980  13.936  16.778 -0.0238 -0.1363 -0.2006
 1705OCT     C1 3409   7.701  12.839  11.314 -0.2230  0.1888  0.1068
 1705OCT     C2 3410   7.709  12.681  11.767  0.0983  0.0504  0.1414
 1706OCT     C1 3411  16.777   6.072   0.630  0.0690  0.0169 -0.0460
 1706OCT     C2 3412  17.049   6.418   0.701 -0.2695  0.2204 -0.2343
 1707OCT     C1 3413   7.096  14.898  19.680 -0.0332  0.1360 -0.2652
 1707OCT     C2 3414   7.406  15.020  20.039  0.0585  0.0790 -0.2627
 1708OCT     C1 3415   5.538   5.314   3.553  0.1736  0.1967 -0.0058
 1708OCT     C2 3416   5.775   4.956   3.752  0.0226 -0.0958  0.0339
 1709OCT     C1 3417   5.998  19.898  15.241  0.3366  0.2010  0.1867
 1709OCT     C2 3418   5.525  20.062  15.332  0.5257 -0.1348  0.4282
 1710OCT     C1 3419  18.326   1.722   1.848  0.1364  0.1759 -0.1159
 1710OCT     C2 3420  17.917   1.854   1.976  0.0828  0.0390  0.0112
 1711OCT     C1 3421   8.908   2.942   9.465  0.0823 -0.1194 -0.3964
 1711OCT     C2 3422   8.672   3.026   9.137  0.2347  0.2096  0.0551
 1712OCT     C1 3423  17.256  11.920   4.703  0.0301 -0.0159  0.1613
 1712OCT     C2 3424  17.101  11.519   4.511  0.1901  0.0144  0.2636
 1713OCT     C1 3425  22.881  23.461   0.232  0.2802 -0.4482  0.1878
 1713OCT     C2 3426  23.052  23.110   0.504 -0.1339 -0.0947  0.2025
 1714OCT     C1 3427  19.699  11.603  15.724 -0.3384  0.2264  0.3796
 1714OCT     C2 3428  19.389  11.874  15.834  0.0053 -0.2658 -0.0736
 1715OCT     C1 3429  16.890  14.482  16.724  0.1882 -0.0477 -0.1921
 1715OCT     C2 3430  16.913  14.548  17.202 -0.2120 -0.3047  0.0183
 1716OCT     C1 3431   9.254  23.657   3.029  0.1141  0.1119 -0.0991
 1716OCT     C2 3432   9.669  23.559   3.194 -0.0471  0.0227 -0.3557
 1717OCT     C1 3433  14.941   6.466  17.543  0.3088  0.0676 -0.1347
 1717OCT     C2 3434  14.503   6.471  17.416  0.1605  0.0002  0.0227
 1718OCT     C1 3435   2.157  10.380  18.643 -0.1247  0.0557 -0.0738
 1718OCT     C2 3436   2.442  10.726  18.821 -0.1434 -0.1178 -0.1131
 1719OCT     C1 3437  20.727  15.053   7.065  0.0520 -0.1439 -0.0067
 1719OCT     C2 3438  21.114  15.254   6.922 -0.0260 -0.0539 -0.3285
 1720OCT     C1 3439  18.906   6.439   1.026 -0.3509  0.3800 -0.1225
 1720OCT     C2 3440  19.026   6.673   0.588  0.0149 -0.0666 -0.4433
 1721OCT     C1 3441  21.593  18.020   6.236  0.0608  0.0093 -0.0569
 1721OCT     C2 3442  21.284  17.696   6.149  0.1282  0.6462  0.0899
 1722OCT     C1 3443   1.028  14.648   3.676 -0.1905 -0.0450 -0.0628
 1722OCT     C2 3444   1.193  14.269   3.417  0.3671  0.2925 -0.2926
 1723OCT     C1 3445  13.035  20.586  17.226  0.2274 -0.2675 -0.1164
 1723OCT     C2 3446  13.258  20.207  17.163  0.1186  0.1977 -0.1156
 1724OCT     C1 3447  23.145   1.511   3.432  0.0546 -0.1803 -0.1213
 1724OCT     C2 3448  23.431   1.269   3.729  0.4059  0.3551 -0.0679
 1725OCT     C1 3449   2.080  10.930  19.246  0.0502  0.2563 -0.0910
 1725OCT     C2 3450   2.163  11.103  19.676  0.1863  0.0577  0.1376
 1726OCT     C1 3451  21.666  19.491   3.904  0.2016 -0.1410 -0.4184
 1726OCT     C2 3452  22.075  19.295   3.735 -0.0576 -0.2334 -0.0571
 1727OCT     C1 3453   8.449   1.776   4.358 -0.2163  0.5122 -0.2579
 1727OCT     C2 3454   8.075   2.087   4.374 -0.0667  0.2963  0.0385
 1728OCT     C1 3455   9.336  17.639   9.637  0.0089 -0.1246  0.1430
 1728OCT     C2 3456   9.577  17.901   9.916  0.0474  0.0870 -0.0374
 1729OCT     C1 3457   7.433  21.179  21.149  0.1098  0.2597  0.0701
 1729OCT     C2 3458   7.875  21.192  21.368 -0.1925 -0.0869 -0.1699
 1730OCT     C1 3459  10.943   5.618   1.759  0.3216  0.0663 -0.0681
 1730OCT     C2 3460  10.629   5.888   1.558  0.0514 -0.1799  0.2417
 1731OCT     C1 3461   6.930   0.570   4.213  0.4430  0.0317 -0.1399
 1731OCT     C2 3462   7.031   0.475   4.656  0.1706  0.1973  0.0094
 1732OCT     C1 3463  16.707   9.938  18.568 -0.1927 -0.4056  0.1675
 1732OCT     C2 3464  16.343  10.077  18.868  0.1275  0.1218  0.1602
 1733OCT     C1 3465  16.005  14.506  16.295 -0.1393  0.1767  0.0186
 1733OCT     C2 3466  15.707  14.740  16.499 -0.0705  0.1506 -0.1064
 1734OCT     C1 3467   8.437   0.543   5.641  0.0770  0.1634  0.4390
 1734OCT     C2 3468   8.079   0.758   5.424 -0.0073  0.3932  0.0815
 1735OCT     C1 3469   7.246   5.928   3.925 -0.1502  0.1455  0.1149
 1735OCT     C2 3470   6.888   5.696   3.850  0.2856  0.1118 -0.0134
 1736OCT     C1 3471   9.511  17.230  15.807  0.1235  0.0187  0.0658
 1736OCT     C2 3472   9.606  17.177  16.287  0.0189 -0.0169 -0.0853
 1737OCT     C1 3473   4.758   2.614  16.779 -0.6323 -0.1564  0.1276
 1737OCT     C2 3474   4.378   2.447  16.991  0.1125  0.0918 -0.0513
 1738OCT     C1 3475  22.856  12.130   2.063  0.1513  0.0208  0.0588
 1738OCT     C2 3476  23.109  11.832   1.750  0.2608 -0.2110  0.1425
 1739OCT     C1 3477  14.352   3.814   4.719  0.2636  0.2103  0.0865
 1739OCT     C2 3478  14.730   3.929   4.471 -0.0028  0.0996 -0.2920
 1740OCT     C1 3479  10.073   2.077   8.344 -0.2560  0.2495 -0.0936
 1740OCT     C2 3480   9.987   1.732   8.690 -0.1432  0.3167  0.0641
 1741OCT     C1 3481   1.293   0.530   5.934 -0.2584 -0.0297  0.0696
 1741OCT     C2 3482   1.626   0.265   6.131 -0.6070  0.0813  0.0763
 1742OCT     C1 3483   2.640   7.417   1.509 -0.2199 -0.2485 -0.3076
 1742OCT     C2 3484   2.290   7.180   1.414  0.0332 -0.0658  0.0879
 1743OCT     C1 3485   5.683   7.803   8.616 -0.0268  0.1480 -0.3969
 1743OCT     C2 3486   5.657   8.247   8.440 -0.0396 -0.1033 -0.1411
 1744OCT     C1 3487  13.816   8.571  19.713  0.0216 -0.0411  0.1363
 1744OCT     C2 3488  13.735   9.024  19.804  0.1150 -0.1144  0.0358
 1745OCT     C1 3489  15.041  10.174  14.384 -0.5884 -0.4691  0.0950
 1745OCT     C2 3490  14.748  10.519  14.224  0.0843  0.1632 -0.2459
 1746OCT     C1 3491  10.400  20.415   6.570  0.5796 -0.0079 -0.1936
 1746OCT     C2 3492  10.008  20.596   6.719 -0.3035 -0.2439 -0.0381
 1747OCT     C1 3493   6.637  13.426   9.906  0.0215 -0.4274 -0.1152
 1747OCT     C2 3494   7.012  13.178  10.089  0.2082  0.1175  0.3451
 1748OCT     C1 3495   9.041   1.457  15.301 -0.3677 -0.0382  0.0437
 1748OCT     C2 3496   8.620   1.350  15.362 -0.1680 -0.1907 -0.3756
 1749OCT     C1 3497   7.733   9.313   2.072 -0.0334  0.0291 -0.1073
 1749OCT     C2 3498   8.123   9.338   2.306 -0.0840 -0.2868  0.4042
 1750OCT     C1 3499   2.842  17.291  23.463 -0.0059  0.1422  0.2313
 1750OCT     C2 3500   3.240  17.299  23.725 -0.0750 -0.0945 -0.0300
 1751OCT     C1 3501  23.613  17.971   0.807 -0.0474  0.1392 -0.0368
 1751OCT     C2 3502  23.290  17.729   0.549  0.0663  0.0960  0.0369
 1752OCT     C1 3503  15.304  22.936  22.083  0.2946 -0.0103 -0.0949
 1752OCT     C2 3504  15.026  23.108  21.814  0.2240  0.0832  0.1179
 1753OCT     C1 3505  23.402  21.267  10.650  0.2017 -0.1437  0.1733
 1753OCT     C2 3506  23.534  21.608  10.908  0.1873 -0.1283 -0.0404
 1754OCT     C1 3507  19.109   4.121   4.386  0.0048 -0.0321 -0.0116
 1754OCT     C2 3508  19.354   4.078   4.787  0.3496 -0.2716 -0.0610
 1755OCT     C1 3509   7.135   7.536   9.869  0.0026  0.0416 -0.2440
 1755OCT     C2 3510   7.092   7.146   9.615  0.4096  0.4738  0.0568
 1756OCT     C1 3511   9.012   9.383  20.906 -0.0452  0.1283 -0.2483
 1756OCT     C2 3512   8.859   8.946  20.885  0.3229 -0.0093 -0.1019
 1757OCT     C1 3513  23.051   4.870   9.111  0.1806  0.0610 -0.2864
 1757OCT     C2 3514  23.051   5.269   9.287 -0.0503  0.1487 -0.0273
 1758OCT     C1 3515  12.558  15.529   6.075  0.2711 -0.0330  0.1263
 1758OCT     C2 3516  12.831  15.714   6.386 -0.1799 -0.2096 -0.3070
 1759OCT     C1 3517   0.350   5.917  17.615  0.2032  0.1071  0.0385
 1759OCT     C2 3518   0.667   5.989  17.258  0.4155 -0.0012  0.1199
 1760OCT     C1 3519  13.944  17.187  21.344  0.2353  0.0703 -0.1368
 1760OCT     C2 3520  13.726  16.747  21.336 -0.3190  0.2414 -0.0037
 1761OCT     C1 3521  16.735  12.089  22.765  0.2817 -0.3558  0.1775
 1761OCT     C2 3522  16.881  12.061  22.272 -0.1692  0.1559 -0.0522
 1762OCT     C1 3523   2.422  14.722  20.193  0.3751 -0.1729 -0.0550
 1762OCT     C2 3524   2.283  14.581  19.744  0.1601  0.5525  0.2020
 1763OCT     C1 3525   2.935  10.140   6.932 -0.0069  0.3885  0.1537
 1763OCT     C2 3526   2.964   9.678   6.883  0.1031  0.0218  0.0714
 1764OCT     C1 3527  10.177  16.263  23.614 -0.1097 -0.1982  0.2120
 1764OCT     C2 3528  10.259  16.615   0.173 -0.0318 -0.0200 -0.0726
 1765OCT     C1 3529  19.305  15.330   1.395  0.0890  0.1002 -0.0071
 1765OCT     C2 3530  19.090  14.894   1.443 -0.2713 -0.0373 -0.1610
 1766OCT     C1 3531   8.482   7.182   0.415 -0.0897  0.2545 -0.1415
 1766OCT     C2 3532   8.264   7.486   0.081 -0.2707  0.2135 -0.0053
 1767OCT     C1 3533  21.829  11.858  12.710  0.0012 -0.2087  0.0567
 1767OCT     C2 3534  21.994  11.873  12.240  0.2222 -0.1895 -0.0261
 1768OCT     C1 3535   9.825   8.210  19.154  0.2089 -0.4129  0.4341
 1768OCT     C2 3536   9.802   8.146  18.670  0.3836  0.3803 -0.2795
 1769OCT     C1 3537   5.057  15.411   0.082  0.1875 -0.3649 -0.2291
 1769OCT     C2 3538   5.009  15.786  23.549  0.1293  0.3240  0.0346
 1770OCT     C1 3539  11.516   2.571  15.530  0.2143 -0.2065 -0.1582
 1770OCT     C2 3540  11.546   3.014  15.672 -0.0106  0.1119  0.3421
 1771OCT     C1 3541   1.953   4.622  13.949 -0.1669 -0.1228  0.1920
 1771OCT     C2 3542   1.687   5.012  14.160 -0.1645 -0.0209 -0.0727
 1772OCT     C1 3543  19.534  19.153  12.606 -0.0715 -0.0324 -0.4208
 1772OCT     C2 3544  19.358  18.769  12.712  0.0010 -0.0899 -0.3082
 1773OCT     C1 3545  20.994  10.235  23.398  0.2067  0.2602  0.4492
 1773OCT     C2 3546  20.595  10.306  23.630 -0.4733 -0.1931 -0.0730
 1774OCT     C1 3547  11.971  19.354   7.494 -0.3465  0.1821 -0.3771
 1774OCT     C2 3548  11.865  19.005   7.687 -0.1265 -0.0317 -0.1020
 1775OCT     C1 3549  14.704   4.286   4.014  0.0924 -0.0957 -0.0370
 1775OCT     C2 3550  14.729   3.872   3.761 -0.0946 -0.4801  0.1162
 1776OCT     C1 3551   0.081   3.233  20.024  0.2140  0.3180 -0.0199
 1776OCT     C2 3552  23.709   2.791  19.772 -0.0140 -0.3382  0.0453
 1777OCT     C1 3553  13.895   6.001  16.819  0.4442  0.0278 -0.0427
 1777OCT     C2 3554  13.798   6.393  17.039 -0.2897  0.0014  0.0265
 1778OCT     C1 3555   5.842  17.160  21.843 -0.0529  0.2179 -0.0134
 1778OCT     C2 3556   5.388  17.196  21.716 -0.0801 -0.1108 -0.0310
 1779OCT     C1 3557  15.322   5.335  20.106 -0.2540  0.1007 -0.0978
 1779OCT     C2 3558  15.497   4.970  20.390 -0.2941 -0.3058  0.1586
 1780OCT     C1 3559  22.224   3.216   2.694 -0.0784 -0.1183 -0.0429
 1780OCT     C2 3560  22.228   3.181   3.170 -0.1513 -0.2014 -0.0412
 1781OCT     C1 3561  23.066  20.917  15.464  0.1068  0.0081  0.2445
 1781OCT     C2 3562  22.998  20.519  15.784  0.3755  0.0114 -0.0295
 1782OCT     C1 3563  20.757  22.156  16.786  0.2574  0.1317  0.2834
 1782OCT     C2 3564  20.963  22.113  17.185  0.2250  0.2195 -0.0074
 1783OCT     C1 3565   9.202   7.736  19.750 -0.1940  0.1418 -0.0390
 1783OCT     C2 3566   8.695   7.714  19.784 -0.0945 -0.1170  0.2703
 1784OCT     C1 3567   8.663   4.738  15.158  0.1989  0.2424  0.2314
 1784OCT     C2 3568   8.404   4.435  15.400  0.1235 -0.0844  0.0445
 1785OCT     C1 3569  14.620   5.470  17.182 -0.1840 -0.3516 -0.3578
 1785OCT     C2 3570  14.671   5.961  17.197  0.0616 -0.0937 -0.2053
 1786OCT     C1 3571  21.897   6.427  17.271  0.1663 -0.1134 -0.0551
 1786OCT     C2 3572  21.734   6.869  17.308 -0.4647 -0.0944 -0.1291
 1787OCT     C1 3573  16.056  12.004   7.521  0.3728 -0.0516  0.1596
 1787OCT     C2 3574  16.462  12.133   7.399 -0.3156 -0.1365 -0.3879
 1788OCT     C1 3575   5.413  17.444  10.663  0.0158  0.0739 -0.3175
 1788OCT     C2 3576   5.534  17.623  10.261 -0.0495 -0.1895  0.4605
 1789OCT     C1 3577  17.034  11.864  20.739 -0.0494 -0.1658  0.1398
 1789OCT     C2 3578  17.033  11.461  21.005  0.0763  0.0028 -0.2514
 1790OCT     C1 3579   5.880  23.337  22.751 -0.2380  0.0065  0.0826
 1790OCT     C2 3580   6.254  23.174  22.577  0.2225  0.2937 -0.0330
 1791OCT     C1 3581  14.885  13.929  14.684 -0.0114  0.0555  0.0024
 1791OCT     C2 3582  14.670  13.597  14.516  0.3742  0.1090 -0.2487
 1792OCT     C1 3583  14.223   3.711  21.458 -0.0657  0.0368 -0.2577
 1792OCT     C2 3584  13.921   3.451  21.261  0.3498  0.3301 -0.4759
 1793OCT     C1 3585  21.819  12.736   8.693 -0.0029  0.4314  0.0383
 1793OCT     C2 3586  22.226  12.563   8.653  0.2800  0.0197  0.2185
 1794OCT     C1 3587  20.612   3.751   0.541  0.0450 -0.2465  0.0268
 1794OCT     C2 3588  20.220   3.733   0.261 -0.0075  0.1910  0.3579
 1795OCT     C1 3589   5.746  10.282  17.794  0.1704 -0.1865 -0.2602
 1795OCT     C2 3590   5.529  10.073  18.171  0.0502  0.0544 -0.0961
 1796OCT     C1 3591   5.108   1.852  12.541  0.1364 -0.1489 -0.1782
 1796OCT     C2 3592   5.471   1.674  12.334  0.1106  0.2416 -0.1301
 1797OCT     C1 3593   4.060  21.069   7.043 -0.0233  0.2366  0.1585
 1797OCT     C2 3594   3.620  21.054   6.835  0.1353 -0.0160 -0.0841
 1798OCT     C1 3595  18.548  17.421   1.399 -0.0457  0.0303 -0.0902
 1798OCT     C2 3596  18.494  17.570   0.955  0.2010  0.1619  0.0011
 1799OCT     C1 3597   4.382   2.134  11.284  0.2094 -0.2774  0.3033
 1799OCT     C2 3598   4.257   1.809  11.580 -0.0809 -0.2357 -0.0649
 1800OCT     C1 3599  11.741  10.232  12.942  0.0194  0.2391  0.0922
 1800OCT     C2 3600  12.005   9.858  13.065  0.1231  0.0691  0.3788
 1801OCT     C1 3601   7.919  19.465  14.336  0.1259 -0.1696 -0.2259
 1801OCT     C2 3602   7.782  19.139  14.633 -0.0821 -0.1975  0.0219
 1802OCT     C1 3603   9.302  21.191  11.058  0.4523 -0.0227  0.2815
 1802OCT     C2 3604   9.054  21.017  11.403  0.3570 -0.0604 -0.0800
 1803OCT     C1 3605  15.297  10.679  22.389  0.1515  0.0733 -0.5031
 1803OCT     C2 3606  15.312  10.289  22.697 -0.1552 -0.0711  0.0907
 1804OCT     C1 3607   8.121  20.185  12.366 -0.6395 -0.3114  0.0034
 1804OCT     C2 3608   8.408  20.514  12.428 -0.0378 -0.1024  0.0859
 1805OCT     C1 3609  15.682  13.017   4.833 -0.0514  0.0621 -0.2094
 1805OCT     C2 3610  15.225  13.120   4.804  0.0617  0.1652  0.1655
 1806OCT     C1 3611  15.412   5.920   9.332 -0.1395  0.0467  0.2811
 1806OCT     C2 3612  15.787   5.643   9.388  0.0957 -0.1434 -0.4414
 1807OCT     C1 3613  20.138  12.158   2.246 -0.0790 -0.0207 -0.2650
 1807OCT     C2 3614  20.497  12.165   1.950 -0.1337  0.4502 -0.1765
 1808OCT     C1 3615  13.448  22.310  13.100 -0.1609 -0.4035 -0.2368
 1808OCT     C2 3616  13.803  22.137  12.904 -0.1721 -0.1863  0.2901
 1809OCT     C1 3617  17.808  14.729  20.846  0.1461 -0.0007  0.5667
 1809OCT     C2 3618  17.855  14.591  20.362  0.0831  0.2055 -0.3329
 1810OCT     C1 3619  14.842   1.434   7.696  0.2044  0.0561  0.4028
 1810OCT     C2 3620  14.689   1.034   7.952 -0.3016 -0.0251 -0.0423
 1811OCT     C1 3621  13.332   8.698  11.425 -0.2134 -0.1997 -0.2755
 1811OCT     C2 3622  13.818   8.822  11.459  0.1806  0.1834 -0.1623
 1812OCT     C1 3623   6.313   6.639   6.364  0.3478 -0.0574 -0.3509
 1812OCT     C2 3624   6.549   6.752   6.738 -0.1575 -0.3266  0.0121
 1813OCT     C1 3625  13.692  15.992   6.396  0.2729  0.1943 -0.1794
 1813OCT     C2 3626  14.041  16.312   6.519  0.3878  0.0227  0.0440
 1814OCT     C1 3627   7.582  23.453   5.485 -0.3750  0.2119 -0.1901
 1814OCT     C2 3628   7.751   0.125   5.634  0.1698 -0.2094  0.0701
 1815OCT     C1 3629   7.295  13.085  13.651 -0.2735  0.0512 -0.1148
 1815OCT     C2 3630   7.737  12.840  13.647 -0.3491 -0.0489 -0.0123
 1816OCT     C1 3631   7.643   8.389  19.071 -0.0066  0.0612 -0.2917
 1816OCT     C2 3632   7.358   8.618  18.702 -0.0569 -0.1002 -0.2262
 1817OCT     C1 3633  22.166   1.995   4.302  0.4748  0.3922 -0.1838
 1817OCT     C2 3634  22.431   1.772   3.996  0.0673  0.1786 -0.1117
 1818OCT     C1 3635  10.427  12.037   5.393 -0.2999  0.0250  0.1608
 1818OCT     C2 3636  10.289  12.105   4.924 -0.0434  0.3768 -0.2645
 1819OCT     C1 3637  14.840   9.494  22.537 -0.2403  0.0219 -0.1959
 1819OCT     C2 3638  14.724   9.676  22.945 -0.1268 -0.2700 -0.2944
 1820OCT     C1 3639   6.089  13.444   2.463 -0.0007 -0.3474  0.3353
 1820OCT     C2 3640   6.033  13.129   2.861 -0.2830  0.2460  0.2315
 1821OCT     C1 3641   8.624  20.098  12.568 -0.0401  0.1162 -0.2972
 1821OCT     C2 3642   8.689  19.980  12.128  0.0955  0.0077 -0.0879
 1822OCT     C1 3643   7.597  19.618   9.374  0.3082  0.1089 -0.2289
 1822OCT     C2 3644   7.640  19.172   9.128 -0.3391  0.0351  0.3820
 1823OCT     C1 3645  18.358  15.785  15.299 -0.2988 -0.1215  0.2102
 1823OCT     C2 3646  18.516  16.200  15.208  0.1013  0.1000  0.0153
 1824OCT     C1 3647  10.708  10.446   5.282 -0.2672 -0.0839 -0.0474
 1824OCT     C2 3648  10.757  10.777   4.926 -0.1924 -0.2618 -0.3074
 1825OCT     C1 3649  20.045   7.510  17.910  0.0594 -0.0089 -0.1848
 1825OCT     C2 3650  20.294   7.854  17.767 -0.0230  0.0308  0.2360
 1826OCT     C1 3651  10.697  21.823   0.496  0.4087 -0.0853  0.0715
 1826OCT     C2 3652  10.735  21.445   0.769 -0.2007 -0.3775 -0.1596
 1827OCT     C1 3653  11.907   9.015  21.280 -0.1057 -0.4121  0.3553
 1827OCT     C2 3654  11.697   8.778  21.617  0.4095 -0.2439  0.2560
 1828OCT     C1 3655   1.427  18.015   2.265  0.0491  0.1596  0.0127
 1828OCT     C2 3656   1.096  17.695   2.040  0.2598  0.2182  0.2302
 1829OCT     C1 3657   9.336  19.388  12.697  0.1980  0.4248  0.0077
 1829OCT     C2 3658   9.637  19.103  12.516 -0.0399  0.1154  0.0152
 1830OCT     C1 3659   0.499  15.579   0.573  0.2531 -0.0047 -0.3446
 1830OCT     C2 3660   0.298  15.984   0.405 -0.4865  0.0332 -0.2517
 1831OCT     C1 3661  13.257   1.328  20.263 -0.0934 -0.0950 -0.0108
 1831OCT     C2 3662  12.936   1.183  20.013  0.1087  0.1111 -0.0765
 1832OCT     C1 3663  11.005  15.734   8.952  0.0546 -0.1081  0.1014
 1832OCT     C2 3664  11.080  15.574   9.408  0.2539 -0.1411 -0.2864
 1833OCT     C1 3665  22.859   2.758   3.683 -0.2057 -0.2289  0.1340
 1833OCT     C2 3666  23.070   2.485   3.355 -0.3461 -0.1514 -0.0539
 1834OCT     C1 3667   6.190  21.463   0.911 -0.1464 -0.3001  0.0162
 1834OCT     C2 3668   6.542  21.261   0.705 -0.3642  0.2975  0.0317
 1835OCT     C1 3669  11.236   7.609  20.755  0.1764 -0.0388 -0.0718
 1835OCT     C2 3670  11.153   7.401  21.174  0.3317 -0.2204 -0.2870
 1836OCT     C1 3671  17.873   5.529   8.061 -0.1423  0.2490  0.2786
 1836OCT     C2 3672  18.075   5.569   8.487 -0.1702  0.1172  0.2618
 1837OCT     C1 3673  17.267  17.754  20.052 -0.0394 -0.0098  0.0503
 1837OCT     C2 3674  17.430  17.942  19.609  0.4128 -0.0823  0.0715
 1838OCT     C1 3675   9.363   8.829   8.092 -0.3133 -0.1358 -0.0281
 1838OCT     C2 3676   8.948   8.872   8.315  0.1633 -0.2183  0.0118
 1839OCT     C1 3677   2.713  21.029  16.760  0.2499  0.3248  0.2468
 1839OCT     C2 3678   2.349  20.732  16.711 -0.0490 -0.0847 -0.3464
 1840OCT     C1 3679   3.097  22.366   8.078 -0.1303 -0.0100  0.0508
 1840OCT     C2 3680   2.939  22.849   8.013 -0.3202 -0.4605 -0.0688
 1841OCT     C1 3681  23.425   6.353  19.563  0.5603 -0.1309  0.1759
 1841OCT     C2 3682  23.355   6.044  19.897  0.2674 -0.3672 -0.1136
 1842OCT     C1 3683   4.971  12.127  19.986  0.5892  0.0776 -0.4132
 1842OCT     C2 3684   4.723  12.493  20.163 -0.0653 -0.1311  0.0560
 1843OCT     C1 3685   6.184  23.255   5.844 -0.1656 -0.0455  0.1369
 1843OCT     C2 3686   6.365  23.145   6.292 -0.0600 -0.0824 -0.4625
 1844OCT     C1 3687  13.031  20.727   6.265 -0.0659  0.1377 -0.1715
 1844OCT     C2 3688  12.972  20.757   6.703  0.4868 -0.0122  0.1893
 1845OCT     C1 3689  12.158   9.552   5.655 -0.1754 -0.4503  0.4374
 1845OCT     C2 3690  12.185   9.868   6.071  0.3210  0.1405 -0.2440
 1846OCT     C1 3691   1.670   4.591   1.763  0.1215  0.0240 -0.0629
 1846OCT     C2 3692   1.440   4.975   1.928  0.0006  0.1470 -0.0031
 1847OCT     C1 3693  17.946   6.665  11.463 -0.0966 -0.0042 -0.0018
 1847OCT     C2 3694  18.328   6.599  11.197 -0.1971  0.1215 -0.1261
 1848OCT     C1 3695   1.563  12.187   0.586 -0.2180 -0.0217  0.1086
 1848OCT     C2 3696   1.964  12.031   0.310  0.1965 -0.3728  0.2081
 1849OCT     C1 3697  18.193  10.933  13.516 -0.1906  0.2984 -0.1135
 1849OCT     C2 3698  18.065  10.573  13.808 -0.0983 -0.0996 -0.1980
 1850OCT     C1 3699  21.100   4.493   2.331  0.1000 -0.0155 -0.0532
 1850OCT     C2 3700  20.738   4.353   2.156  0.2133 -0.1591  0.1974
 1851OCT     C1 3701  20.094  23.457   7.025 -0.1863 -0.3730 -0.1974
 1851OCT     C2 3702  19.683  23.666   7.118 -0.3331  0.1506  0.3925
 1852OCT     C1 3703  12.862  11.967  10.910 -0.2225 -0.0057  0.1543
 1852OCT     C2 3704  12.893  11.568  11.198 -0.1527  0.0034 -0.2005
 1853OCT     C1 3705  16.628  19.118   1.181 -0.0756 -0.5839 -0.0320
 1853OCT     C2 3706  16.477  18.617   1.350 -0.2023 -0.2338  0.0920
 1854OCT     C1 3707  22.731  14.334  16.254  0.0290  0.0582 -0.4604
 1854OCT     C2 3708  23.143  14.230  16.382  0.2472 -0.0429 -0.0436
 1855OCT     C1 3709  18.262  22.736  17.985 -0.0410 -0.1058 -0.0752
 1855OCT     C2 3710  17.818  22.629  17.975 -0.4299  0.2427  0.0815
 1856OCT     C1 3711   3.512   5.184  14.815 -0.0057 -0.4630  0.4497
 1856OCT     C2 3712   3.103   4.844  14.858  0.1751  0.0849  0.0823
 1857OCT     C1 3713   2.072  22.464  22.633  0.0826 -0.4467  0.0686
 1857OCT     C2 3714   1.689  22.230  22.843 -0.2565 -0.1199  0.0431
 1858OCT     C1 3715  17.980  14.284   3.112 -0.2168 -0.1682  0.1955
 1858OCT     C2 3716  18.195  14.074   3.445 -0.2443  0.0861  0.0743
 1859OCT     C1 3717  16.036   9.166  16.854  0.1224  0.1056 -0.2164
 1859OCT     C2 3718  15.881   9.193  16.433  0.1007  0.2009 -0.1627
 1860OCT     C1 3719   8.961  17.507  20.122 -0.4432 -0.1312  0.2804
 1860OCT     C2 3720   9.267  17.339  20.417  0.2232  0.0077  0.2088
 1861OCT     C1 3721   0.350  20.213   2.911  0.3577  0.4219 -0.1192
 1861OCT     C2 3722   0.637  20.296   2.505 -0.0683  0.0446  0.3949
 1862OCT     C1 3723   6.836   7.288   2.725  0.2969  0.1070 -0.1427
 1862OCT     C2 3724   6.830   7.470   3.095 -0.0967 -0.3983 -0.0190
 1863OCT     C1 3725   0.642   3.782   7.291 -0.0245  0.1546  0.0140
 1863OCT     C2 3726   0.630   3.630   6.821 -0.0096  0.3558 -0.3046
 1864OCT     C1 3727  11.325  20.557  13.240  0.0173  0.2645  0.0467
 1864OCT     C2 3728  11.277  20.189  12.981  0.3018  0.1326  0.2678
 1865OCT     C1 3729  12.805  17.358  22.506 -0.0971 -0.2561 -0.3517
 1865OCT     C2 3730  12.384  17.411  22.750 -0.1990  0.0379 -0.2005
 1866OCT     C1 3731  21.072  10.898   7.780  0.0420  0.0944  0.0700
 1866OCT     C2 3732  21.050  11.308   7.630  0.5575  0.0202  0.0623
 1867OCT     C1 3733  15.335  19.451   0.714  0.3109  0.3892  0.1759
 1867OCT     C2 3734  14.899  19.502   0.754 -0.0476 -0.4300 -0.0651
 1868OCT     C1 3735   3.370  11.701   4.398  0.3671 -0.2494 -0.1776
 1868OCT     C2 3736   3.701  12.021   4.570  0.0680  0.1240 -0.1780
 1869OCT     C1 3737  20.114  12.480  11.492 -0.0420 -0.0855 -0.2079
 1869OCT     C2 3738  19.764  12.390  11.245  0.0260 -0.1113  0.2659
 1870OCT     C1 3739  19.949  18.090   5.524  0.1951  0.2986 -0.1343
 1870OCT     C2 3740  19.919  17.717   5.193  0.1706 -0.0734 -0.4102
 1871OCT     C1 3741  22.411   2.738  14.602 -0.3746  0.1613  0.0525
 1871OCT     C2 3742  22.244   2.727  14.164 -0.1102 -0.3722 -0.2040
 1872OCT     C1 3743  18.406   0.226  22.198  0.1083  0.3342  0.0397
 1872OCT     C2 3744  18.746   0.394  22.488 -0.0556  0.0013  0.0741
 1873OCT     C1 3745  22.376   6.714  22.618 -0.2725  0.2620  0.0078
 1873OCT     C2 3746  22.414   7.083  22.971  0.1495 -0.0477  0.1230
 1874OCT     C1 3747  10.267  21.111  21.356  0.1868 -0.2642 -0.0722
 1874OCT     C2 3748  10.060  20.658  21.266 -0.0636 -0.4867 -0.1291
 1875OCT     C1 3749  13.534  22.687   8.433  0.1483  0.3130  0.2632
 1875OCT     C2 3750  13.871  22.903   8.169  0.0688  0.0090  0.0680
 1876OCT     C1 3751   1.799  10.378  18.233 -0.3208 -0.1560 -0.1070
 1876OCT     C2 3752   1.506  10.524  17.844  0.1017 -0.2890  0.0084
 1877OCT     C1 3753   1.881  14.397   4.809  0.0483 -0.1973  0.2546
 1877OCT     C2 3754   1.541  14.365   4.472  0.0694 -0.0066  0.1850
 1878OCT     C1 3755  11.520  15.663   6.192  0.1357  0.4935 -0.2692
 1878OCT     C2 3756  11.947  15.670   6.114  0.2366 -0.4667  0.0047
 1879OCT     C1 3757   7.826   4.480  22.185 -0.2177 -0.1320 -0.0040
 1879OCT     C2 3758   7.404   4.664  22.340 -0.1407 -0.0684 -0.0767
 1880OCT     C1 3759   3.827   6.347  11.796  0.1156 -0.1177  0.1414
 1880OCT     C2 3760   3.604   6.767  11.670  0.2254  0.1749 -0.1847
 1881OCT     C1 3761   7.918  16.299  13.421 -0.2768 -0.0031  0.2980
 1881OCT     C2 3762   8.375  16.153  13.469  0.1074  0.3444  0.0088
 1882OCT     C1 3763  18.007  14.357  19.907  0.3380 -0.1133 -0.0519
 1882OCT     C2 3764  17.555  14.446  19.701  0.1529 -0.2388  0.1968
 1883OCT     C1 3765   7.966  14.838   9.734  0.2344 -0.0476  0.1091
 1883OCT     C2 3766   7.591  14.770   9.894 -0.0146 -0.4622 -0.0044
 1884OCT     C1 3767   5.643  21.732  11.937  0.3127  0.0174 -0.1576
 1884OCT     C2 3768   5.840  22.196  11.880  0.1104  0.4938  0.0833
 1885OCT     C1 3769  11.462   4.564  22.160 -0.4043  0.1857  0.1639
 1885OCT     C2 3770  11.388   4.453  21.692  0.2583  0.1721 -0.0694
 1886OCT     C1 3771   8.295  13.422   7.324 -0.4928 -0.0129  0.0428
 1886OCT     C2 3772   8.590  13.685   7.129  0.0275  0.4164 -0.0976
 1887OCT     C1 3773  11.496  23.120   3.789 -0.1131  0.1601 -0.4861
 1887OCT     C2 3774  11.330  22.912   3.433  0.0900  0.0188  0.0141
 1888OCT     C1 3775   1.244   8.579   1.558  0.0092  0.5232 -0.2060
 1888OCT     C2 3776   1.467   8.275   1.844  0.0434 -0.0908 -0.0315
 1889OCT     C1 3777   9.219   0.198  14.707  0.0350 -0.3032  0.0627
 1889OCT     C2 3778   9.016   0.595  14.976 -0.0101  0.2166 -0.1578
 1890OCT     C1 3779   4.653  18.298  16.493 -0.1340 -0.1498  0.1576
 1890OCT     C2 3780   4.439  17.941  16.410  0.0487  0.0916 -0.1453
 1891OCT     C1 3781   6.179  23.723   1.209  0.0424 -0.2090  0.2101
 1891OCT     C2 3782   6.443   0.191   0.931  0.1140  0.1712 -0.4377
 1892OCT     C1 3783   8.473  19.137  16.948 -0.1609 -0.1517  0.3144
 1892OCT     C2 3784   8.313  19.602  16.967  0.3888  0.2590  0.3698
 1893OCT     C1 3785   7.568   8.353   4.186 -0.1182 -0.1767  0.1064
 1893OCT     C2 3786   7.505   7.931   3.922  0.0253  0.3248 -0.3199
 1894OCT     C1 3787  21.346   1.471   6.562 -0.3955 -0.0286 -0.1216
 1894OCT     C2 3788  21.697   1.325   6.768  0.2518 -0.0325 -0.0530
 1895OCT     C1 3789  15.958   7.732  11.382  0.1453  0.0411  0.2083
 1895OCT     C2 3790  16.017   8.068  11.711  0.1509  0.2921 -0.1214
 1896OCT     C1 3791  16.767  20.572  23.462 -0.1792  0.1225  0.0732
 1896OCT     C2 3792  16.723  20.310   0.118  0.0134  0.3566 -0.1211
 1897OCT     C1 3793  22.529  16.897   3.084  0.0249 -0.1607 -0.0559
 1897OCT     C2 3794  22.062  16.792   2.918 -0.1846  0.3031 -0.0781
 1898OCT     C1 3795  21.312  13.116  12.171 -0.1390 -0.1195  0.1233
 1898OCT     C2 3796  20.951  13.400  12.269 -0.2562 -0.0925 -0.3671
 1899OCT     C1 3797  18.219  14.918   0.196 -0.1730  0.1419 -0.1878
 1899OCT     C2 3798  18.330  15.024  23.481  0.2289  0.3937  0.2306
 1900OCT     C1 3799  22.174  15.176  16.748  0.0191 -0.0667 -0.2656
 1900OCT     C2 3800  21.928  14.803  16.659 -0.1788  0.4600 -0.0732
 1901OCT     C1 3801   1.530  17.688   7.090 -0.1008 -0.2044  0.0080
 1901OCT     C2 3802   1.850  17.969   7.392 -0.0563  0.0836 -0.3583
 1902OCT     C1 3803  13.761  15.208  11.799  0.0621  0.0385 -0.1809
 1902OCT     C2 3804  13.590  15.015  11.421  0.1562  0.0355  0.0655
 1903OCT     C1 3805  18.950  14.958   1.943 -0.0227  0.2734 -0.0104
 1903OCT     C2 3806  18.931  15.127   2.399  0.1108  0.2676  0.5464
 1904OCT     C1 3807   7.372   3.203  18.389 -0.2449 -0.0992  0.1616
 1904OCT     C2 3808   7.367   2.740  18.331  0.1818  0.3644  0.0759
 1905OCT     C1 3809   0.849   9.555   1.477 -0.1365 -0.1324  0.1835
 1905OCT     C2 3810   0.769  10.016   1.372 -0.1559 -0.0067  0.0171
 1906OCT     C1 3811   3.447  10.191   2.468 -0.2143  0.0630 -0.0355
 1906OCT     C2 3812   3.455  10.348   2.071  0.3802 -0.0934 -0.2440
 1907OCT     C1 3813  11.762  12.312  11.402  0.3997  0.3208 -0.0478
 1907OCT     C2 3814  12.074  12.336  11.100  0.1962 -0.0831  0.2411
 1908OCT     C1 3815   5.086   2.197  14.176 -0.0807 -0.1250  0.2619
 1908OCT     C2 3816   5.443   1.845  14.292  0.0125  0.0291  0.1330
 1909OCT     C1 3817   8.347  16.209  14.391  0.0475  0.0033 -0.1077
 1909OCT     C2 3818   8.692  16.036  14.091  0.1132  0.3202 -0.0688
 1910OCT     C1 3819  17.645   9.908  10.729  0.1572 -0.3496  0.0638
 1910OCT     C2 3820  17.787   9.874  11.152 -0.1882 -0.2155  0.2364
 1911OCT     C1 3821  15.305   6.170  18.547 -0.0356  0.5003 -0.3049
 1911OCT     C2 3822  15.709   6.250  18.796 -0.1471  0.0469  0.0507
 1912OCT     C1 3823  15.968  21.923  17.912  0.0514 -0.1790 -0.1699
 1912OCT     C2 3824  16.129  21.532  18.053  0.0215 -0.2379 -0.2023
 1913OCT     C1 3825  18.992  19.313   6.574  0.3556  0.2661 -0.1251
 1913OCT     C2 3826  18.947  19.754   6.629 -0.3602 -0.0333  0.0522
 1914OCT     C1 3827   9.155   8.062  17.558  0.0543  0.1563 -0.2423
 1914OCT     C2 3828   9.267   8.346  17.282  0.0763  0.1799  0.0169
 1915OCT     C1 3829   5.104   0.673  14.974  0.0082 -0.0588 -0.1466
 1915OCT     C2 3830   5.238   0.394  15.284 -0.2001  0.0478  0.0492
 1916OCT     C1 3831  15.936  18.415  17.467  0.0742  0.0152  0.0147
 1916OCT     C2 3832  15.625  18.552  17.193 -0.0579 -0.4651  0.2042
 1917OCT     C1 3833  16.733   0.204   0.561  0.2912 -0.2805 -0.1336
 1917OCT     C2 3834  17.192   0.141   0.579 -0.1126 -0.0181  0.0371
 1918OCT     C1 3835  14.761  17.546  11.270 -0.0932 -0.0484  0.0044
 1918OCT     C2 3836  14.582  17.460  11.713 -0.0456 -0.2139  0.3129
 1919OCT     C1 3837   9.152   9.351  14.695 -0.1800  0.5196 -0.0382
 1919OCT     C2 3838   8.774   9.257  14.938 -0.2429 -0.1313 -0.0052
 1920OCT     C1 3839  11.569   8.334   5.880  0.3177  0.0501  0.1562
 1920OCT     C2 3840  11.437   8.721   5.620  0.0688 -0.4112  0.3082
 1921OCT     C1 3841  11.169  10.939  23.132 -0.4310  0.2060 -0.3114
 1921OCT     C2 3842  11.505  10.995  22.799  0.0807 -0.0622  0.2064
 1922OCT     C1 3843  18.868   5.101  18.416  0.0036 -0.1759 -0.1460
 1922OCT     C2 3844  18.811   4.718  18.682  0.0560 -0.0134 -0.1021
 1923OCT     C1 3845   1.627   8.741  21.302  0.3724 -0.0234 -0.2032
 1923OCT     C2 3846   2.083   8.885  21.292 -0.1570  0.0073 -0.1365
 1924OCT     C1 3847   7.222  19.845  19.976 -0.0237  0.1672  0.0952
 1924OCT     C2 3848   7.689  19.706  19.994 -0.2711 -0.0126  0.1245
 1925OCT     C1 3849  10.885   1.588   2.482 -0.1754  0.0069 -0.1705
 1925OCT     C2 3850  10.886   1.489   2.954 -0.2083 -0.0692  0.2852
 1926OCT     C1 3851   9.039  18.831   2.495 -0.2828 -0.2123  0.0403
 1926OCT     C2 3852   8.613  18.721   2.198  0.1844  0.2119 -0.1973
 1927OCT     C1 3853   3.021   8.365  12.390 -0.2617  0.0810  0.0133
 1927OCT     C2 3854   3.050   7.897  12.421  0.3359 -0.1891 -0.1977
 1928OCT     C1 3855  22.217   5.191  17.712  0.1006 -0.2185 -0.3212
 1928OCT     C2 3856  22.155   5.279  17.256 -0.0353 -0.2627  0.0980
 1929OCT     C1 3857  14.480  16.350   7.685  0.1541  0.1225 -0.1003
 1929OCT     C2 3858  14.916  16.296   7.698  0.2269  0.2652  0.0914
 1930OCT     C1 3859   5.588  21.030  10.739  0.1332 -0.0186  0.1642
 1930OCT     C2 3860   5.918  21.298  10.908  0.1968 -0.2317  0.0449
 1931OCT     C1 3861   6.515  21.961  22.088  0.1589 -0.1173 -0.0700
 1931OCT     C2 3862   6.948  21.955  21.940 -0.2663  0.1322 -0.2218
 1932OCT     C1 3863  13.547  10.393  21.925 -0.0855  0.0295 -0.1617
 1932OCT     C2 3864  13.560  10.122  22.327  0.0525 -0.1068 -0.0270
 1933OCT     C1 3865   4.083  16.499   4.736 -0.2355 -0.1084 -0.2759
 1933OCT     C2 3866   3.662  16.324   4.603  0.0829  0.0898  0.1788
 1934OCT     C1 3867   7.571  20.507  10.680 -0.1682  0.1592  0.1136
 1934OCT     C2 3868   7.316  20.130  10.495 -0.1659 -0.0078 -0.3911
 1935OCT     C1 3869  21.868  21.476  19.722  0.0042  0.1310 -0.2771
 1935OCT     C2 3870  22.148  21.259  20.035 -0.1782 -0.0969 -0.2232
 1936OCT     C1 3871  11.411  12.182   5.207  0.2976 -0.2334  0.0231
 1936OCT     C2 3872  10.934  12.203   5.329  0.2687 -0.1565 -0.3217
 1937OCT     C1 3873   8.009   4.545  13.546  0.1229  0.0589  0.2858
 1937OCT     C2 3874   8.049   4.406  13.075 -0.2003 -0.1548 -0.0775
 1938OCT     C1 3875  20.991   8.146  14.613 -0.2630  0.2083  0.0123
 1938OCT     C2 3876  21.313   7.865  14.750 -0.4065  0.0126  0.2780
 1939OCT     C1 3877  20.933  14.861   3.769  0.0824  0.0691 -0.2317
 1939OCT     C2 3878  20.572  15.152   3.836 -0.0830  0.0744 -0.1828
 1940OCT     C1 3879   3.918  14.863   8.344  0.0462  0.2278 -0.0589
 1940OCT     C2 3880   4.186  15.036   8.095 -0.1142 -0.2464 -0.2552
 1941OCT     C1 3881  19.913   7.832  10.403 -0.1960 -0.2179 -0.1057
 1941OCT     C2 3882  19.978   7.386  10.158  0.1379 -0.1609  0.1584
 1942OCT     C1 3883  23.663   7.364  21.274  0.0915  0.1760 -0.2254
 1942OCT     C2 3884   0.093   7.781  21.198 -0.1960 -0.2501 -0.1334
 1943OCT     C1 3885  19.472  18.403  14.105 -0.0874  0.0240 -0.0390
 1943OCT     C2 3886  19.645  18.487  14.526  0.3082 -0.2348 -0.4028
 1944OCT     C1 3887  11.566   7.205  19.921 -0.2157  0.0832 -0.2740
 1944OCT     C2 3888  11.180   7.446  19.827  0.1689  0.1042  0.2623
 1945OCT     C1 3889  11.028   4.387  11.589 -0.2466 -0.2997  0.1488
 1945OCT     C2 3890  10.803   3.993  11.537  0.4292  0.1644  0.0510
 1946OCT     C1 3891  22.465   7.246  12.416  0.3882 -0.2573 -0.2978
 1946OCT     C2 3892  22.513   7.368  11.957 -0.3260 -0.0215 -0.1227
 1947OCT     C1 3893   2.549  15.271  19.566 -0.2719  0.4490 -0.1577
 1947OCT     C2 3894   2.499  15.182  20.009  0.1879  0.2796 -0.0183
 1948OCT     C1 3895  11.149   0.459  17.080 -0.2018 -0.1553 -0.0980
 1948OCT     C2 3896  11.172   0.387  16.650 -0.1231  0.0097  0.0298
 1949OCT     C1 3897  20.182  15.260   1.157 -0.1797  0.1111  0.5148
 1949OCT     C2 3898  20.029  15.018   0.795 -0.2352 -0.0156 -0.0966
 1950OCT     C1 3899  12.753  18.334   6.068 -0.1230 -0.3185 -0.1909
 1950OCT     C2 3900  12.745  18.399   6.552  0.0212  0.2612 -0.0321
 1951OCT     C1 3901  22.735  10.180  10.547  0.2948  0.0253  0.0654
 1951OCT     C2 3902  22.678   9.947  10.958  0.2067  0.0497  0.0615
 1952OCT     C1 3903  20.236  20.689   6.471 -0.1546 -0.0774  0.1784
 1952OCT     C2 3904  20.005  21.018   6.688  0.2457  0.2134  0.2463
 1953OCT     C1 3905   5.609  23.049  11.611 -0.2427 -0.0482 -0.0908
 1953OCT     C2 3906   6.049  23.007  11.598 -0.2722  0.0032  0.3980
 1954OCT     C1 3907   6.726   1.131   4.966 -0.5462  0.3727  0.2975
 1954OCT     C2 3908   6.299   1.194   4.766  0.0035 -0.1241 -0.3331
 1955OCT     C1 3909  21.927  20.052  16.793  0.0826 -0.0554  0.0642
 1955OCT     C2 3910  22.064  19.731  16.414  0.1610  0.0852  0.1104
 1956OCT     C1 3911  21.207  13.270   8.526 -0.1514  0.0877 -0.1030
 1956OCT     C2 3912  21.338  12.837   8.557  0.3427 -0.2588 -0.4798
 1957OCT     C1 3913  13.520  17.204  18.072  0.4189  0.2625 -0.1043
 1957OCT     C2 3914  13.764  16.790  17.973 -0.0178  0.0227  0.2646
 1958OCT     C1 3915  23.256   7.184  10.713 -0.1469  0.0146 -0.0220
 1958OCT     C2 3916  23.585   7.530  10.823  0.0208  0.2772 -0.0416
 1959OCT     C1 3917  23.567  10.518  22.112  0.1724  0.0948 -0.3345
 1959OCT     C2 3918  23.209  10.498  22.401 -0.1253  0.1447 -0.2974
 1960OCT     C1 3919   5.083   7.482  13.580 -0.3973 -0.0222  0.1448
 1960OCT     C2 3920   4.855   7.855  13.777 -0.2252 -0.1512  0.2534
 1961OCT     C1 3921   2.482   2.839  12.948  0.2155  0.0710  0.1488
 1961OCT     C2 3922   2.704   2.879  12.499 -0.3067 -0.3288 -0.0004
 1962OCT     C1 3923  10.562   8.277  10.494  0.2982  0.0260 -0.2100
 1962OCT     C2 3924  10.819   8.384  10.927  0.2272  0.0987 -0.3030
 1963OCT     C1 3925   5.348   6.500  17.558  0.2794  0.1697 -0.0389
 1963OCT     C2 3926   5.555   6.376  17.230 -0.2286 -0.3333 -0.1430
 1964OCT     C1 3927  12.028   5.818  16.277 -0.0855 -0.2941  0.4828
 1964OCT     C2 3928  12.343   5.551  16.061  0.1703  0.1637 -0.1264
 1965OCT     C1 3929  13.210  17.497   0.705 -0.1499  0.3403 -0.0590
 1965OCT     C2 3930  13.067  17.563   0.239 -0.1916  0.1627 -0.1438
 1966OCT     C1 3931   0.499   9.657   8.897 -0.0213  0.2305 -0.3121
 1966OCT     C2 3932   0.846   9.653   8.629  0.1704 -0.1963  0.0016
 1967OCT     C1 3933  21.294  21.973  10.841 -0.0549  0.1885  0.1748
 1967OCT     C2 3934  21.359  21.509  10.791 -0.2617  0.4451  0.2030
 1968OCT     C1 3935   8.330   4.872  16.456  0.1129  0.2175 -0.0641
 1968OCT     C2 3936   8.444   4.885  16.905 -0.1602 -0.0151 -0.3099
 1969OCT     C1 3937  11.416  10.141  12.475  0.1416 -0.1888 -0.0404
 1969OCT     C2 3938  11.421  10.548  12.735 -0.1417 -0.1230 -0.1558
 1970OCT     C1 3939  14.788  13.408  12.913 -0.1402  0.1500  0.2127
 1970OCT     C2 3940  14.833  13.682  12.544 -0.2280  0.1997  0.2267
 1971OCT     C1 3941   5.651   3.378  23.432  0.1766  0.1258  0.0126
 1971OCT     C2 3942   5.832   3.588  23.057  0.0092  0.1074  0.1920
 1972OCT     C1 3943  15.388   7.761  14.085  0.0441 -0.4406  0.0125
 1972OCT     C2 3944  15.010   7.511  14.277 -0.1160 -0.3974  0.0708
 1973OCT     C1 3945   9.290  17.031  13.715  0.1971  0.3816  0.1205
 1973OCT     C2 3946   9.723  17.103  13.587  0.1537 -0.5311  0.1086
 1974OCT     C1 3947  17.389   8.706   0.072  0.0353  0.1287  0.0479
 1974OCT     C2 3948  17.641   9.010   0.227 -0.3223 -0.2941  0.1575
 1975OCT     C1 3949  18.936  18.899  16.562 -0.2261  0.3052  0.0829
 1975OCT     C2 3950  19.175  19.001  16.196 -0.2106  0.0654 -0.0996
 1976OCT     C1 3951   8.990  13.322  21.525  0.1591 -0.0653 -0.1044
 1976OCT     C2 3952   8.805  12.919  21.767  0.0631 -0.5029 -0.0254
 1977OCT     C1 3953   1.140  23.223  18.986 -0.1907  0.3893 -0.2213
 1977OCT     C2 3954   1.375  22.858  18.880 -0.0352  0.1103 -0.2274
 1978OCT     C1 3955  14.721  22.264   5.667  0.1804  0.2169  0.1536
 1978OCT     C2 3956  15.214  22.287   5.571 -0.2927 -0.0302 -0.1016
 1979OCT     C1 3957  18.459   2.800  11.306 -0.3992  0.3394 -0.2386
 1979OCT     C2 3958  18.351   3.151  11.071  0.0472 -0.2782  0.2159
 1980OCT     C1 3959   9.597   2.454  11.461 -0.1820 -0.0791  0.1584
 1980OCT     C2 3960   9.958   2.547  11.109  0.0551 -0.0026 -0.1381
 1981OCT     C1 3961   6.479  14.313   7.875  0.2135  0.2714 -0.1885
 1981OCT     C2 3962   6.429  14.748   7.700 -0.0564 -0.0201  0.0884
 1982OCT     C1 3963  21.859   2.156   6.797  0.2565  0.0009 -0.2974
 1982OCT     C2 3964  21.837   1.911   7.244  0.2169 -0.4077 -0.0862
 1983OCT     C1 3965  18.616   6.465  14.261  0.3334  0.0426 -0.1861
 1983OCT     C2 3966  18.447   6.058  14.182  0.0862  0.1057 -0.3296
 1984OCT     C1 3967   2.014   6.666   4.559 -0.2557 -0.0452 -0.3105
 1984OCT     C2 3968   1.747   6.261   4.473 -0.2717 -0.2419  0.3005
 1985OCT     C1 3969  20.976   8.898   9.440 -0.0914 -0.1566  0.1018
 1985OCT     C2 3970  21.436   8.923   9.502 -0.2403 -0.0170 -0.0555
 1986OCT     C1 3971  22.163  19.641   7.655 -0.3425 -0.3232 -0.1872
 1986OCT     C2 3972  22.027  20.000   7.413 -0.2877 -0.0255  0.2956
 1987OCT     C1 3973   5.587  15.826  16.788  0.4015 -0.5010 -0.0987
 1987OCT     C2 3974   5.733  15.879  17.202 -0.3667 -0.0795 -0.2982
 1988OCT     C1 3975   2.875  10.579   5.744 -0.1641 -0.3684  0.2459
 1988OCT     C2 3976   3.237  10.626   5.551  0.0363 -0.0583 -0.0550
 1989OCT     C1 3977  10.110   1.577   6.944 -0.0790 -0.2976 -0.1653
 1989OCT     C2 3978  10.113   1.113   6.853 -0.0458  0.0788 -0.0852
 1990OCT     C1 3979  21.617  13.295  22.689  0.1544 -0.2324  0.1122
 1990OCT     C2 3980  21.176  13.342  22.576  0.0530  0.2004 -0.1507
 1991OCT     C1 3981   4.697  15.818  11.153  0.1804 -0.0761 -0.2881
 1991OCT     C2 3982   4.345  15.847  10.825 -0.2150 -0.0365 -0.0268
 1992OCT     C1 3983   6.990  19.556  12.462 -0.1073  0.2301 -0.0690
 1992OCT     C2 3984   6.608  19.300  12.498  0.0495  0.0186 -0.0106
 1993OCT     C1 3985   1.526  11.560  21.469  0.0418  0.0724 -0.0302
 1993OCT     C2 3986   2.040  11.586  21.472 -0.3672  0.0126 -0.0974
 1994OCT     C1 3987   8.827  21.319  21.395  0.1355  0.1528  0.3888
 1994OCT     C2 3988   8.859  21.531  20.910 -0.0445  0.2309 -0.0923
 1995OCT     C1 3989  10.712  13.783  18.881 -0.1621 -0.4138  0.1666
 1995OCT     C2 3990  10.555  13.559  19.252 -0.1978 -0.1137  0.1184
 1996OCT     C1 3991  22.484   2.474  16.257  0.0872  0.1162  0.1295
 1996OCT     C2 3992  22.647   2.880  16.449  0.0034 -0.0544 -0.0291
 1997OCT     C1 3993  18.130  10.725   8.655 -0.3629 -0.3694 -0.1824
 1997OCT     C2 3994  18.049  10.273   8.743  0.1881 -0.0639 -0.1808
 1998OCT     C1 3995   5.055   3.396  16.674  0.1239 -0.1306 -0.0518
 1998OCT     C2 3996   5.444   3.629  16.739  0.3325 -0.1747 -0.2444
 1999OCT     C1 3997  18.153   0.515  18.971  0.0857  0.0982 -0.4672
 1999OCT     C2 3998  18.060   0.781  19.340 -0.0684 -0.1999  0.1646
 2000OCT     C1 3999   3.553  22.436   7.817  0.2521 -0.1894  0.0580
 2000OCT     C2 4000   4.005  22.360   7.892  0.2908  0.1523 -0.0839
 2001OCT     C1 4001  18.075   6.736   6.683  0.3253  0.2576 -0.0915
 2001OCT     C2 4002  17.715   6.814   6.423  0.0037 -0.2211 -0.0048
 2002OCT     C1 4003   3.276  22.307  23.003 -0.0494  0.3869 -0.0051
 2002OCT     C2 4004   3.471  21.884  23.151 -0.1802 -0.0989  0.4112
 2003OCT     C1 4005   0.185   7.707  14.020 -0.2671  0.0245  0.0033
 2003OCT     C2 4006  23.451   7.762  14.054 -0.0328 -0.1182 -0.0747
 2004OCT     C1 4007   8.424   7.840  18.521  0.5226  0.3657  0.1779
 2004OCT     C2 4008   8.177   7.757  18.099  0.0205  0.2872  0.1650
 2005OCT     C1 4009  13.737   4.365   1.618  0.2791 -0.1684 -0.1627
 2005OCT     C2 4010  14.061   4.438   1.933  0.0538  0.1460 -0.0812
 2006OCT     C1 4011  22.036   4.740  12.300  0.1924  0.2672 -0.1316
 2006OCT     C2 4012  22.144   4.842  12.768  0.0173 -0.0563  0.3846
 2007OCT     C1 4013  15.182   4.428  23.009 -0.1926 -0.1433  0.0391
 2007OCT     C2 4014  15.476   4.571  22.738 -0.4934 -0.0513  0.2559
 2008OCT     C1 4015   0.749  21.081  15.668 -0.0401 -0.1461  0.0023
 2008OCT     C2 4016   1.146  21.293  15.779 -0.0182  0.0426  0.0891
 2009OCT     C1 4017  14.118   6.635   9.764 -0.0520 -0.1023  0.0017
 2009OCT     C2 4018  14.432   6.783   9.470  0.1756 -0.0633  0.1589
 2010OCT     C1 4019   4.570  21.428   2.008 -0.0256 -0.3139 -0.1470
 2010OCT     C2 4020   4.508  20.992   2.111  0.1523  0.2533  0.2478
 2011OCT     C1 4021   5.723   2.380   2.071  0.1453  0.2289 -0.1083
 2011OCT     C2 4022   5.597   2.522   1.650 -0.3555  0.0604  0.1749
 2012OCT     C1 4023   2.059  12.760   7.349  0.1288 -0.0656  0.5079
 2012OCT     C2 4024   1.779  13.031   7.058 -0.0442 -0.3865 -0.0246
 2013OCT     C1 4025  11.938  10.844   7.982 -0.2109  0.1628 -0.1186
 2013OCT     C2 4026  12.222  10.759   7.632 -0.2381 -0.0874  0.2776
 2014OCT     C1 4027   2.387  15.806  23.449 -0.1191  0.1536 -0.1258
 2014OCT     C2 4028   2.173  16.125  23.211  0.2295 -0.1375 -0.0676
 2015OCT     C1 4029  22.704   4.535   4.469 -0.3796  0.1300  0.0114
 2015OCT     C2 4030  22.302   4.471   4.305  0.1908 -0.0899  0.5267
 2016OCT     C1 4031   3.591  16.976  23.618 -0.1932 -0.2150 -0.0190
 2016OCT     C2 4032   3.842  17.362  23.388  0.2207  0.0474 -0.0016
 2017OCT     C1 4033  10.016  16.442   0.603 -0.4150  0.1647  0.4728
 2017OCT     C2 4034  10.410  16.619   0.723 -0.2686  0.1779  0.0242
 2018OCT     C1 4035  20.187   1.653   5.573  0.0036 -0.1239  0.2401
 2018OCT     C2 4036  20.318   1.219   5.713 -0.0849  0.1105  0.1542
 2019OCT     C1 4037  16.544  15.293   2.786 -0.0820  0.4333 -0.0771
 2019OCT     C2 4038  16.761  15.700   2.774  0.0987  0.3670 -0.1802
 2020OCT     C1 4039  22.289  13.862   4.096  0.1643 -0.0622  0.0770
 2020OCT     C2 4040  22.537  14.148   3.831 -0.1785  0.0554  0.3247
 2021OCT     C1 4041  17.985   7.597  11.720 -0.0788 -0.2604 -0.0983
 2021OCT     C2 4042  18.157   7.704  12.072 -0.4448 -0.4652 -0.6959
 2022OCT     C1 4043   2.153  12.823  21.234  0.2768 -0.2123  0.0955
 2022OCT     C2 4044   2.086  12.425  20.991  0.0890  0.2469 -0.0020
 2023OCT     C1 4045  20.493   3.675  19.351 -0.0711  0.2963 -0.1399
 2023OCT     C2 4046  20.030   3.808  19.356 -0.0696 -0.2664  0.1988
 2024OCT     C1 4047   1.900  21.260   2.137  0.1512 -0.1420  0.2187
 2024OCT     C2 4048   1.802  21.694   1.985  0.1045  0.1160  0.0761
 2025OCT     C1 4049  14.733  19.914   7.450 -0.0037  0.1412  0.2484
 2025OCT     C2 4050  14.320  19.721   7.510 -0.2684 -0.2195  0.0668
 2026OCT     C1 4051  18.838  14.109   2.098 -0.0052  0.1442 -0.0592
 2026OCT     C2 4052  19.213  14.322   2.220  0.0544  0.2489  0.3198
 2027OCT     C1 4053   6.037  16.779   4.417 -0.0915  0.0305  0.1268
 2027OCT     C2 4054   6.269  17.178   4.393 -0.1583  0.0029 -0.0194
 2028OCT     C1 4055   5.519   1.911   2.778  0.1407 -0.0540  0.1623
 2028OCT     C2 4056   5.229   1.896   2.470 -0.0186  0.0271 -0.0222
 2029OCT     C1 4057  15.746   9.237   7.240 -0.0019  0.1648 -0.3874
 2029OCT     C2 4058  16.175   9.377   7.309 -0.2734  0.1036  0.0572
 2030OCT     C1 4059  11.488  22.865  15.516 -0.3989 -0.0559  0.1113
 2030OCT     C2 4060  11.745  22.972  15.919  0.1570 -0.0320 -0.4293
 2031OCT     C1 4061   4.304   5.855  20.900  0.0863 -0.0614 -0.3188
 2031OCT     C2 4062   4.091   5.431  20.841  0.1693 -0.0754 -0.1327
 2032OCT     C1 4063   4.630   8.114   8.853 -0.2685 -0.2755  0.1349
 2032OCT     C2 4064   4.741   8.575   8.697  0.1391 -0.1231 -0.0856
 2033OCT     C1 4065   2.348   2.361   8.544  0.2434 -0.0509 -0.1212
 2033OCT     C2 4066   2.134   2.718   8.429  0.1963  0.1741 -0.1228
 2034OCT     C1 4067  23.229   6.797  23.226 -0.0415 -0.0584 -0.1233
 2034OCT     C2 4068  23.044   6.465  23.499 -0.0890  0.0080 -0.0761
 2035OCT     C1 4069   4.949  18.327   1.786 -0.3004  0.5608 -0.3116
 2035OCT     C2 4070   4.953  18.306   2.261 -0.2638  0.3600  0.1940
 2036OCT     C1 4071   0.269  19.256   1.065 -0.2996  0.2467  0.0222
 2036OCT     C2 4072   0.637  19.588   0.981 -0.0425  0.1574  0.2052
 2037OCT     C1 4073  23.193   5.278   2.027 -0.3048  0.3663  0.1105
 2037OCT     C2 4074  23.590   5.338   1.739  0.4424 -0.1645 -0.1503
 2038OCT     C1 4075  12.819  15.738   5.354  0.0898  0.0988 -0.1972
 2038OCT     C2 4076  13.225  15.872   5.322  0.2557 -0.0334  0.1459
 2039OCT     C1 4077   3.991   0.754  18.760  0.2307  0.0589  0.2003
 2039OCT     C2 4078   4.313   0.842  18.404 -0.3418 -0.2078  0.0462
 2040OCT     C1 4079   8.216  10.828  20.211 -0.1383  0.0940 -0.1446
 2040OCT     C2 4080   7.841  10.666  20.354  0.0110 -0.2023 -0.2536
 2041OCT     C1 4081   1.105  12.594  22.129  0.2641  0.2695  0.1286
 2041OCT     C2 4082   1.328  12.951  22.197  0.3388  0.0214 -0.1469
 2042OCT     C1 4083  21.734  20.394   4.740 -0.0468 -0.0756  0.0405
 2042OCT     C2 4084  21.392  20.631   4.496  0.2091  0.1395 -0.3070
 2043OCT     C1 4085  23.044   4.951   6.646  0.1976  0.1462 -0.1080
 2043OCT     C2 4086  22.915   5.360   6.830  0.1141 -0.1784 -0.1370
 2044OCT     C1 4087  15.654  10.339   8.670 -0.1790  0.1384 -0.0528
 2044OCT     C2 4088  16.136  10.289   8.760 -0.0891  0.2668  0.1520
 2045OCT     C1 4089   4.872   5.872  11.849  0.0319  0.0709 -0.0294
 2045OCT     C2 4090   4.694   5.860  11.452 -0.0223  0.0909 -0.0938
 2046OCT     C1 4091  21.785  17.011   8.637  0.0319  0.0523  0.1070
 2046OCT     C2 4092  22.180  17.113   8.414 -0.0592 -0.4547  0.0587
 2047OCT     C1 4093   5.869   0.583   8.079 -0.1956 -0.0960  0.0942
 2047OCT     C2 4094   6.140   0.887   8.021 -0.2913  0.0307  0.1824
 2048OCT     C1 4095  16.193   7.966   3.373 -0.0529 -0.0173 -0.1797
 2048OCT     C2 4096  15.876   7.644   3.440 -0.3045  0.3138  0.0171
 2049OCT     C1 4097  17.511  20.400  16.780 -0.0734 -0.1039 -0.1809
 2049OCT     C2 4098  17.227  20.057  16.620 -0.1432 -0.3605  0.1936
 2050OCT     C1 4099   2.690  13.932   4.794 -0.0392  0.1206 -0.0643
 2050OCT     C2 4100   2.266  14.076   4.800  0.0209  0.0339  0.2639
 2051OCT     C1 4101   2.746   8.372   3.823 -0.1962  0.1693 -0.3347
 2051OCT     C2 4102   2.799   8.258   3.335 -0.3729  0.2921  0.1653
 2052OCT     C1 4103  10.062  19.457  22.850  0.0561 -0.1887  0.2082
 2052OCT     C2 4104   9.777  19.071  22.640 -0.0380 -0.1264 -0.2962
 2053OCT     C1 4105  16.669   2.394  10.951  0.0749  0.2686  0.2263
 2053OCT     C2 4106  16.665   2.186  11.364  0.1542  0.2490 -0.0940
 2054OCT     C1 4107   5.970  19.539   7.787  0.1075 -0.1181  0.0898
 2054OCT     C2 4108   5.863  19.174   8.140  0.2315  0.0134 -0.1291
 2055OCT     C1 4109  14.357  19.116   3.715  0.2188  0.0929  0.1654
 2055OCT     C2 4110  14.015  18.897   3.779 -0.1402 -0.1040  0.3171
 2056OCT     C1 4111   0.581   9.499  23.100  0.1906  0.1458  0.3564
 2056OCT     C2 4112   0.757   9.262  23.444  0.1094  0.2827  0.3114
 2057OCT     C1 4113  17.076   5.234   6.378  0.1574  0.1220  0.1369
 2057OCT     C2 4114  16.931   4.824   6.527  0.0370 -0.1964  0.1198
 2058OCT     C1 4115   6.638  11.936  19.394  0.0765  0.2372  0.1857
 2058OCT     C2 4116   6.420  12.349  19.266 -0.2647  0.0527 -0.0677
 2059OCT     C1 4117   0.369   1.184   1.005 -0.1972  0.1801 -0.4560
 2059OCT     C2 4118   0.529   1.596   1.096 -0.3511 -0.1698 -0.0279
 2060OCT     C1 4119  20.122   1.968  20.467 -0.2292 -0.0210  0.0408
 2060OCT     C2 4120  19.756   2.215  20.717  0.0577  0.0192 -0.0137
 2061OCT     C1 4121  16.071   8.309  15.697 -0.0395 -0.1295 -0.3875
 2061OCT     C2 4122  15.969   8.011  16.054 -0.7790  0.2817 -0.3644
 2062OCT     C1 4123   7.970  15.585   6.506 -0.2272 -0.5791 -0.1000
 2062OCT     C2 4124   7.963  16.014   6.335  0.2817  0.1858 -0.1603
 2063OCT     C1 4125   8.263  19.618   9.439  0.0894  0.0167  0.2559
 2063OCT     C2 4126   8.065  20.011   9.168 -0.2873 -0.0190  0.2796
 2064OCT     C1 4127  19.131  17.170  14.449  0.0104 -0.2075  0.3614
 2064OCT     C2 4128  18.921  17.583  14.387  0.0148 -0.5096 -0.2482
 2065OCT     C1 4129  11.070   5.992   6.184 -0.0859  0.0633 -0.1751
 2065OCT     C2 4130  10.950   6.420   6.328  0.1698 -0.0009 -0.4185
 2066OCT     C1 4131  15.546   1.864   0.662 -0.1894  0.0207 -0.0914
 2066OCT     C2 4132  15.678   1.884   1.150 -0.1332 -0.0577  0.0031
 2067OCT     C1 4133   0.481   1.344  13.638 -0.0521 -0.3408 -0.2522
 2067OCT     C2 4134   0.554   1.840  13.509  0.0543 -0.3244 -0.3434
 2068OCT     C1 4135  22.379   2.169  15.905  0.2052  0.2284 -0.0894
 2068OCT     C2 4136  22.627   2.455  15.658  0.0393 -0.1419 -0.0818
 2069OCT     C1 4137   2.918   1.120  21.686 -0.1285  0.2588  0.0541
 2069OCT     C2 4138   3.037   0.835  22.071 -0.0635 -0.1816  0.0774
 2070OCT     C1 4139   5.278   5.354  11.385 -0.1077  0.1775  0.0311
 2070OCT     C2 4140   5.433   4.902  11.232 -0.1382  0.1301  0.2720
 2071OCT     C1 4141  16.790   6.963   8.044  0.0634 -0.2694 -0.0035
 2071OCT     C2 4142  16.723   6.588   8.317  0.1289  0.1245  0.0583
 2072OCT     C1 4143  12.901  18.001   4.993 -0.3224  0.3346 -0.0385
 2072OCT     C2 4144  13.047  18.408   5.098 -0.0968 -0.0405 -0.0882
 2073OCT     C1 4145  12.717  13.968   5.298  0.0829  0.0211 -0.4810
 2073OCT     C2 4146  12.813  13.531   5.280  0.1321  0.0763  0.0005
 2074OCT     C1 4147  23.229  16.451  14.018 -0.2051 -0.2445  0.6167
 2074OCT     C2 4148  23.316  16.044  14.194  0.0316 -0.2897  0.2927
 2075OCT     C1 4149  19.158   4.131   8.720 -0.0324 -0.1480  0.1178
 2075OCT     C2 4150  18.863   4.356   8.949 -0.3903  0.3458  0.0145
 2076OCT     C1 4151  13.438   8.248   9.155 -0.1752  0.0566  0.0145
 2076OCT     C2 4152  13.120   8.217   8.819  0.1083  0.0878  0.0639
 2077OCT     C1 4153  19.480  20.562   7.932 -0.1262 -0.0901 -0.0712
 2077OCT     C2 4154  19.691  20.479   8.314 -0.2454 -0.1767  0.1358
 2078OCT     C1 4155   7.116   2.870  15.805 -0.1209 -0.4050 -0.3733
 2078OCT     C2 4156   6.734   2.962  16.046  0.3846 -0.3910 -0.4733
 2079OCT     C1 4157  22.765  14.225  12.984 -0.3670 -0.2837  0.0430
 2079OCT     C2 4158  22.916  13.833  13.257  0.1181  0.1036 -0.1058
 2080OCT     C1 4159  22.197  21.585   1.118  0.0000 -0.2109  0.1636
 2080OCT     C2 4160  22.489  21.469   1.457 -0.2757  0.1313  0.1493
 2081OCT     C1 4161  11.810  10.381   0.780 -0.0218  0.2783 -0.2760
 2081OCT     C2 4162  11.771  10.088   0.459  0.1254 -0.2861  0.0160
 2082OCT     C1 4163  20.961  17.062  13.282 -0.1777  0.3420 -0.0374
 2082OCT     C2 4164  20.924  16.780  12.961  0.2792  0.0788  0.1125
 2083OCT     C1 4165  16.456  10.132  22.267  0.0349  0.1279 -0.0596
 2083OCT     C2 4166  16.417  10.499  21.996 -0.0904  0.3774 -0.2175
 2084OCT     C1 4167   1.490  14.928  20.404  0.2828  0.1370  0.0339
 2084OCT     C2 4168   1.283  14.900  19.953 -0.0598  0.0384  0.0122
 2085OCT     C1 4169  16.626   4.652   2.933 -0.1390 -0.5591  0.0402
 2085OCT     C2 4170  16.722   5.028   2.658 -0.1916 -0.0857  0.1761
 2086OCT     C1 4171  22.922  15.378   3.677  0.3527  0.0713 -0.4899
 2086OCT     C2 4172  23.075  15.539   4.134  0.0882  0.0048  0.3869
 2087OCT     C1 4173   7.064  15.729  16.368  0.1762 -0.0447  0.0621
 2087OCT     C2 4174   7.418  15.661  16.644 -0.0654  0.1768  0.1079
 2088OCT     C1 4175   8.639   2.985  19.351 -0.2377 -0.0801  0.1903
 2088OCT     C2 4176   8.765   2.852  18.894 -0.0076 -0.1524  0.0917
 2089OCT     C1 4177  15.456  21.000   8.441  0.1708 -0.0497  0.1844
 2089OCT     C2 4178  15.135  20.652   8.630 -0.1051 -0.0118  0.2629
 2090OCT     C1 4179  11.972   7.502   5.123 -0.4754  0.0467  0.3455
 2090OCT     C2 4180  11.505   7.424   5.123 -0.1850 -0.1125 -0.0887
 2091OCT     C1 4181  12.903  17.304  16.853 -0.0591  0.3047  0.1100
 2091OCT     C2 4182  12.984  17.024  17.206 -0.2324  0.1016 -0.1315
 2092OCT     C1 4183  14.505  21.060  12.978  0.0857  0.1188 -0.1402
 2092OCT     C2 4184  14.163  20.815  12.834  0.1207  0.2919  0.3840
 2093OCT     C1 4185  16.341  17.007  18.032 -0.1528  0.1022  0.0999
 2093OCT     C2 4186  16.553  17.408  17.857 -0.0786 -0.3750  0.5469
 2094OCT     C1 4187   3.264  16.409  18.231  0.0912 -0.3647  0.1167
 2094OCT     C2 4188   3.370  15.990  17.971 -0.2741  0.3920  0.0972
 2095OCT     C1 4189   4.074   7.463  23.249  0.2810  0.1633 -0.1846
 2095OCT     C2 4190   4.207   7.002  23.164 -0.0070 -0.0692  0.0816
 2096OCT     C1 4191  14.244   4.869  17.883  0.0101 -0.0896 -0.1497
 2096OCT     C2 4192  14.172   4.455  18.034  0.0141 -0.0073  0.0499
 2097OCT     C1 4193   7.053   2.466   3.719 -0.1809 -0.0352  0.1947
 2097OCT     C2 4194   7.038   2.653   3.239  0.2212 -0.0014 -0.2145
 2098OCT     C1 4195  17.839  16.083  18.295  0.1119 -0.0359 -0.1391
 2098OCT     C2 4196  18.037  15.663  18.483 -0.5839  0.0197 -0.0069
 2099OCT     C1 4197  14.970   2.926  21.777 -0.2845 -0.0278 -0.0657
 2099OCT     C2 4198  15.337   2.823  21.548  0.3056 -0.2444 -0.3275
 2100OCT     C1 4199   4.742   0.716   0.703  0.0483  0.2022  0.0002
 2100OCT     C2 4200   4.469   0.524   0.345  0.4645 -0.2456  0.4208
 2101OCT     C1 4201  15.524  13.906  13.908 -0.4772 -0.2590  0.1737
 2101OCT     C2 4202  15.238  14.200  13.826 -0.0939  0.1463 -0.1402
 2102OCT     C1 4203   3.038   2.099  18.794  0.4250 -0.2390 -0.2484
 2102OCT     C2 4204   2.909   2.158  19.212  0.0665 -0.0913 -0.1045
 2103OCT     C1 4205   3.097   1.841   3.044 -0.1597  0.0307  0.2497
 2103OCT     C2 4206   3.553   1.912   3.051 -0.2302 -0.1780 -0.5539
 2104OCT     C1 4207  15.757   5.944  10.890 -0.1300  0.0760 -0.0002
 2104OCT     C2 4208  15.888   6.283  10.601  0.3375  0.3390 -0.2756
 2105OCT     C1 4209   0.008  14.530  14.808  0.1287  0.0917  0.2908
 2105OCT     C2 4210   0.315  14.605  15.086  0.1148 -0.1574  0.2106
 2106OCT     C1 4211  23.688  18.139  12.153 -0.1318 -0.1314  0.2387
 2106OCT     C2 4212  23.622  18.263  11.676  0.1617  0.2853  0.2512
 2107OCT     C1 4213  21.885  14.074   1.627 -0.2951  0.0866  0.1318
 2107OCT     C2 4214  21.962  14.363   1.273  0.1900 -0.0353 -0.0363
 2108OCT     C1 4215   4.878   0.547  19.107  0.1036  0.0332  0.0453
 2108OCT     C2 4216   5.021   0.919  19.311 -0.2822 -0.1427 -0.1028
 2109OCT     C1 4217  12.288   9.805  22.108 -0.2238 -0.2547  0.0265
 2109OCT     C2 4218  12.200  10.047  21.768  0.3755  0.1171  0.0834
 2110OCT     C1 4219  22.764   8.197  22.798  0.1516 -0.0751  0.0815
 2110OCT     C2 4220  22.441   7.994  23.059 -0.0375 -0.3346 -0.2291
 2111OCT     C1 4221  19.934   7.764  21.137 -0.0457  0.0511 -0.2534
 2111OCT     C2 4222  20.246   8.090  21.289  0.0224 -0.0379 -0.0812
 2112OCT     C1 4223   1.697   7.029   4.780  0.1954 -0.1264  0.3754
 2112OCT     C2 4224   1.981   6.868   5.096 -0.3241  0.2964  0.1194
 2113OCT     C1 4225  15.277   2.214   1.992  0.3157  0.1432  0.0465
 2113OCT     C2 4226  15.257   2.402   1.554 -0.0997  0.0006 -0.0034
 2114OCT     C1 4227   5.788   3.431   9.877  0.0207  0.1162  0.0687
 2114OCT     C2 4228   5.952   3.244  10.222 -0.1254  0.2273  0.1165
 2115OCT     C1 4229   3.934  11.025  13.135  0.0480  0.0232  0.3271
 2115OCT     C2 4230   4.254  10.966  13.411 -0.1634 -0.2554 -0.4063
 2116OCT     C1 4231  18.121   1.952  18.228  0.1932 -0.3356  0.0397
 2116OCT     C2 4232  18.519   1.738  18.171 -0.1699 -0.1000  0.0474
 2117OCT     C1 4233   6.536   3.492   5.459 -0.1193  0.1590 -0.2183
 2117OCT     C2 4234   6.638   3.929   5.453  0.1648  0.1656 -0.1628
 2118OCT     C1 4235  16.475  22.223   9.934 -0.1672  0.1924 -0.3003
 2118OCT     C2 4236  16.708  21.789   9.988  0.2709 -0.3071  0.1113
 2119OCT     C1 4237   4.609  15.894  18.206 -0.0981  0.0531 -0.1378
 2119OCT     C2 4238   4.298  16.247  18.034 -0.0598 -0.0099  0.1143
 2120OCT     C1 4239   2.668   2.063  23.228  0.1679  0.1813 -0.1366
 2120OCT     C2 4240   2.465   2.317  22.885  0.0858 -0.3752 -0.0245
 2121OCT     C1 4241   8.523   8.642  19.242  0.0337  0.1973  0.0068
 2121OCT     C2 4242   8.704   8.448  19.644  0.1678 -0.1457 -0.0236
 2122OCT     C1 4243   1.193  12.274   9.231  0.2614 -0.0375 -0.0912
 2122OCT     C2 4244   0.916  12.350   8.865  0.0686 -0.1242  0.0040
 2123OCT     C1 4245   8.939  13.231  18.411 -0.1472 -0.2095 -0.0505
 2123OCT     C2 4246   9.203  13.107  18.063 -0.1714  0.0737 -0.1152
 2124OCT     C1 4247  11.676  17.355  15.921  0.1999  0.2349 -0.1513
 2124OCT     C2 4248  11.784  17.370  15.526 -0.2888  0.0210  0.1092
 2125OCT     C1 4249  12.226  14.647   7.090 -0.0859 -0.0054  0.0346
 2125OCT     C2 4250  11.795  14.793   7.232  0.2644  0.0612 -0.2059
 2126OCT     C1 4251  14.844   2.945   1.032  0.0314 -0.1983  0.1328
 2126OCT     C2 4252  14.858   2.460   1.119  0.3610 -0.1864 -0.2538
 2127OCT     C1 4253  16.517   1.281   7.810  0.2059 -0.0409 -0.1528
 2127OCT     C2 4254  16.629   1.697   7.980 -0.0186  0.1949 -0.0375
 2128OCT     C1 4255   7.666   2.250   9.157 -0.1642 -0.1083 -0.1943
 2128OCT     C2 4256   7.393   1.921   9.445 -0.4506  0.1944 -0.0883
 2129OCT     C1 4257   3.548  22.653   0.127  0.3863  0.2364  0.0292
 2129OCT     C2 4258   3.665  22.169  23.680 -0.0963  0.1090 -0.2448
 2130OCT     C1 4259  19.762   8.606  21.366  0.0442 -0.1361 -0.2746
 2130OCT     C2 4260  20.071   8.916  21.243 -0.5126 -0.1766  0.1719
 2131OCT     C1 4261  13.521   8.271   8.491 -0.1069  0.0341 -0.1881
 2131OCT     C2 4262  13.278   8.068   8.111  0.2886  0.2733  0.2399
 2132OCT     C1 4263   2.361  16.446  23.552  0.0350  0.3776 -0.1161
 2132OCT     C2 4264   2.238  16.767  23.209 -0.2739  0.2649  0.0811
 2133OCT     C1 4265   3.366   5.391  23.521 -0.0452 -0.0431 -0.2297
 2133OCT     C2 4266   3.791   5.603  23.602 -0.0950  0.0633  0.0089
 2134OCT     C1 4267   5.554  20.494   3.540 -0.3311  0.2369  0.6349
 2134OCT     C2 4268   5.312  20.351   3.165  0.2287  0.3442 -0.6000
 2135OCT     C1 4269  18.029  23.457   2.592 -0.0315 -0.1627  0.6123
 2135OCT     C2 4270  18.511  23.549   2.501 -0.1865  0.3851  0.0481
 2136OCT     C1 4271   3.914  20.673  19.188 -0.2007  0.0913 -0.1539
 2136OCT     C2 4272   3.702  20.252  19.034 -0.1511  0.0924  0.1857
 2137OCT     C1 4273   7.646   3.057  12.555 -0.0429  0.0231  0.2234
 2137OCT     C2 4274   7.916   2.673  12.640 -0.1148 -0.1156  0.2346
 2138OCT     C1 4275   0.371   2.282   6.484 -0.0509  0.1362 -0.3757
 2138OCT     C2 4276   0.285   2.581   6.810 -0.2632  0.1897  0.0331
 2139OCT     C1 4277  19.710  18.045   4.957  0.3373 -0.0860  0.0965
 2139OCT     C2 4278  19.654  17.602   4.801 -0.0798 -0.2370  0.1420
 2140OCT     C1 4279  12.207   0.046  14.759 -0.1350 -0.1128  0.0266
 2140OCT     C2 4280  12.109   0.469  14.597  0.2042  0.1582  0.0243
 2141OCT     C1 4281  10.510   1.462  17.905  0.1584 -0.0665 -0.1228
 2141OCT     C2 4282  10.232   1.923  17.843 -0.2131  0.1820  0.1506
 2142OCT     C1 4283  21.307  14.250  10.042  0.1880  0.1479 -0.1115
 2142OCT     C2 4284  21.511  14.610   9.786 -0.1327 -0.1954  0.2247
 2143OCT     C1 4285  19.690  16.318  16.725  0.0286 -0.1166  0.3733
 2143OCT     C2 4286  19.319  16.055  16.750 -0.0664  0.1808 -0.1971
 2144OCT     C1 4287  18.472  13.541  14.290 -0.1987  0.3946 -0.0533
 2144OCT     C2 4288  18.429  13.052  14.208 -0.1095  0.0328 -0.0581
 2145OCT     C1 4289  10.151   6.277   2.344 -0.2705  0.0314  0.1118
 2145OCT     C2 4290   9.831   5.956   2.533 -0.0655  0.1756 -0.1341
 2146OCT     C1 4291   9.807  13.864  21.413 -0.0555  0.1239 -0.0714
 2146OCT     C2 4292  10.039  14.227  21.150 -0.4218  0.2409 -0.1078
 2147OCT     C1 4293   2.147  20.761   2.125  0.0934 -0.1069  0.3058
 2147OCT     C2 4294   1.913  20.348   1.950 -0.4939 -0.2629 -0.0087
 2148OCT     C1 4295   7.334  21.639   4.245 -0.4605 -0.0052 -0.1692
 2148OCT     C2 4296   7.494  21.703   3.801 -0.1162 -0.1522 -0.1451
 2149OCT     C1 4297   2.102  13.240   5.936  0.2634  0.0297  0.0391
 2149OCT     C2 4298   1.855  13.631   6.104 -0.0057  0.2182  0.0884
 2150OCT     C1 4299  13.938  22.809   7.631  0.1523 -0.1168 -0.2717
 2150OCT     C2 4300  13.666  22.510   7.339 -0.1149 -0.0487  0.1319
 2151OCT     C1 4301  12.337   2.376  12.224  0.0228 -0.1844  0.1308
 2151OCT     C2 4302  12.060   2.527  12.590  0.0863  0.1181  0.2886
 2152OCT     C1 4303   2.232  15.459  23.068 -0.1401 -0.4088  0.1023
 2152OCT     C2 4304   2.481  15.819  22.951 -0.2653 -0.0561  0.1212
 2153OCT     C1 4305  15.077  11.959   0.022 -0.1625 -0.1205  0.2385
 2153OCT     C2 4306  14.982  11.575   0.344 -0.2591 -0.3756 -0.2265
 2154OCT     C1 4307   7.610  19.388   2.796  0.1872 -0.2763 -0.0416
 2154OCT     C2 4308   7.564  19.668   3.153 -0.0816 -0.1299 -0.1290
 2155OCT     C1 4309   1.706  14.821  16.469  0.0451 -0.0522 -0.1716
 2155OCT     C2 4310   1.520  14.385  16.355  0.5393 -0.2137 -0.0680
 2156OCT     C1 4311  18.385  17.569   2.933  0.3645  0.1169 -0.0030
 2156OCT     C2 4312  17.943  17.697   2.768 -0.1148  0.3828 -0.0338
 2157OCT     C1 4313   6.048  12.221  14.401 -0.0307 -0.0398  0.0895
 2157OCT     C2 4314   6.352  12.067  14.702  0.2169 -0.0610  0.3311
 2158OCT     C1 4315  16.157  12.295   6.512  0.1375  0.1903 -0.2881
 2158OCT     C2 4316  16.414  12.177   6.898  0.0729  0.0872  0.1073
 2159OCT     C1 4317   4.885  20.009   4.637 -0.0222  0.2206  0.3382
 2159OCT     C2 4318   5.022  19.793   5.020 -0.1081  0.1260 -0.0321
 2160OCT     C1 4319   3.131  18.473   5.743 -0.2402 -0.0863 -0.1907
 2160OCT     C2 4320   2.802  18.732   5.524 -0.4208  0.1910 -0.2308
 2161OCT     C1 4321  11.702  11.580  12.184 -0.0642 -0.0393  0.0141
 2161OCT     C2 4322  11.660  11.410  12.616 -0.1601 -0.3150  0.1021
 2162OCT     C1 4323  17.683   1.060   3.739  0.1124 -0.1579  0.1334
 2162OCT     C2 4324  17.561   0.740   4.063  0.3570 -0.1512  0.4174
 2163OCT     C1 4325   7.101  22.083   6.139  0.1543 -0.4346  0.0978
 2163OCT     C2 4326   6.887  21.839   6.519  0.1932  0.2469  0.0670
 2164OCT     C1 4327  21.130   6.349  15.833  0.0852  0.3265  0.1859
 2164OCT     C2 4328  20.893   6.707  15.828  0.0910 -0.1431 -0.0565
 2165OCT     C1 4329  17.104  13.804  15.402  0.2093 -0.3262  0.2181
 2165OCT     C2 4330  16.647  13.850  15.361  0.0167  0.1258 -0.3230
 2166OCT     C1 4331  14.076  17.853  15.769  0.0867  0.1458  0.2347
 2166OCT     C2 4332  14.090  17.562  15.415 -0.1754 -0.3098  0.1133
 2167OCT     C1 4333  18.538   1.538  18.816 -0.0453  0.0667  0.3852
 2167OCT     C2 4334  18.917   1.451  18.572 -0.1215 -0.1195 -0.1987
 2168OCT     C1 4335   0.600  19.142   8.102  0.0831  0.2162 -0.1034
 2168OCT     C2 4336   0.208  18.931   8.055 -0.0357  0.1255  0.2427
 2169OCT     C1 4337  11.337  11.985   8.904  0.1542  0.1904  0.3134
 2169OCT     C2 4338  11.751  11.867   9.214  0.2375  0.1428  0.2041
 2170OCT     C1 4339   6.463   0.797   8.808 -0.0474  0.0231  0.4293
 2170OCT     C2 4340   6.096   0.821   8.543 -0.1129 -0.0401 -0.1535
 2171OCT     C1 4341   0.029  14.625   7.561 -0.3406  0.3218  0.1877
 2171OCT     C2 4342  23.521  15.018   7.776 -0.4257  0.2113  0.0786
 2172OCT     C1 4343  15.869   3.250  16.163  0.3774  0.1114 -0.1544
 2172OCT     C2 4344  16.317   3.230  15.976 -0.0006 -0.1548  0.1109
 2173OCT     C1 4345  14.956   7.357   0.641  0.2033  0.0074 -0.0875
 2173OCT     C2 4346  15.182   7.004   0.549 -0.0211 -0.5752  0.2601
 2174OCT     C1 4347   1.940  15.163   4.075 -0.3024 -0.3308  0.0884
 2174OCT     C2 4348   2.424  15.214   4.049  0.0421 -0.0900  0.1594
 2175OCT     C1 4349   3.968   7.022  16.694 -0.1517  0.2459 -0.0951
 2175OCT     C2 4350   3.840   6.621  16.433  0.3407 -0.0675  0.0123
 2176OCT     C1 4351  15.367   0.694  12.148  0.1266 -0.2721  0.0362
 2176OCT     C2 4352  15.316   0.258  12.007  0.1011 -0.0665 -0.2194
 2177OCT     C1 4353   5.639  12.353  11.329 -0.0103  0.1106 -0.2731
 2177OCT     C2 4354   5.805  11.950  11.608 -0.2656 -0.0648 -0.2997
 2178OCT     C1 4355  13.983   0.382  21.796  0.2293 -0.3005 -0.1726
 2178OCT     C2 4356  14.357   0.527  22.001 -0.0790  0.1204  0.0023
 2179OCT     C1 4357   2.149   4.103   2.664 -0.0390  0.0186  0.1658
 2179OCT     C2 4358   1.979   4.087   3.132  0.0421  0.2311  0.2041
 2180OCT     C1 4359   1.876   1.235  15.636  0.1054  0.0334 -0.0462
 2180OCT     C2 4360   1.947   0.766  15.427  0.2769 -0.0432 -0.3010
 2181OCT     C1 4361  22.423   2.834   9.846  0.3467  0.2028  0.2693
 2181OCT     C2 4362  22.099   2.552   9.670 -0.4376  0.0252 -0.0613
 2182OCT     C1 4363  18.394   4.044   1.498 -0.0772  0.0821  0.4525
 2182OCT     C2 4364  18.776   4.197   1.683  0.2714 -0.2929  0.0553
 2183OCT     C1 4365   4.911  16.059  12.364  0.3319 -0.0663  0.2210
 2183OCT     C2 4366   4.760  16.368  12.677 -0.0576 -0.0936 -0.3103
 2184OCT     C1 4367  21.669   3.214   9.172  0.0425 -0.0183  0.3802
 2184OCT     C2 4368  21.328   3.304   9.488 -0.1018  0.3625 -0.1439
 2185OCT     C1 4369   3.777  19.291  11.455 -0.1294  0.0591  0.2185
 2185OCT     C2 4370   3.725  18.867  11.241 -0.1524  0.1029  0.2099
 2186OCT     C1 4371  11.482   4.934  22.966  0.1175 -0.1797  0.3758
 2186OCT     C2 4372  11.388   4.555  22.672  0.0413 -0.0390  0.0516
 2187OCT     C1 4373  10.265  19.495  21.732  0.0751  0.1428  0.0560
 2187OCT     C2 4374  10.604  19.328  21.982  0.0049 -0.0888  0.3460
 2188OCT     C1 4375  14.894   5.291   8.968  0.2047  0.0588 -0.4037
 2188OCT     C2 4376  15.022   5.655   9.180  0.1284  0.1553 -0.0484
 2189OCT     C1 4377  15.495  17.333  10.489  0.2259 -0.2506  0.0133
 2189OCT     C2 4378  15.643  17.700  10.288  0.2183 -0.0271 -0.0947
 2190OCT     C1 4379  11.657  13.924  20.495 -0.1182 -0.0725  0.0415
 2190OCT     C2 4380  11.353  13.769  20.781  0.3738  0.0318 -0.1333
 2191OCT     C1 4381   9.936   2.031   5.342 -0.1695  0.3352 -0.2808
 2191OCT     C2 4382   9.483   2.105   5.315  0.1032 -0.0662 -0.3944
 2192OCT     C1 4383   1.023   1.641  23.062  0.1957  0.1350  0.0678
 2192OCT     C2 4384   1.291   1.951  22.860 -0.1333 -0.1247 -0.0340
 2193OCT     C1 4385  14.524   6.187  15.159  0.2996 -0.0371 -0.0143
 2193OCT     C2 4386  14.623   6.599  14.889 -0.2016  0.2125  0.1217
 2194OCT     C1 4387   3.763   3.158  14.236 -0.1275 -0.0358  0.1481
 2194OCT     C2 4388   3.396   3.147  13.904  0.2376 -0.1526  0.0908
 2195OCT     C1 4389   0.822   8.225  16.476 -0.0272 -0.1900 -0.0271
 2195OCT     C2 4390   0.512   8.590  16.408 -0.2661 -0.0455 -0.2016
 2196OCT     C1 4391   5.568  11.245   6.851  0.0553  0.1956  0.2031
 2196OCT     C2 4392   5.698  11.058   6.436 -0.1369 -0.1372  0.3057
 2197OCT     C1 4393   6.361  11.588  15.304  0.2196  0.0165  0.2890
 2197OCT     C2 4394   6.590  11.995  15.238 -0.1358 -0.0576 -0.1870
 2198OCT     C1 4395  22.406  16.566   9.096 -0.1974 -0.2138  0.0304
 2198OCT     C2 4396  22.168  16.691   8.746 -0.2691 -0.2686  0.2463
 2199OCT     C1 4397   8.406   5.907  20.231 -0.0101  0.2740 -0.1036
 2199OCT     C2 4398   8.037   5.797  19.976  0.2259  0.3556  0.1314
 2200OCT     C1 4399  20.003  19.263  17.758 -0.3139  0.0894  0.0505
 2200OCT     C2 4400  19.800  19.511  17.382 -0.3082 -0.1838  0.1093
 2201OCT     C1 4401  10.022  14.261   2.228  0.2061  0.2034  0.0853
 2201OCT     C2 4402   9.709  13.908   2.382  0.1072  0.0883 -0.1310
 2202OCT     C1 4403  21.155  10.783  18.930  0.2324 -0.1959 -0.1786
 2202OCT     C2 4404  21.425  10.961  19.301  0.1034  0.2432  0.1403
 2203OCT     C1 4405   7.928   9.577  18.477 -0.0279  0.0579 -0.0351
 2203OCT     C2 4406   8.340   9.458  18.309  0.0881  0.1713  0.0485
 2204OCT     C1 4407  10.943   4.729  19.776  0.0119 -0.0688 -0.0819
 2204OCT     C2 4408  11.097   5.121  19.881 -0.3066 -0.2638 -0.0777
 2205OCT     C1 4409  10.274   3.623   9.056 -0.2347 -0.3204  0.0048
 2205OCT     C2 4410  10.031   4.036   9.153 -0.1559  0.1563  0.0760
 2206OCT     C1 4411   1.534   5.489   2.956 -0.0736  0.0243  0.0418
 2206OCT     C2 4412   1.177   5.208   2.912  0.1474 -0.2129 -0.2905
 2207OCT     C1 4413  19.124   2.402  23.390 -0.1888 -0.0912  0.0900
 2207OCT     C2 4414  18.690   2.585  23.345  0.0085 -0.2076 -0.0772
 2208OCT     C1 4415   2.851  17.690  11.292  0.0289  0.1562  0.4140
 2208OCT     C2 4416   2.680  17.936  11.636 -0.3178 -0.1114 -0.1880
 2209OCT     C1 4417   8.573   7.285  18.314 -0.0737 -0.2197  0.0278
 2209OCT     C2 4418   8.175   7.243  18.167  0.0045  0.2347 -0.0808
 2210OCT     C1 4419  23.501  22.923  20.616 -0.4926  0.1125  0.0067
 2210OCT     C2 4420  23.035  22.913  20.629 -0.0530  0.0097  0.0491
 2211OCT     C1 4421  22.723  13.598  21.339 -0.0617 -0.1113 -0.1798
 2211OCT     C2 4422  22.932  13.202  21.076 -0.0325  0.0426 -0.0030
 2212OCT     C1 4423   0.588  11.372  18.824 -0.0475  0.2776 -0.4595
 2212OCT     C2 4424   0.435  11.407  18.384 -0.2426  0.1627 -0.1083
 2213OCT     C1 4425  12.981  12.413  20.087  0.0280  0.1261  0.0973
 2213OCT     C2 4426  12.558  12.644  20.101  0.0565  0.1381 -0.0974
 2214OCT     C1 4427  12.974  20.920   1.930  0.0070 -0.0495 -0.2957
 2214OCT     C2 4428  13.094  20.479   1.832  0.0659 -0.0667 -0.4463
 2215OCT     C1 4429   2.683   1.603  23.503  0.0867  0.2622  0.2738
 2215OCT     C2 4430   2.651   1.136  23.441  0.2163 -0.2554  0.0963
 2216OCT     C1 4431  23.252   1.976   1.703 -0.0880 -0.0214 -0.2015
 2216OCT     C2 4432  23.076   2.322   1.995 -0.0151 -0.4614  0.0383
 2217OCT     C1 4433  21.199  18.842  14.246  0.2681  0.2523  0.0933
 2217OCT     C2 4434  21.389  19.306  14.322  0.1780 -0.3214 -0.2414
 2218OCT     C1 4435   6.580   4.653  15.619  0.0255  0.0685 -0.0889
 2218OCT     C2 4436   7.053   4.569  15.530 -0.2430  0.2440 -0.1463
 2219OCT     C1 4437   2.240   1.315   0.529 -0.4251 -0.0492 -0.2064
 2219OCT     C2 4438   2.045   1.584   0.877  0.0042 -0.0061 -0.1523
 2220OCT     C1 4439   4.485  23.238   2.724  0.0318 -0.2777  0.1818
 2220OCT     C2 4440   4.066  23.157   2.581 -0.5167  0.1904  0.2258
 2221OCT     C1 4441   1.538  16.601  19.202 -0.2243 -0.2090 -0.0204
 2221OCT     C2 4442   1.233  16.450  19.578 -0.1459  0.0819 -0.1508
 2222OCT     C1 4443  22.390  22.330  18.877  0.1470 -0.0542 -0.0905
 2222OCT     C2 4444  22.212  22.625  18.568 -0.0473  0.0742  0.3128
 2223OCT     C1 4445   9.085  13.578   4.011  0.0680 -0.0115  0.0132
 2223OCT     C2 4446   9.109  13.627   4.460 -0.0343 -0.0050 -0.0978
 2224OCT     C1 4447  12.071   1.295  18.460  0.0514 -0.1744 -0.1971
 2224OCT     C2 4448  12.183   0.807  18.570  0.2357  0.1015 -0.0047
 2225OCT     C1 4449  22.750  11.698   9.330  0.1109  0.2813 -0.1469
 2225OCT     C2 4450  22.462  11.568   9.047  0.0962  0.0073  0.1621
 2226OCT     C1 4451   5.929  11.735  10.107  0.2517 -0.0395 -0.0794
 2226OCT     C2 4452   5.951  11.806   9.637  0.0831  0.0730 -0.3910
 2227OCT     C1 4453  12.799   8.819  21.847 -0.0578 -0.1417  0.1875
 2227OCT     C2 4454  12.800   8.815  21.378  0.2829 -0.1174  0.2432
 2228OCT     C1 4455  22.838  12.007  12.959  0.0270  0.0270 -0.1310
 2228OCT     C2 4456  22.827  11.708  13.308 -0.2982  0.0350  0.1230
 2229OCT     C1 4457  13.148   3.474   9.860  0.2543 -0.0688  0.0592
 2229OCT     C2 4458  13.452   3.368  10.160 -0.3476  0.2453  0.1603
 2230OCT     C1 4459  22.366  11.990   1.946  0.1484  0.0688 -0.0213
 2230OCT     C2 4460  22.165  12.249   1.617 -0.0688  0.0633 -0.1084
 2231OCT     C1 4461  13.109   5.437   4.824  0.3372 -0.0775  0.2825
 2231OCT     C2 4462  13.166   5.117   4.502  0.1565  0.0130  0.0018
 2232OCT     C1 4463  22.404  17.638   9.920  0.1237  0.1215  0.0069
 2232OCT     C2 4464  22.177  17.412  10.275  0.3820 -0.2509  0.2959
 2233OCT     C1 4465  13.625   1.398  22.248  0.5006 -0.0940  0.1299
 2233OCT     C2 4466  13.247   1.387  22.442 -0.0498 -0.1835 -0.0409
 2234OCT     C1 4467   7.813  15.180  11.556 -0.5738 -0.2379  0.0506
 2234OCT     C2 4468   8.134  15.460  11.757  0.1580  0.1305 -0.2972
 2235OCT     C1 4469   0.599  13.017   6.110 -0.0038 -0.0145 -0.0105
 2235OCT     C2 4470   0.121  12.869   6.018 -0.0524  0.3451  0.2307
 2236OCT     C1 4471  13.678  10.838  17.754 -0.0789  0.0108  0.0250
 2236OCT     C2 4472  14.074  10.792  17.518  0.0647 -0.0663 -0.1651
 2237OCT     C1 4473   1.682  20.077  10.113  0.1759  0.0856 -0.1366
 2237OCT     C2 4474   1.991  19.778   9.861  0.0111  0.5074 -0.2449
 2238OCT     C1 4475   7.347   6.470  17.904  0.2316 -0.0592 -0.3117
 2238OCT     C2 4476   7.002   6.775  17.754  0.1864  0.0139 -0.0594
 2239OCT     C1 4477  19.936   1.253  22.321  0.0748 -0.1710 -0.0389
 2239OCT     C2 4478  19.667   1.110  21.985  0.1222 -0.0862 -0.0505
 2240OCT     C1 4479  15.526  12.848   2.182 -0.4176  0.1120  0.0998
 2240OCT     C2 4480  15.361  13.035   2.628  0.2703 -0.4536  0.0493
 2241OCT     C1 4481   0.640   0.851  14.172  0.1677 -0.0829  0.2500
 2241OCT     C2 4482   0.273   0.814  13.884  0.0695  0.2258  0.1099
 2242OCT     C1 4483   5.409   6.568   1.287  0.0563  0.1455  0.2703
 2242OCT     C2 4484   5.838   6.392   1.196  0.1076 -0.2308  0.0168
 2243OCT     C1 4485  20.437  18.834  18.577  0.1880  0.1378 -0.2106
 2243OCT     C2 4486  20.189  18.700  18.971  0.3868 -0.1953  0.3388
 2244OCT     C1 4487  14.776  11.509  10.794 -0.0231 -0.1732 -0.1389
 2244OCT     C2 4488  15.208  11.570  10.795 -0.2730  0.1773  0.0961
 2245OCT     C1 4489  11.464   3.450   4.013 -0.0467  0.0562 -0.3186
 2245OCT     C2 4490  11.385   3.503   3.530  0.2050 -0.1044  0.0681
 2246OCT     C1 4491   6.865   4.262  15.121 -0.0314 -0.3214  0.3645
 2246OCT     C2 4492   7.335   4.230  15.204  0.2749 -0.0751 -0.2054
 2247OCT     C1 4493  19.910  10.966   0.898  0.1393  0.1318 -0.0066
 2247OCT     C2 4494  19.645  10.611   1.116 -0.0087 -0.1141  0.2406
 2248OCT     C1 4495  11.085  11.927  10.070 -0.0699 -0.1249  0.1690
 2248OCT     C2 4496  11.266  12.379  10.093  0.1757 -0.2129 -0.0312
 2249OCT     C1 4497  17.042  15.572  10.437  0.1125  0.0413  0.0254
 2249OCT     C2 4498  16.854  15.130  10.360  0.3281 -0.0376 -0.3930
 2250OCT     C1 4499   2.354  13.905   7.358 -0.0399 -0.2194 -0.1879
 2250OCT     C2 4500   2.453  13.704   6.944  0.1571  0.5367  0.1239
 2251OCT     C1 4501   2.924  16.941  14.000  0.4601 -0.1949 -0.0646
 2251OCT     C2 4502   3.087  16.577  13.802 -0.0529  0.2173  0.0460
 2252OCT     C1 4503   5.003  17.865   6.582  0.0735  0.2671  0.0061
 2252OCT     C2 4504   4.765  18.031   6.880 -0.2809  0.1098 -0.0163
 2253OCT     C1 4505  17.161   2.261   7.018 -0.2159  0.0371 -0.1099
 2253OCT     C2 4506  17.231   2.716   7.200  0.2003  0.0368 -0.2424
 2254OCT     C1 4507  16.294  12.232   8.540 -0.0412  0.1032 -0.2629
 2254OCT     C2 4508  16.442  12.579   8.258  0.1149  0.1294  0.1309
 2255OCT     C1 4509   1.092   1.024  17.172 -0.0832 -0.1191  0.0217
 2255OCT     C2 4510   0.776   1.245  16.939  0.0292 -0.0151 -0.1683
 2256OCT     C1 4511  21.560  13.649  21.395 -0.0492  0.2746  0.3657
 2256OCT     C2 4512  21.851  13.780  21.073  0.1135  0.2514  0.3070
 2257OCT     C1 4513  13.815  18.150  15.475  0.1377  0.2102 -0.3781
 2257OCT     C2 4514  13.733  17.853  15.096  0.2179 -0.0229 -0.1445
 2258OCT     C1 4515  20.130  12.940   9.733  0.0907 -0.1547 -0.1198
 2258OCT     C2 4516  20.489  13.112   9.537  0.1128  0.0514 -0.1199
 2259OCT     C1 4517  16.813   9.188   4.508  0.1058  0.0283  0.0481
 2259OCT     C2 4518  16.973   8.999   4.123 -0.0107  0.3167 -0.1280
 2260OCT     C1 4519   2.131  18.018  16.937  0.1036 -0.3480  0.5888
 2260OCT     C2 4520   2.489  18.183  17.128 -0.2632  0.1554  0.0393
 2261OCT     C1 4521  12.007   5.476  21.639  0.0494  0.0057  0.1526
 2261OCT     C2 4522  12.066   5.892  21.422 -0.2144 -0.2491 -0.0501
 2262OCT     C1 4523   7.138  13.785   3.863 -0.6035 -0.3532 -0.0032
 2262OCT     C2 4524   7.601  13.698   4.021 -0.0111 -0.3073  0.0469
 2263OCT     C1 4525   9.331   4.197  19.799  0.3528  0.2388  0.1333
 2263OCT     C2 4526   9.256   4.589  20.014 -0.3276 -0.1909  0.0661
 2264OCT     C1 4527   5.796  14.906  18.648  0.0486  0.2366  0.1897
 2264OCT     C2 4528   6.008  14.800  19.052 -0.4359 -0.0448 -0.1546
 2265OCT     C1 4529   7.708  12.175  17.559 -0.4223  0.0229  0.2696
 2265OCT     C2 4530   7.581  12.510  17.248  0.3786  0.1440  0.1492
 2266OCT     C1 4531  14.153   8.951  22.794  0.0780  0.3368 -0.2539
 2266OCT     C2 4532  14.226   9.046  23.220  0.1457 -0.0202 -0.1438
 2267OCT     C1 4533  17.050  22.960  14.671  0.3797 -0.0226 -0.2162
 2267OCT     C2 4534  17.011  22.770  15.101 -0.2948 -0.0841  0.1812
 2268OCT     C1 4535   2.087  13.187   9.538 -0.0938 -0.0754 -0.1739
 2268OCT     C2 4536   2.526  13.302   9.480  0.1761  0.3084  0.1875
 2269OCT     C1 4537   9.406   7.934  18.963 -0.0910 -0.1265  0.0787
 2269OCT     C2 4538   9.822   7.699  18.963 -0.1881 -0.2373 -0.1518
 2270OCT     C1 4539  14.187  14.560  17.350 -0.0512 -0.1508 -0.0751
 2270OCT     C2 4540  14.035  14.145  17.372  0.4000  0.1039 -0.0735
 2271OCT     C1 4541  14.407  22.888   9.440  0.0804 -0.2446  0.2525
 2271OCT     C2 4542  14.244  22.452   9.348  0.3236  0.0358 -0.2391
 2272OCT     C1 4543   7.195  15.687   5.452 -0.0704 -0.0917  0.0153
 2272OCT     C2 4544   7.007  16.042   5.133 -0.1689 -0.1592 -0.7114
 2273OCT     C1 4545   6.547  14.266  14.260  0.2322  0.0423  0.0753
 2273OCT     C2 4546   6.386  14.002  14.625 -0.2967  0.0674 -0.1133
 2274OCT     C1 4547  22.091   5.405  18.185 -0.1519  0.2320  0.1371
 2274OCT     C2 4548  22.444   5.358  18.462 -0.1051  0.1929 -0.0078
 2275OCT     C1 4549  15.428  10.339   4.531  0.2865 -0.2260 -0.3731
 2275OCT     C2 4550  15.246  10.431   4.941  0.1191 -0.0834  0.1104
 2276OCT     C1 4551  19.262  13.964   1.831  0.2033  0.0077 -0.2856
 2276OCT     C2 4552  19.587  14.224   1.956 -0.1906 -0.0944 -0.2326
 2277OCT     C1 4553  22.087  14.212   6.295 -0.1443 -0.0354 -0.0016
 2277OCT     C2 4554  22.421  14.027   6.550 -0.1533 -0.2823 -0.0907
 2278OCT     C1 4555  10.820  23.736  23.341  0.1531  0.0728  0.0224
 2278OCT     C2 4556  11.239   0.252  23.325  0.4198 -0.0161  0.0725
 2279OCT     C1 4557   2.843  22.195   5.684 -0.0621 -0.3272  0.2292
 2279OCT     C2 4558   2.422  22.208   5.529 -0.1417 -0.2985 -0.1624
 2280OCT     C1 4559  20.683  18.189  16.883 -0.2858 -0.0136  0.0140
 2280OCT     C2 4560  20.700  18.018  17.325  0.1865  0.0685  0.1831
 2281OCT     C1 4561  16.883   3.761   6.722  0.4364  0.0022  0.1158
 2281OCT     C2 4562  17.051   3.641   7.147  0.0323  0.1066  0.3534
 2282OCT     C1 4563  19.522  10.671   3.551 -0.0806 -0.2452 -0.2274
 2282OCT     C2 4564  19.100  10.479   3.656 -0.0319 -0.0533 -0.3021
 2283OCT     C1 4565   9.278   1.996  18.500 -0.0126 -0.1297 -0.0044
 2283OCT     C2 4566   9.112   2.401  18.676 -0.3504 -0.3160 -0.1388
 2284OCT     C1 4567  19.472  22.902  11.181  0.2496  0.0885 -0.2964
 2284OCT     C2 4568  19.041  22.863  11.015  0.0359 -0.0637 -0.0169
 2285OCT     C1 4569  14.525   0.293  22.751  0.0512  0.0540  0.0628
 2285OCT     C2 4570  14.814   0.059  22.605 -0.1562  0.3406  0.1478
 2286OCT     C1 4571  13.515  20.314  19.409  0.0914  0.0785  0.4311
 2286OCT     C2 4572  13.550  20.764  19.563 -0.0264  0.1150  0.1581
 2287OCT     C1 4573  19.130   2.105  10.342  0.0562  0.2082  0.1200
 2287OCT     C2 4574  18.917   1.705  10.164 -0.0027 -0.4552 -0.0466
 2288OCT     C1 4575  11.117  20.286   1.612 -0.1121 -0.1597 -0.1404
 2288OCT     C2 4576  10.662  20.203   1.579  0.0389  0.3308 -0.1492
 2289OCT     C1 4577  11.137   4.967  10.615 -0.1275  0.0160 -0.0719
 2289OCT     C2 4578  11.118   5.361  10.301 -0.2276 -0.1187 -0.3360
 2290OCT     C1 4579  13.622   5.478   5.773 -0.1828  0.0120  0.1201
 2290OCT     C2 4580  13.316   5.761   5.909 -0.1606 -0.0030 -0.1207
 2291OCT     C1 4581   8.930   0.646  13.658  0.0090 -0.1945 -0.1307
 2291OCT     C2 4582   9.275   0.536  13.368  0.4054 -0.2011 -0.1166
 2292OCT     C1 4583  16.545   2.074  23.646 -0.1435  0.1432  0.1172
 2292OCT     C2 4584  16.294   2.019  23.189  0.2158 -0.0869 -0.2362
 2293OCT     C1 4585  15.183   1.254   8.009  0.3814 -0.3902  0.0477
 2293OCT     C2 4586  15.080   0.767   8.031  0.1095 -0.0229  0.2499
 2294OCT     C1 4587  10.904   2.383  20.853 -0.1420 -0.0036 -0.0234
 2294OCT     C2 4588  10.896   2.829  20.827 -0.1226 -0.0803 -0.1955
 2295OCT     C1 4589  15.741  20.058  19.734 -0.0970 -0.0918 -0.2819
 2295OCT     C2 4590  15.743  20.446  19.429  0.2189  0.0907 -0.1621
 2296OCT     C1 4591   0.864   0.215   4.820 -0.2041  0.3463 -0.2130
 2296OCT     C2 4592   0.556   0.190   5.191  0.0368  0.1698  0.1468
 2297OCT     C1 4593   5.697  21.944  17.454  0.1689  0.1836 -0.0441
 2297OCT     C2 4594   6.157  21.986  17.437 -0.1877 -0.0023  0.4176
 2298OCT     C1 4595   0.549   2.150   5.475  0.2277  0.2554 -0.1840
 2298OCT     C2 4596   0.632   1.837   5.130  0.0827  0.1374 -0.0362
 2299OCT     C1 4597   8.144  21.947  21.185 -0.1153 -0.0093 -0.1154
 2299OCT     C2 4598   8.599  22.022  21.068  0.3514  0.0016  0.1678
 2300OCT     C1 4599  11.667   0.228   6.967  0.3741 -0.1627 -0.0872
 2300OCT     C2 4600  11.779  23.550   7.071  0.0377  0.0263 -0.0133
 2301OCT     C1 4601  15.288   5.658  10.911 -0.2593 -0.0485 -0.2546
 2301OCT     C2 4602  15.253   5.354  10.510 -0.2575  0.2174  0.0698
 2302OCT     C1 4603  20.474  17.754  20.589  0.2040  0.0168 -0.0963
 2302OCT     C2 4604  20.573  18.087  20.307 -0.2297  0.0891 -0.2251
 2303OCT     C1 4605  22.383  11.349  17.648  0.3778 -0.0050  0.2933
 2303OCT     C2 4606  22.345  10.993  17.316 -0.3583 -0.1629 -0.2859
 2304OCT     C1 4607   4.701   0.094   3.439 -0.1940  0.1808 -0.2671
 2304OCT     C2 4608   4.548  23.392   3.275  0.0821 -0.0317 -0.2860
 2305OCT     C1 4609   8.066  12.980  10.846  0.0390  0.2949  0.1128
 2305OCT     C2 4610   8.046  12.973  10.367 -0.1618 -0.2331 -0.0409
 2306OCT     C1 4611  21.093   7.954   6.673  0.1145 -0.2433  0.0982
 2306OCT     C2 4612  21.340   7.865   6.282 -0.0358  0.3439 -0.1312
 2307OCT     C1 4613  10.600   0.212   4.105  0.4072  0.0401  0.1622
 2307OCT     C2 4614  10.192   0.086   4.313  0.2107  0.0851 -0.0090
 2308OCT     C1 4615  11.522  17.568   7.969  0.1935 -0.3158 -0.0202
 2308OCT     C2 4616  11.309  17.943   8.127  0.0798 -0.1430  0.2661
 2309OCT     C1 4617  10.643   1.636  18.411 -0.2128 -0.0889  0.3185
 2309OCT     C2 4618  11.054   1.659  18.568 -0.2850  0.0152 -0.0106
 2310OCT     C1 4619  20.512  21.595  15.811  0.1670 -0.0272 -0.0162
 2310OCT     C2 4620  20.051  21.598  15.573 -0.1459  0.2613 -0.1586
 2311OCT     C1 4621   7.820  17.585   4.623 -0.3839 -0.2903  0.1494
 2311OCT     C2 4622   7.618  17.499   4.982  0.3684  0.1781 -0.2599
 2312OCT     C1 4623  11.800   9.334   4.749 -0.1563 -0.1177 -0.0450
 2312OCT     C2 4624  11.325   9.326   4.778 -0.0757 -0.1555  0.4454
 2313OCT     C1 4625  12.368  18.247   3.751  0.2205  0.0761 -0.0280
 2313OCT     C2 4626  12.016  18.084   3.562  0.0519  0.1492  0.0692
 2314OCT     C1 4627  13.810   8.023   9.480  0.2378  0.0046 -0.2714
 2314OCT     C2 4628  13.374   7.851   9.431 -0.1190  0.0282 -0.1828
 2315OCT     C1 4629   6.995   1.151   9.677 -0.0466 -0.3593  0.0830
 2315OCT     C2 4630   6.945   0.772   9.931 -0.1544 -0.1448  0.1569
 2316OCT     C1 4631  21.083   9.732  15.382 -0.0232 -0.2364 -0.1502
 2316OCT     C2 4632  21.461   9.455  15.479 -0.0098 -0.0485  0.1591
 2317OCT     C1 4633   5.173   0.775  22.550  0.3309 -0.1126  0.1058
 2317OCT     C2 4634   5.574   0.589  22.443 -0.0262 -0.1723 -0.0198
 2318OCT     C1 4635  13.700  14.038   8.924 -0.0373 -0.0405  0.1023
 2318OCT     C2 4636  13.253  13.913   8.788 -0.1226  0.3544 -0.1154
 2319OCT     C1 4637   7.623  11.159  10.934 -0.1535  0.1045  0.2187
 2319OCT     C2 4638   8.000  11.332  11.217 -0.2276  0.1179  0.0100
 2320OCT     C1 4639  13.597   3.832   7.409 -0.3068 -0.1327  0.0679
 2320OCT     C2 4640  13.439   3.436   7.248 -0.0316  0.0221 -0.1463
 2321OCT     C1 4641   4.753  10.303  10.273  0.1273 -0.0512  0.1898
 2321OCT     C2 4642   5.163  10.500  10.419  0.0648 -0.0159  0.1436
 2322OCT     C1 4643   2.078   7.366   1.808  0.0306  0.3138 -0.4928
 2322OCT     C2 4644   1.809   7.376   1.438 -0.3237 -0.1421  0.2371
 2323OCT     C1 4645  13.983   7.798   1.109  0.0200  0.0110  0.1097
 2323OCT     C2 4646  14.377   8.060   0.975  0.0066 -0.0979 -0.0306
 2324OCT     C1 4647  18.370   5.496   0.069 -0.0340 -0.2568 -0.3413
 2324OCT     C2 4648  18.574   5.866   0.310  0.2506  0.1119  0.1448
 2325OCT     C1 4649  23.715  20.219  21.290  0.1465  0.0873  0.0287
 2325OCT     C2 4650   0.437  20.235  21.365 -0.4666 -0.0836  0.0781
 2326OCT     C1 4651  10.506  16.074  10.931 -0.0309 -0.0786  0.1191
 2326OCT     C2 4652  10.831  16.137  10.685  0.3017  0.3519 -0.1092
 2327OCT     C1 4653  22.142   5.360  12.559  0.2835  0.1751 -0.2095
 2327OCT     C2 4654  21.912   5.841  12.432  0.3137 -0.3488  0.0002
 2328OCT     C1 4655   8.133  18.251  13.148 -0.3614  0.0731 -0.2409
 2328OCT     C2 4656   7.676  18.187  12.949  0.5407 -0.1871  0.2714
 2329OCT     C1 4657   6.148  19.513   5.417 -0.1914  0.3728  0.3854
 2329OCT     C2 4658   5.756  19.748   5.377  0.0221  0.2166  0.1936
 2330OCT     C1 4659  15.574   9.715   7.351  0.2952 -0.3742  0.0525
 2330OCT     C2 4660  15.402   9.497   6.979  0.1677  0.2639  0.2794
 2331OCT     C1 4661  12.829   2.219  17.293  0.1302  0.1285  0.0726
 2331OCT     C2 4662  12.534   2.080  17.673 -0.0727 -0.0213  0.2796
 2332OCT     C1 4663  21.342   5.133  14.071 -0.1387 -0.5348  0.1477
 2332OCT     C2 4664  21.227   5.297  13.633  0.1195  0.1652  0.3984
 2333OCT     C1 4665  19.616  13.639   1.817  0.0449 -0.4127  0.3966
 2333OCT     C2 4666  20.054  13.780   1.853 -0.0946  0.3946  0.1347
 2334OCT     C1 4667  18.304  21.870  21.537 -0.1288  0.0426 -0.4457
 2334OCT     C2 4668  18.612  22.178  21.583 -0.3417 -0.3194  0.4524
 2335OCT     C1 4669  14.575  18.802  23.448  0.4655  0.1545 -0.6382
 2335OCT     C2 4670  14.118  18.822  23.354 -0.2386 -0.0959  0.0404
 2336OCT     C1 4671  23.209  23.198  19.233 -0.2249  0.3693 -0.3307
 2336OCT     C2 4672  23.184  23.648  19.359 -0.0631 -0.0784 -0.1435
 2337OCT     C1 4673   7.065  11.360  16.848 -0.3738  0.0256  0.2006
 2337OCT     C2 4674   6.791  11.130  16.576  0.0840 -0.1946 -0.1613
 2338OCT     C1 4675  18.966   8.770   4.816  0.0552 -0.4564  0.1659
 2338OCT     C2 4676  19.359   8.782   5.149  0.0830 -0.1505  0.1965
 2339OCT     C1 4677   9.097   6.787   7.733  0.0463  0.0031 -0.1121
 2339OCT     C2 4678   9.099   7.259   7.590  0.0090 -0.0810  0.5153
 2340OCT     C1 4679  23.044   3.670  23.368 -0.1480  0.1343  0.2897
 2340OCT     C2 4680  22.671   3.546  23.219  0.1927  0.0339 -0.0020
 2341OCT     C1 4681  22.945  18.523   6.889 -0.3927 -0.0747 -0.0010
 2341OCT     C2 4682  23.089  18.950   6.890 -0.3573  0.1330 -0.2175
 2342OCT     C1 4683  22.896  17.719   7.970  0.1844 -0.2980 -0.0605
 2342OCT     C2 4684  23.008  18.115   7.687 -0.0541 -0.0794  0.0026
 2343OCT     C1 4685  20.251  13.315  16.856 -0.0971  0.3741  0.3570
 2343OCT     C2 4686  20.356  13.588  17.213 -0.0958  0.2438 -0.6579
 2344OCT     C1 4687   7.578   2.373  15.117 -0.2958 -0.0827  0.0233
 2344OCT     C2 4688   7.199   2.142  15.035  0.1737 -0.2364  0.0454
 2345OCT     C1 4689  19.250  17.643   5.227  0.5562 -0.1618  0.1141
 2345OCT     C2 4690  19.052  17.282   5.395  0.2532  0.0290 -0.0864
 2346OCT     C1 4691  23.165  21.869   2.548 -0.0317  0.1582  0.2092
 2346OCT     C2 4692  23.456  22.249   2.625 -0.2730  0.0172  0.2715
 2347OCT     C1 4693  15.071  10.506  23.077 -0.4417  0.2544  0.1995
 2347OCT     C2 4694  14.899  10.795  23.377 -0.1290 -0.0918  0.2811
 2348OCT     C1 4695   2.084  15.086  10.956 -0.0370 -0.1637  0.1031
 2348OCT     C2 4696   2.405  15.401  10.813 -0.4626  0.0819  0.1503
 2349OCT     C1 4697   8.534  17.256  18.649 -0.0094  0.4025  0.2360
 2349OCT     C2 4698   9.010  17.304  18.673 -0.1883  0.0303  0.1092
 2350OCT     C1 4699   0.725   9.200   9.005  0.3539 -0.1614  0.0608
 2350OCT     C2 4700   1.153   9.275   8.785  0.0224  0.1804 -0.2767
 2351OCT     C1 4701   6.857  14.641  11.211 -0.2932 -0.2344 -0.0477
 2351OCT     C2 4702   7.005  15.041  11.068 -0.0858 -0.1202 -0.0167
 2352OCT     C1 4703  12.036  22.464  11.403  0.1676 -0.0201  0.3833
 2352OCT     C2 4704  12.427  22.629  11.227 -0.0342 -0.2554 -0.1728
 2353OCT     C1 4705  12.959   5.071   6.368  0.1968  0.2030  0.0765
 2353OCT     C2 4706  12.799   4.804   6.009  0.2713  0.0301  0.2621
 2354OCT     C1 4707   1.242  11.403   5.802 -0.3806 -0.1137  0.1205
 2354OCT     C2 4708   0.919  11.081   5.665  0.1840  0.1485  0.2674
 2355OCT     C1 4709  20.953  10.605  13.723 -0.1675  0.0980  0.1003
 2355OCT     C2 4710  20.848  11.050  13.510  0.1503  0.0974  0.3096
 2356OCT     C1 4711   3.649  10.030  13.398  0.0921  0.1615  0.0192
 2356OCT     C2 4712   3.648  10.446  13.327  0.3697 -0.2286  0.1042
 2357OCT     C1 4713  13.346   1.680  11.629 -0.1613  0.1833 -0.1745
 2357OCT     C2 4714  13.582   1.481  11.290 -0.3604 -0.1509  0.1632
 2358OCT     C1 4715   5.457   3.315   1.012 -0.0218 -0.0170  0.5009
 2358OCT     C2 4716   5.447   2.821   1.077  0.1068 -0.2065  0.1122
 2359OCT     C1 4717   3.433  21.415  23.727  0.0628  0.1938  0.1642
 2359OCT     C2 4718   3.562  20.997  23.537  0.5077 -0.0929 -0.1905
 2360OCT     C1 4719   6.315  17.912   6.898  0.2406  0.3452 -0.3963
 2360OCT     C2 4720   6.724  17.725   7.026  0.3473 -0.0769 -0.2691
 2361OCT     C1 4721  12.771  18.746   1.974  0.0260  0.3132  0.0870
 2361OCT     C2 4722  12.958  18.463   2.318 -0.1567 -0.2525 -0.4198
 2362OCT     C1 4723   6.514   1.341   6.872 -0.1188 -0.2908 -0.0029
 2362OCT     C2 4724   6.098   1.330   7.011 -0.3488 -0.1497  0.1475
 2363OCT     C1 4725  13.501  17.754   3.026  0.1342  0.1604 -0.0503
 2363OCT     C2 4726  13.268  17.574   3.364 -0.2475 -0.2516 -0.1235
 2364OCT     C1 4727  23.633  18.520   0.785 -0.1288  0.0486 -0.3442
 2364OCT     C2 4728  23.544  18.307   1.217  0.0780  0.1727 -0.0437
 2365OCT     C1 4729  11.284  17.408   6.147  0.0359  0.3218 -0.1643
 2365OCT     C2 4730  11.178  17.436   5.712  0.0419 -0.4877  0.2020
 2366OCT     C1 4731   4.202   6.084   1.286 -0.3001  0.1785  0.1915
 2366OCT     C2 4732   4.633   6.191   1.248 -0.5669 -0.2199 -0.1889
 2367OCT     C1 4733   7.102  20.698  17.145 -0.4889  0.1970  0.0270
 2367OCT     C2 4734   7.349  20.965  16.882  0.2454  0.2019 -0.2174
 2368OCT     C1 4735  12.237   3.149   3.395  0.3804 -0.1021  0.3720
 2368OCT     C2 4736  12.089   2.732   3.549 -0.0434  0.1701 -0.1122
 2369OCT     C1 4737  14.003   1.148   5.552 -0.0535  0.3372  0.3118
 2369OCT     C2 4738  14.015   0.696   5.509  0.4644 -0.0946  0.0833
 2370OCT     C1 4739   4.943   8.974  18.823  0.1538  0.2019 -0.2232
 2370OCT     C2 4740   4.709   8.524  18.685  0.2036 -0.2205  0.1981
 2371OCT     C1 4741  15.450  23.233   6.724 -0.4060  0.3214  0.1266
 2371OCT     C2 4742  15.068  23.264   6.412  0.2216 -0.1570 -0.2232
 2372OCT     C1 4743  13.265   5.108  21.506  0.2876  0.1044  0.1210
 2372OCT     C2 4744  13.095   4.967  21.113 -0.1617 -0.0310  0.0095
 2373OCT     C1 4745  13.772  22.786  22.573 -0.1159 -0.1295 -0.1332
 2373OCT     C2 4746  13.405  22.996  22.369 -0.2099 -0.1025  0.2189
 2374OCT     C1 4747   2.405  10.718   2.215 -0.2827  0.2763  0.1276
 2374OCT     C2 4748   2.218  11.125   2.264  0.1116  0.0030  0.1735
 2375OCT     C1 4749  23.479   4.119   9.739 -0.0580  0.0197  0.1700
 2375OCT     C2 4750  23.518   4.542   9.827 -0.0813 -0.0391  0.4227
 2376OCT     C1 4751  14.440  22.605   7.620  0.1203  0.1794  0.1798
 2376OCT     C2 4752  14.576  22.400   8.020 -0.1883  0.1440 -0.0555
 2377OCT     C1 4753   5.187  17.366   2.884 -0.3937 -0.0205 -0.0492
 2377OCT     C2 4754   5.390  17.017   2.682 -0.0755  0.4233 -0.1711
 2378OCT     C1 4755   2.337   8.492   1.206  0.1818  0.0072  0.1165
 2378OCT     C2 4756   2.735   8.219   1.140  0.1892  0.2175  0.0101
 2379OCT     C1 4757  23.562   0.853  22.323 -0.0506  0.1038 -0.3086
 2379OCT     C2 4758  23.526   0.934  21.888 -0.0867 -0.1672  0.2358
 2380OCT     C1 4759   7.502  12.768  22.582  0.0316 -0.0695  0.0748
 2380OCT     C2 4760   7.540  13.186  22.805 -0.0968 -0.1172  0.0321
 2381OCT     C1 4761  22.718  15.392  23.137 -0.5075  0.0758 -0.0446
 2381OCT     C2 4762  22.572  15.369  22.654  0.3256  0.0177 -0.1493
 2382OCT     C1 4763  15.878  11.398  14.856 -0.2157  0.4011 -0.0921
 2382OCT     C2 4764  15.762  11.356  14.417 -0.1970 -0.0318 -0.0755
 2383OCT     C1 4765   4.701   4.810  10.768  0.4049 -0.1076  0.1716
 2383OCT     C2 4766   4.599   4.571  10.394 -0.3270 -0.0089  0.4874
 2384OCT     C1 4767  18.768  16.951  20.480 -0.3021  0.2763 -0.0896
 2384OCT     C2 4768  18.935  16.952  20.919 -0.3947  0.1293 -0.2220
 2385OCT     C1 4769   1.409  20.734  11.652  0.2087  0.1764  0.1092
 2385OCT     C2 4770   1.159  20.324  11.821 -0.1497  0.2270  0.1059
 2386OCT     C1 4771  11.859  18.894   0.422 -0.0312 -0.2574  0.4839
 2386OCT     C2 4772  12.128  19.260   0.420  0.1593  0.1353  0.1493
 2387OCT     C1 4773   5.031   3.510   6.965 -0.4507  0.0982  0.1781
 2387OCT     C2 4774   5.486   3.697   6.979 -0.1496 -0.1869 -0.0447
 2388OCT     C1 4775   0.241  18.364  18.796  0.2509  0.1282 -0.2029
 2388OCT     C2 4776   0.341  17.974  18.550 -0.0022  0.3781  0.2595
 2389OCT     C1 4777   0.274  16.158   6.128 -0.0770 -0.1468  0.0541
 2389OCT     C2 4778   0.062  16.575   5.971  0.2062  0.1057  0.3835
 2390OCT     C1 4779   9.573  18.826  10.512 -0.0053  0.2581 -0.0253
 2390OCT     C2 4780   9.779  19.205  10.367  0.2739  0.2022  0.1491
 2391OCT     C1 4781   0.907  12.162  20.995 -0.0132  0.0810  0.1554
 2391OCT     C2 4782   0.873  11.690  21.051 -0.0256 -0.1658  0.0514
 2392OCT     C1 4783  11.732   3.664  18.144  0.2382  0.1875 -0.0343
 2392OCT     C2 4784  11.512   3.548  17.764  0.0639  0.1950  0.0769
 2393OCT     C1 4785  10.649  19.662   6.326  0.2369 -0.2500  0.3337
 2393OCT     C2 4786  10.396  19.944   6.630  0.0299  0.2815  0.1572
 2394OCT     C1 4787  12.434   3.771  23.004  0.3723 -0.2886 -0.2889
 2394OCT     C2 4788  11.998   3.931  23.057 -0.1165  0.0823 -0.0370
 2395OCT     C1 4789   9.372  21.940  18.627 -0.0931 -0.0974 -0.3211
 2395OCT     C2 4790   9.162  22.139  18.243  0.0044 -0.0885 -0.4267
 2396OCT     C1 4791  21.643   4.446  12.537 -0.0973  0.2236 -0.2552
 2396OCT     C2 4792  21.808   3.991  12.517 -0.0533  0.2316 -0.0377
 2397OCT     C1 4793   5.532   9.633  15.789  0.1187  0.0227  0.0691
 2397OCT     C2 4794   5.757   9.384  15.553 -0.2068 -0.4110 -0.1823
 2398OCT     C1 4795   2.430  23.293   9.967 -0.2257 -0.2114  0.0149
 2398OCT     C2 4796   2.064  23.495   9.979 -0.0736 -0.1163  0.1418
 2399OCT     C1 4797  10.905  16.977  14.638 -0.2224 -0.0022  0.2063
 2399OCT     C2 4798  11.236  16.634  14.835  0.1934 -0.0040 -0.2773
 2400OCT     C1 4799  17.835  16.994  18.539 -0.0408  0.0893 -0.1732
 2400OCT     C2 4800  17.832  17.171  18.999 -0.0759  0.0998  0.1171
 2401OCT     C1 4801   2.976  19.820  22.673  0.1732  0.2940 -0.0768
 2401OCT     C2 4802   2.503  19.902  22.692 -0.0279 -0.3839  0.3665
 2402OCT     C1 4803   6.936   6.969   7.167  0.0539  0.1188 -0.1438
 2402OCT     C2 4804   7.196   7.343   6.884 -0.0913  0.0113 -0.0224
 2403OCT     C1 4805  15.012  23.425  22.886  0.3123  0.2884  0.0431
 2403OCT     C2 4806  14.759   0.013  23.121  0.3022  0.0640 -0.1152
 2404OCT     C1 4807  23.503  18.068  19.925  0.1202  0.4655  0.2927
 2404OCT     C2 4808  23.577  17.758  20.259  0.0969 -0.3918  0.3616
 2405OCT     C1 4809  21.395  11.348   0.481  0.4557 -0.1519 -0.1411
 2405OCT     C2 4810  21.618  11.012   0.713 -0.0125  0.1716  0.3087
 2406OCT     C1 4811   1.268   3.815   9.216 -0.0920  0.1744  0.0047
 2406OCT     C2 4812   1.642   3.584   9.243 -0.3112 -0.2480 -0.4134
 2407OCT     C1 4813  15.499  18.759  16.360 -0.1016 -0.1171 -0.1359
 2407OCT     C2 4814  15.684  18.758  15.892  0.0658 -0.3379  0.0431
 2408OCT     C1 4815  13.587   7.694   5.072  0.2266  0.0365  0.4047
 2408OCT     C2 4816  13.139   7.586   5.192 -0.2456 -0.2753 -0.0591
 2409OCT     C1 4817   1.380   7.608   9.788  0.2803 -0.1932 -0.3497
 2409OCT     C2 4818   1.087   7.423   9.496 -0.0104 -0.0944  0.1602
 2410OCT     C1 4819  20.463  12.126  20.228 -0.3884 -0.0929 -0.2115
 2410OCT     C2 4820  20.298  12.406  19.868 -0.0167  0.0789  0.5301
 2411OCT     C1 4821   3.477   0.688  20.448 -0.0489  0.1659  0.3660
 2411OCT     C2 4822   3.934   0.599  20.289 -0.3917  0.3353  0.0242
 2412OCT     C1 4823  11.546   4.683  19.703  0.2839 -0.1317 -0.2870
 2412OCT     C2 4824  11.499   4.621  20.155  0.0900 -0.4590  0.2960
 2413OCT     C1 4825  10.209   8.629   6.465 -0.1657  0.1043 -0.0809
 2413OCT     C2 4826   9.949   8.616   6.837 -0.2660 -0.2343 -0.0506
 2414OCT     C1 4827  17.653  10.625   7.899  0.1144 -0.0684  0.1742
 2414OCT     C2 4828  17.679  10.156   7.731 -0.1426  0.1304  0.1464
 2415OCT     C1 4829   0.291  18.369  22.368 -0.3475 -0.0164 -0.0175
 2415OCT     C2 4830   0.588  18.722  22.322  0.0317 -0.0110  0.2483
 2416OCT     C1 4831  18.597   3.050   4.241  0.1132  0.2443 -0.0481
 2416OCT     C2 4832  18.873   2.723   4.100  0.1875 -0.1592  0.0691
 2417OCT     C1 4833   6.898  20.717  23.383 -0.2382  0.0056 -0.2450
 2417OCT     C2 4834   7.064  20.268  23.309 -0.2661 -0.5801 -0.2509
 2418OCT     C1 4835   3.905   7.404  18.931  0.2336  0.0354 -0.2240
 2418OCT     C2 4836   3.999   6.942  19.046 -0.4104 -0.0424 -0.3524
 2419OCT     C1 4837  17.170  14.077   6.804  0.1506  0.3098 -0.4961
 2419OCT     C2 4838  16.852  14.329   6.533 -0.0924 -0.1793  0.1461
 2420OCT     C1 4839  23.711   5.727  11.819  0.0691 -0.1893  0.0215
 2420OCT     C2 4840  23.609   5.776  11.374 -0.1054 -0.0927 -0.2659
 2421OCT     C1 4841  16.160  16.165   3.101  0.2518 -0.3060  0.1223
 2421OCT     C2 4842  15.691  16.083   3.129  0.2020  0.0255  0.2462
 2422OCT     C1 4843  19.976  22.878  23.711  0.4129 -0.2016  0.1157
 2422OCT     C2 4844  19.847  22.931   0.468  0.1621  0.0694 -0.1243
 2423OCT     C1 4845  15.604  14.793  15.602 -0.0748  0.0867 -0.1517
 2423OCT     C2 4846  15.395  15.219  15.691  0.0363  0.0279  0.0294
 2424OCT     C1 4847   3.911  21.977   7.028  0.0785  0.1449 -0.0735
 2424OCT     C2 4848   4.267  21.965   7.350 -0.0335 -0.0317 -0.0785
 2425OCT     C1 4849  14.071   4.359  18.725  0.0146 -0.1979 -0.0747
 2425OCT     C2 4850  13.719   4.559  18.481  0.3755  0.1294  0.0860
 2426OCT     C1 4851  11.463   8.770   8.530  0.0720  0.0992  0.1130
 2426OCT     C2 4852  11.289   8.872   8.117 -0.0040  0.0610 -0.0617
 2427OCT     C1 4853   9.409   8.815   2.428  0.3296 -0.3946 -0.3525
 2427OCT     C2 4854   9.208   8.437   2.619  0.0760  0.0175 -0.1601
 2428OCT     C1 4855  20.056   2.288  14.251  0.5826 -0.1811 -0.3117
 2428OCT     C2 4856  20.028   1.885  14.062 -0.1850 -0.1266  0.0834
 2429OCT     C1 4857   9.098  21.058   6.986 -0.1586  0.0401  0.0254
 2429OCT     C2 4858   8.731  21.127   7.238  0.0316  0.1463 -0.3913
 2430OCT     C1 4859   6.784   0.730  16.270 -0.1842  0.2176 -0.1397
 2430OCT     C2 4860   6.743   0.391  16.583  0.0758 -0.2276  0.2785
 2431OCT     C1 4861  14.933   1.412  16.172  0.4060 -0.1601  0.2446
 2431OCT     C2 4862  15.120   1.508  16.611 -0.0396 -0.0691  0.3153
 2432OCT     C1 4863  15.677  10.922   6.418  0.2129  0.1573  0.2747
 2432OCT     C2 4864  15.906  11.016   6.044  0.0232  0.1448 -0.4247
 2433OCT     C1 4865   2.451   4.864   4.895 -0.0989 -0.2153  0.0179
 2433OCT     C2 4866   2.930   5.051   4.864  0.0863  0.1645 -0.0479
 2434OCT     C1 4867   3.470  21.561   9.075  0.1564  0.0659 -0.1238
 2434OCT     C2 4868   3.607  21.128   9.303 -0.2004 -0.2048  0.0530
 2435OCT     C1 4869  18.180   7.329   3.059 -0.0514  0.3801  0.0801
 2435OCT     C2 4870  18.455   7.285   2.738 -0.2391 -0.2460  0.2391
 2436OCT     C1 4871   2.079   8.145  16.877  0.0136  0.1732  0.1936
 2436OCT     C2 4872   1.686   8.323  17.081  0.0437  0.1252  0.4045
 2437OCT     C1 4873  11.265   2.945  14.707  0.0550 -0.0450 -0.0635
 2437OCT     C2 4874  11.509   3.264  14.504  0.0279 -0.3589  0.1168
 2438OCT     C1 4875  23.165   3.187  13.431  0.2381  0.0861 -0.1116
 2438OCT     C2 4876  22.817   3.290  13.789 -0.0391  0.0525  0.0939
 2439OCT     C1 4877  23.202  14.110   0.841  0.1270 -0.0413  0.3287
 2439OCT     C2 4878  23.685  14.269   0.919  0.0716 -0.0327 -0.1790
 2440OCT     C1 4879  12.345  15.979   1.940  0.2062  0.0230  0.1166
 2440OCT     C2 4880  12.748  15.823   2.139 -0.1788  0.0672 -0.1100
 2441OCT     C1 4881  10.005   6.578  10.597  0.3243 -0.2734  0.0292
 2441OCT     C2 4882  10.283   6.818  10.863  0.0016 -0.3445 -0.1207
 2442OCT     C1 4883   8.737  15.864   4.462 -0.1684 -0.2912  0.0420
 2442OCT     C2 4884   8.666  16.319   4.524  0.1026 -0.0310  0.3365
 2443OCT     C1 4885   8.637  12.237  20.992  0.0563 -0.0629 -0.2501
 2443OCT     C2 4886   8.206  12.169  20.812 -0.2540  0.3402  0.1628
 2444OCT     C1 4887  20.388   4.702   9.229  0.4192  0.0756 -0.1774
 2444OCT     C2 4888  20.782   4.811   8.927  0.4154  0.1483 -0.2518
 2445OCT     C1 4889   1.830   3.011  10.254  0.0663  0.0712  0.0266
 2445OCT     C2 4890   1.996   3.409  10.130 -0.2812 -0.1979  0.0572
 2446OCT     C1 4891   2.926   4.315   3.086  0.3996 -0.2359 -0.2158
 2446OCT     C2 4892   2.453   4.300   3.278  0.1530 -0.0523 -0.0791
 2447OCT     C1 4893   4.203  20.307  18.293  0.1092  0.3143 -0.0926
 2447OCT     C2 4894   4.538  20.138  17.939 -0.1647  0.0453  0.2647
 2448OCT     C1 4895   6.017  23.392   5.396 -0.0857  0.2704 -0.1718
 2448OCT     C2 4896   5.913  22.938   5.267 -0.1359 -0.1086 -0.0934
 2449OCT     C1 4897  23.169  10.249  23.181 -0.1993  0.0187 -0.0470
 2449OCT     C2 4898  23.405  10.555  22.920 -0.1897  0.0049  0.1635
 2450OCT     C1 4899  19.472   8.677   6.781  0.0654  0.1515  0.4160
 2450OCT     C2 4900  19.584   9.025   6.988 -0.0438  0.1756  0.1549
 2451OCT     C1 4901  12.542  21.211   6.707  0.2071  0.2062 -0.4140
 2451OCT     C2 4902  12.105  21.040   6.491  0.0629 -0.0680 -0.0772
 2452OCT     C1 4903  21.685  23.539  15.245 -0.4044  0.0719 -0.0539
 2452OCT     C2 4904  21.617  23.550  15.687  0.1315  0.4172 -0.0488
 2453OCT     C1 4905  10.753   5.834  22.200 -0.1211 -0.2697  0.0768
 2453OCT     C2 4906  10.877   5.958  21.783  0.2491  0.1819 -0.1370
 2454OCT     C1 4907  20.813   2.397  10.729 -0.0369  0.3839 -0.3154
 2454OCT     C2 4908  20.563   2.342  10.381  0.2668  0.0011 -0.1345
 2455OCT     C1 4909   5.030  15.959   1.703  0.0253 -0.0059  0.0493
 2455OCT     C2 4910   5.156  16.232   1.337 -0.2390 -0.2969  0.0857
 2456OCT     C1 4911  23.401  17.432  10.026  0.0207 -0.1085  0.1636
 2456OCT     C2 4912  23.227  17.252  10.447  0.1918  0.1016  0.1504
 2457OCT     C1 4913  20.534  10.955  11.017 -0.1082 -0.2271  0.2224
 2457OCT     C2 4914  20.212  11.017  11.400 -0.1631 -0.0858 -0.2098
 2458OCT     C1 4915   5.641  21.370  18.521 -0.2618 -0.1470  0.0924
 2458OCT     C2 4916   5.827  21.828  18.604 -0.1315 -0.5035  0.0130
 2459OCT     C1 4917   9.714   0.612   9.494 -0.0047  0.1552 -0.4836
 2459OCT     C2 4918   9.359   0.910   9.539 -0.0073 -0.1648 -0.4020
 2460OCT     C1 4919   7.446   4.554  12.951 -0.3581 -0.1221 -0.1496
 2460OCT     C2 4920   7.054   4.311  13.072 -0.0642  0.0895 -0.1668
 2461OCT     C1 4921  18.412   8.521  14.589 -0.4302 -0.3643 -0.1810
 2461OCT     C2 4922  18.416   8.553  15.041  0.1159 -0.1869  0.3163
 2462OCT     C1 4923   4.128   4.826   2.797  0.3020 -0.1908 -0.1023
 2462OCT     C2 4924   4.387   5.150   3.000 -0.0689 -0.2360 -0.2875
 2463OCT     C1 4925  13.703  22.820  23.418  0.0259 -0.1994  0.2102
 2463OCT     C2 4926  13.898  22.711  23.057 -0.0780  0.3988 -0.0289
 2464OCT     C1 4927  17.900   6.039  12.265 -0.2071  0.1454 -0.2828
 2464OCT     C2 4928  17.894   5.742  12.622  0.0980 -0.0316 -0.1668
 2465OCT     C1 4929  11.856  10.813  19.144  0.0903  0.1628 -0.3670
 2465OCT     C2 4930  12.029  10.421  18.861 -0.2640  0.0437  0.2316
 2466OCT     C1 4931  11.122   5.098  13.551 -0.0513 -0.0644  0.1661
 2466OCT     C2 4932  11.579   4.952  13.400 -0.1460 -0.1528 -0.4388
 2467OCT     C1 4933   0.987   4.433  16.460  0.2122 -0.0953 -0.2191
 2467OCT     C2 4934   1.283   4.747  16.317 -0.3639  0.0904 -0.1009
 2468OCT     C1 4935   3.779  18.205   9.956 -0.2078 -0.0330 -0.0160
 2468OCT     C2 4936   3.999  18.410   9.608 -0.4007 -0.1286  0.5574
 2469OCT     C1 4937   0.774  20.882  22.294  0.0420 -0.0146 -0.1779
 2469OCT     C2 4938   0.857  20.420  22.244  0.1912  0.1516 -0.1375
 2470OCT     C1 4939  10.967   2.598   9.483 -0.1224  0.2766  0.2016
 2470OCT     C2 4940  10.856   2.364   9.018  0.0748 -0.1446 -0.1757
 2471OCT     C1 4941  18.366   8.459  21.891 -0.0664  0.0147 -0.0551
 2471OCT     C2 4942  18.809   8.712  21.798 -0.0886 -0.0463 -0.0364
 2472OCT     C1 4943  16.478  23.479  13.986  0.5976  0.0268  0.2643
 2472OCT     C2 4944  16.025  23.381  14.115 -0.2180 -0.0632  0.2210
 2473OCT     C1 4945  15.765  22.099  22.030  0.2134 -0.1573  0.2287
 2473OCT     C2 4946  15.403  22.080  22.373 -0.1027 -0.2191  0.3753
 2474OCT     C1 4947  21.341   9.356  21.985  0.1250  0.1221  0.2066
 2474OCT     C2 4948  21.041   9.708  22.108 -0.2490 -0.0340 -0.1553
 2475OCT     C1 4949   2.004  15.517   2.527 -0.1181  0.0686  0.0254
 2475OCT     C2 4950   1.947  15.957   2.450 -0.0650  0.1305 -0.0919
 2476OCT     C1 4951   8.276   8.666  18.606 -0.1014 -0.1528 -0.2209
 2476OCT     C2 4952   8.010   8.700  18.951  0.0757 -0.3540  0.3325
 2477OCT     C1 4953  13.020   3.547  19.963 -0.0950 -0.0088  0.1196
 2477OCT     C2 4954  12.663   3.560  19.690 -0.3073  0.2741  0.0844
 2478OCT     C1 4955  22.751  12.858  20.336 -0.1684 -0.1068 -0.1192
 2478OCT     C2 4956  22.656  12.551  19.954  0.2804  0.3064  0.2467
 2479OCT     C1 4957   5.551   5.966   1.181  0.1427  0.4905  0.0977
 2479OCT     C2 4958   5.648   6.114   1.598  0.0276  0.2497  0.1351
 2480OCT     C1 4959  11.811   8.354  19.119  0.0719 -0.1212 -0.1528
 2480OCT     C2 4960  11.911   8.132  19.579 -0.1353  0.0038  0.2434
 2481OCT     C1 4961  13.616   4.051  19.671 -0.3780 -0.1066  0.2645
 2481OCT     C2 4962  13.332   4.162  19.311  0.3340  0.1220  0.1647
 2482OCT     C1 4963  22.147   7.620  21.224 -0.2332 -0.1749  0.4730
 2482OCT     C2 4964  22.024   7.952  21.517 -0.0078 -0.3353 -0.2468
 2483OCT     C1 4965   6.257   5.738   3.234  0.0918  0.3425 -0.0239
 2483OCT     C2 4966   6.483   5.507   3.593 -0.4341 -0.1718  0.1626
 2484OCT     C1 4967   4.781  18.975  14.140 -0.2416 -0.2685 -0.0716
 2484OCT     C2 4968   5.006  18.735  14.459  0.1139  0.1899  0.0964
 2485OCT     C1 4969  14.922   4.613  13.089 -0.1296 -0.2895  0.2192
 2485OCT     C2 4970  15.314   4.671  12.918  0.0381  0.1695 -0.2517
 2486OCT     C1 4971  15.861  10.705   4.439  0.0942  0.1341  0.2076
 2486OCT     C2 4972  16.025  10.336   4.663  0.1113 -0.2896  0.0184
 2487OCT     C1 4973  23.385   8.426  10.592 -0.0322  0.0969  0.1878
 2487OCT     C2 4974  23.678   8.763  10.535  0.2182  0.2015 -0.3282
 2488OCT     C1 4975  13.894  11.913   5.333 -0.1575 -0.0202  0.3459
 2488OCT     C2 4976  13.538  11.837   5.635  0.3831 -0.2955 -0.0633
 2489OCT     C1 4977   7.541  22.987   8.416 -0.0664  0.2778  0.2335
 2489OCT     C2 4978   7.087  23.153   8.441 -0.0670  0.2574 -0.3487
 2490OCT     C1 4979  18.686   9.895   0.646  0.3193 -0.0576  0.1925
 2490OCT     C2 4980  18.351   9.615   0.543  0.4660 -0.0693 -0.0585
 2491OCT     C1 4981  12.053  21.806   8.654 -0.1469 -0.1749  0.2368
 2491OCT     C2 4982  11.621  21.949   8.899 -0.0518  0.5283 -0.1402
 2492OCT     C1 4983   2.613  20.585  20.712  0.2072  0.0375  0.0036
 2492OCT     C2 4984   2.528  20.933  21.047  0.3777  0.3387  0.1474
 2493OCT     C1 4985   0.423   5.485   0.330  0.5012 -0.1963  0.0719
 2493OCT     C2 4986   0.618   5.047   0.373 -0.1606 -0.1561 -0.0984
 2494OCT     C1 4987  15.032   5.725  14.417  0.0479 -0.3106  0.0058
 2494OCT     C2 4988  15.270   5.578  14.830  0.3670 -0.0067  0.0916
 2495OCT     C1 4989   7.802  12.822  12.410 -0.0094 -0.2070  0.2342
 2495OCT     C2 4990   8.220  12.643  12.183  0.1115 -0.5509 -0.0431
 2496OCT     C1 4991  20.794  18.615  14.318 -0.1696 -0.1273 -0.1976
 2496OCT     C2 4992  20.403  18.464  14.262 -0.0887 -0.0375  0.1315
 2497OCT     C1 4993  21.103   2.579  21.935  0.2948  0.0648  0.4304
 2497OCT     C2 4994  20.763   2.384  22.235 -0.0517 -0.3110  0.0090
 2498OCT     C1 4995  10.941  12.677  15.864 -0.0616  0.1661  0.0897
 2498OCT     C2 4996  11.271  12.388  15.816  0.2326  0.2387  0.0056
 2499OCT     C1 4997   0.709  15.009  11.607  0.2158  0.0790  0.1351
 2499OCT     C2 4998   0.421  15.172  11.287  0.2254  0.0274 -0.2259
 2500OCT     C1 4999   0.319  16.993   8.979  0.1196  0.0586 -0.0705
 2500OCT     C2 5000   0.509  16.696   9.304  0.0324 -0.0556 -0.3912
 2501OCT     C1 5001  22.072   3.882  17.226  0.0292  0.0478 -0.0698
 2501OCT     C2 5002  22.266   3.574  17.571 -0.4407  0.0960 -0.0465
 2502OCT     C1 5003   3.091   1.221  18.945 -0.3867 -0.0484  0.0307
 2502OCT     C2 5004   3.318   1.345  19.369  0.1498 -0.1046  0.0228
 2503OCT     C1 5005   9.003   1.809  20.757 -0.2223  0.3142 -0.0794
 2503OCT     C2 5006   9.219   2.162  20.913  0.0314  0.0642 -0.0640
 2504OCT     C1 5007   9.057  10.705  10.488  0.1255 -0.0886  0.2694
 2504OCT     C2 5008   9.387  10.589  10.217 -0.3640 -0.2829 -0.0599
 2505OCT     C1 5009   2.181   5.624  19.462 -0.1702 -0.1634  0.3751
 2505OCT     C2 5010   2.072   5.130  19.304  0.3932 -0.0603  0.2401
 2506OCT     C1 5011  18.349  22.191  14.593  0.0590 -0.3219  0.0789
 2506OCT     C2 5012  18.276  21.748  14.465 -0.1403  0.3170 -0.0578
 2507OCT     C1 5013  10.609   5.468  14.980  0.1300 -0.2037 -0.1158
 2507OCT     C2 5014  10.346   5.365  14.568  0.0131 -0.1069  0.0407
 2508OCT     C1 5015  21.938  16.677   8.253  0.1331 -0.0669  0.0520
 2508OCT     C2 5016  21.571  16.978   8.152  0.0091  0.0019 -0.0539
 2509OCT     C1 5017  16.713  21.753  12.802  0.0519  0.1869 -0.1811
 2509OCT     C2 5018  16.819  21.945  13.159 -0.0141  0.0326 -0.0061
 2510OCT     C1 5019  16.149   5.479  23.322  0.0522  0.1339 -0.0927
 2510OCT     C2 5020  15.970   5.831  23.613 -0.0962  0.1459 -0.1961
 2511OCT     C1 5021  22.267   0.759  19.521  0.1377  0.4095 -0.2665
 2511OCT     C2 5022  22.126   1.080  19.837 -0.2617  0.0867  0.1043
 2512OCT     C1 5023  20.047  21.355  14.910 -0.4645  0.0638 -0.2083
 2512OCT     C2 5024  20.295  21.272  14.516 -0.0894  0.3662 -0.2737
 2513OCT     C1 5025   4.493  15.354   4.047 -0.1661 -0.2408 -0.0551
 2513OCT     C2 5026   4.456  14.851   4.176 -0.1083  0.0780  0.2305
 2514OCT     C1 5027  17.050   2.462   1.466 -0.1009  0.2480  0.3442
 2514OCT     C2 5028  16.629   2.624   1.370 -0.2035  0.1834  0.1578
 2515OCT     C1 5029  11.979   5.307   1.248 -0.3220 -0.1354  0.2275
 2515OCT     C2 5030  12.281   5.179   0.942 -0.1343 -0.1740  0.2614
 2516OCT     C1 5031  21.595  13.464   6.375  0.2756  0.0659  0.0076
 2516OCT     C2 5032  21.168  13.325   6.261 -0.5637 -0.1583  0.1088
 2517OCT     C1 5033  16.234  17.344  22.484 -0.1642 -0.3764 -0.1260
 2517OCT     C2 5034  15.978  17.354  22.888  0.1148 -0.0136 -0.1538
 2518OCT     C1 5035   8.135   4.468   2.873  0.1990  0.3250 -0.0182
 2518OCT     C2 5036   8.348   4.404   3.249  0.1335  0.2516 -0.2281
 2519OCT     C1 5037   9.410   8.177  11.490  0.2934 -0.1171 -0.0121
 2519OCT     C2 5038   9.353   7.838  11.782  0.0835  0.1497  0.0496
 2520OCT     C1 5039   8.535  20.609   3.128 -0.2794 -0.0858 -0.0226
 2520OCT     C2 5040   8.258  20.514   2.798 -0.3185  0.1474  0.1983
 2521OCT     C1 5041   3.219   4.918   8.560 -0.2043 -0.1498  0.0545
 2521OCT     C2 5042   3.203   4.486   8.365  0.0357  0.0849 -0.3554
 2522OCT     C1 5043   0.252  18.837   0.682 -0.0020 -0.4543  0.0810
 2522OCT     C2 5044   0.666  18.998   0.847  0.2453  0.1778 -0.1363
 2523OCT     C1 5045  17.044   6.753  19.222  0.1374  0.3233  0.1428
 2523OCT     C2 5046  16.753   6.472  19.033 -0.3384 -0.0361  0.2460
 2524OCT     C1 5047   0.932   3.793  21.829  0.4072  0.0731 -0.3107
 2524OCT     C2 5048   0.724   4.027  22.167  0.2356 -0.2072 -0.1074
 2525OCT     C1 5049  21.366  16.774  13.270 -0.0802  0.0626  0.4566
 2525OCT     C2 5050  21.682  17.082  13.302  0.1571 -0.0321  0.2163
 2526OCT     C1 5051  19.710  10.181   7.920  0.0726  0.2521  0.3209
 2526OCT     C2 5052  19.778  10.619   8.046  0.4419 -0.1686  0.2066
 2527OCT     C1 5053   2.692  10.727   7.062 -0.2050 -0.4065  0.0257
 2527OCT     C2 5054   2.882  11.089   7.323 -0.0457 -0.3198  0.3655
 2528OCT     C1 5055   5.209   6.151  13.422  0.3221  0.5210 -0.3277
 2528OCT     C2 5056   5.402   5.819  13.731 -0.2651 -0.0617  0.1477
 2529OCT     C1 5057  17.745  17.538   4.491  0.0577  0.1458  0.1339
 2529OCT     C2 5058  17.419  17.825   4.692  0.0836 -0.0533  0.0160
 2530OCT     C1 5059  16.386  11.796  11.481 -0.3284 -0.0484 -0.0153
 2530OCT     C2 5060  16.807  11.673  11.716  0.0066 -0.0039  0.2236
 2531OCT     C1 5061  21.998  17.238  12.403 -0.3777 -0.3082 -0.4410
 2531OCT     C2 5062  22.354  17.520  12.231 -0.1240 -0.2989  0.1763
 2532OCT     C1 5063  10.721   2.050   1.207  0.1146  0.0366  0.0745
 2532OCT     C2 5064  11.126   2.157   1.062 -0.0882 -0.2641  0.2688
 2533OCT     C1 5065   0.653   4.948  14.112 -0.1096 -0.0413  0.0066
 2533OCT     C2 5066   1.118   4.889  14.203 -0.1117 -0.2285  0.3754
 2534OCT     C1 5067   1.519  16.205   5.047 -0.0442 -0.1075 -0.1828
 2534OCT     C2 5068   1.838  16.276   4.698  0.0222 -0.0222 -0.0751
 2535OCT     C1 5069   2.435  18.657   7.646 -0.4294  0.2157 -0.0885
 2535OCT     C2 5070   2.612  18.737   8.079  0.2108  0.3887 -0.1489
 2536OCT     C1 5071  19.937   7.807   5.040  0.1774  0.0398  0.2507
 2536OCT     C2 5072  20.040   7.582   5.454 -0.0333  0.3002 -0.1149
 2537OCT     C1 5073   5.891  14.672  20.167  0.0421 -0.3182  0.2447
 2537OCT     C2 5074   6.288  14.810  20.229 -0.2013  0.3480 -0.2507
 2538OCT     C1 5075  15.050   4.462  22.041  0.0663  0.0684  0.0776
 2538OCT     C2 5076  15.465   4.609  22.153  0.1836  0.0109  0.0599
 2539OCT     C1 5077  13.266  17.106   3.363  0.3287 -0.0093 -0.3699
 2539OCT     C2 5078  13.581  16.823   3.628 -0.5631  0.1802 -0.2786
 2540OCT     C1 5079  13.692   6.094  23.388  0.0513  0.0536  0.2038
 2540OCT     C2 5080  13.571   5.853  22.964  0.3352  0.2034  0.0623
 2541OCT     C1 5081  10.869   1.919  16.726  0.1127 -0.0764  0.1529
 2541OCT     C2 5082  11.092   1.669  16.428 -0.3264  0.1239 -0.0772
 2542OCT     C1 5083   7.424  11.568  21.869 -0.1304  0.1557 -0.1703
 2542OCT     C2 5084   7.355  11.592  22.344  0.0958  0.1855  0.2224
 2543OCT     C1 5085   6.108  16.620  16.739 -0.1176  0.4203  0.0281
 2543OCT     C2 5086   5.668  16.653  16.692 -0.0181  0.0563 -0.2290
 2544OCT     C1 5087  21.987   0.423  19.201 -0.2451 -0.0133  0.2264
 2544OCT     C2 5088  21.931   0.136  19.586 -0.0909  0.0456  0.1365
 2545OCT     C1 5089  12.107   2.990  23.082 -0.2597  0.2453  0.3081
 2545OCT     C2 5090  11.820   3.350  23.291 -0.2923 -0.0056  0.1220
 2546OCT     C1 5091  23.519  10.889   2.347  0.0426 -0.0378 -0.0487
 2546OCT     C2 5092  23.596  11.286   2.624 -0.1458 -0.3493  0.3012
 2547OCT     C1 5093  22.606   1.984  11.744  0.0294  0.0510  0.1384
 2547OCT     C2 5094  22.617   2.118  12.202  0.0121  0.2669 -0.2042
 2548OCT     C1 5095  10.627  14.537  19.477 -0.1084 -0.1153  0.0203
 2548OCT     C2 5096  10.453  14.647  19.079  0.2000  0.1053  0.2386
 2549OCT     C1 5097   8.208  17.980   3.890  0.0617 -0.1650 -0.2499
 2549OCT     C2 5098   7.955  17.811   4.194  0.3691  0.3618  0.2084
 2550OCT     C1 5099  22.465  16.219   2.871  0.0533 -0.3647  0.0294
 2550OCT     C2 5100  22.467  16.214   3.331  0.0677  0.0539 -0.1990
 2551OCT     C1 5101   7.281  23.646   6.754 -0.3354 -0.2968  0.0351
 2551OCT     C2 5102   7.050   0.328   6.752 -0.3272 -0.0528  0.2229
 2552OCT     C1 5103  14.239  19.054   4.242  0.1326 -0.0287  0.0115
 2552OCT     C2 5104  14.000  19.052   4.647  0.1228  0.3065 -0.0750
 2553OCT     C1 5105  18.391  15.160  10.181 -0.0600 -0.0779 -0.0844
 2553OCT     C2 5106  18.216  15.177  10.622 -0.1872 -0.0523 -0.3460
 2554OCT     C1 5107  21.112   1.952  23.066 -0.0959 -0.4528  0.2532
 2554OCT     C2 5108  21.401   1.620  23.070 -0.0954  0.2746  0.0518
 2555OCT     C1 5109   5.907  17.665  16.375 -0.1451 -0.1574 -0.0367
 2555OCT     C2 5110   6.283  17.376  16.463 -0.2886 -0.3836 -0.0856
 2556OCT     C1 5111  10.798   4.620  10.463  0.0175 -0.1979 -0.1276
 2556OCT     C2 5112  10.613   4.704  10.076  0.0366 -0.1954 -0.0449
 2557OCT     C1 5113  16.025  17.399   2.728 -0.0627  0.0214 -0.0997
 2557OCT     C2 5114  16.394  17.180   2.950  0.0781 -0.0802  0.1655
 2558OCT     C1 5115   4.021  21.242  21.033 -0.0745  0.2197  0.2822
 2558OCT     C2 5116   4.350  21.084  21.339 -0.0265  0.0428 -0.2346
 2559OCT     C1 5117  11.781   3.447   0.969  0.0196  0.0033  0.2582
 2559OCT     C2 5118  11.829   3.207   1.359 -0.1611 -0.1098  0.2439
 2560OCT     C1 5119  13.131   7.395  21.339  0.0686  0.0894  0.0938
 2560OCT     C2 5120  13.279   6.988  21.455  0.1339  0.4008 -0.0208
 2561OCT     C1 5121  14.329   6.152  14.573  0.3598 -0.3082 -0.1544
 2561OCT     C2 5122  14.227   5.764  14.321 -0.0171 -0.1607 -0.4030
 2562OCT     C1 5123   7.944   7.117   2.435 -0.0191  0.1049 -0.1244
 2562OCT     C2 5124   7.629   7.186   2.778 -0.2195 -0.1210  0.2709
 2563OCT     C1 5125  21.344  21.648   5.626 -0.0410 -0.0422  0.1609
 2563OCT     C2 5126  21.849  21.493   5.685  0.0908 -0.2054 -0.0256
 2564OCT     C1 5127  22.849  23.384   4.373 -0.2785  0.1507  0.1687
 2564OCT     C2 5128  22.477  23.582   4.105 -0.1812 -0.3420  0.2001
 2565OCT     C1 5129  22.340  18.498   2.814  0.0545 -0.0074  0.2221
 2565OCT     C2 5130  22.198  18.151   3.098  0.3378 -0.2698 -0.1182
 2566OCT     C1 5131  13.281  19.676   2.374  0.0006 -0.0384  0.4209
 2566OCT     C2 5132  13.530  19.819   1.947  0.3092  0.0233 -0.1500
 2567OCT     C1 5133   7.459   0.874  18.572  0.4088  0.2974 -0.1111
 2567OCT     C2 5134   7.465   1.258  18.418  0.1717 -0.2898  0.1080
 2568OCT     C1 5135  15.572  10.379  17.232  0.5099 -0.0227 -0.3061
 2568OCT     C2 5136  15.660  10.582  16.809  0.1321  0.0888  0.0820
 2569OCT     C1 5137  15.419   0.401   8.097  0.0681  0.1289  0.0040
 2569OCT     C2 5138  15.106   0.281   7.789 -0.1971 -0.0994  0.2558
 2570OCT     C1 5139   3.749  14.409  10.818  0.0606 -0.3696  0.1960
 2570OCT     C2 5140   3.496  14.440  11.204  0.1399  0.1326  0.2655
 2571OCT     C1 5141   2.941  17.860  19.159 -0.1595 -0.3645  0.4135
 2571OCT     C2 5142   2.927  18.010  19.596 -0.1893  0.0214 -0.0768
 2572OCT     C1 5143  14.756  20.900  16.026 -0.1925  0.3427 -0.0197
 2572OCT     C2 5144  15.088  20.626  15.839  0.1749  0.0712  0.0142
 2573OCT     C1 5145  10.709  15.799  20.818 -0.3305  0.2708 -0.0151
 2573OCT     C2 5146  10.802  15.696  21.281  0.4023 -0.1724  0.3379
 2574OCT     C1 5147   3.432  10.827   7.323 -0.0710 -0.4618  0.2644
 2574OCT     C2 5148   3.657  10.680   6.953  0.0721  0.2046  0.4789
 2575OCT     C1 5149   4.684  20.462   9.550 -0.1251 -0.2281 -0.0392
 2575OCT     C2 5150   4.648  20.307   9.083  0.3231 -0.1510  0.0884
 2576OCT     C1 5151   8.291  16.623   5.591 -0.1215  0.0982 -0.1228
 2576OCT     C2 5152   8.446  16.199   5.862 -0.0154 -0.1769  0.2359
 2577OCT     C1 5153   1.080   7.975  22.900 -0.1160 -0.0483 -0.1987
 2577OCT     C2 5154   0.861   7.612  23.137 -0.1673 -0.1341  0.1396
 2578OCT     C1 5155  19.091  13.830  22.631 -0.1514 -0.2407 -0.1558
 2578OCT     C2 5156  19.276  14.240  22.700  0.1911 -0.1448 -0.0038
 2579OCT     C1 5157   1.880   5.530  18.231 -0.2100 -0.3992  0.0631
 2579OCT     C2 5158   1.653   5.334  17.813  0.1101 -0.2923  0.0556
 2580OCT     C1 5159   8.630  11.351  15.358 -0.1133 -0.6396 -0.2234
 2580OCT     C2 5160   8.406  11.207  14.974 -0.1216 -0.1631  0.0019
 2581OCT     C1 5161  18.793   5.849   0.809  0.0053  0.2896  0.0430
 2581OCT     C2 5162  18.750   6.250   0.582 -0.3498  0.2009 -0.0631
 2582OCT     C1 5163  18.271  16.201  19.284  0.0358  0.1866 -0.3203
 2582OCT     C2 5164  18.095  16.592  19.210  0.0437 -0.0587 -0.3568
 2583OCT     C1 5165  10.272  16.361  18.961  0.0580 -0.0380 -0.7855
 2583OCT     C2 5166  10.163  16.132  18.602  0.0931 -0.0362 -0.4180
 2584OCT     C1 5167  16.073   7.443   6.918 -0.2112 -0.0024  0.2060
 2584OCT     C2 5168  15.845   7.880   6.960  0.2001  0.1821 -0.0045
 2585OCT     C1 5169  18.558   4.728  10.829 -0.2522 -0.3149  0.2126
 2585OCT     C2 5170  18.374   4.310  10.893 -0.1871 -0.0572  0.1587
 2586OCT     C1 5171  23.612  16.165   1.890  0.3987 -0.2797  0.2814
 2586OCT     C2 5172  23.188  16.095   1.707  0.2398 -0.0106 -0.0956
 2587OCT     C1 5173  18.072   7.915   5.568 -0.2094  0.4091 -0.0442
 2587OCT     C2 5174  18.024   8.373   5.591  0.0379 -0.1580 -0.2291
 2588OCT     C1 5175   1.518   3.850   1.488 -0.1615  0.1620  0.2500
 2588OCT     C2 5176   1.481   4.097   1.875 -0.2374  0.0879 -0.0615
 2589OCT     C1 5177  12.721  16.863   4.844 -0.0242  0.1965 -0.1155
 2589OCT     C2 5178  12.960  17.210   5.067 -0.1200  0.1210 -0.2652
 2590OCT     C1 5179  14.652  21.491  22.774  0.0906  0.2594  0.1015
 2590OCT     C2 5180  14.793  21.579  22.340  0.1422  0.2728  0.0936
 2591OCT     C1 5181   3.776   9.231  13.466 -0.2129 -0.1084  0.1517
 2591OCT     C2 5182   4.027   9.561  13.339 -0.2039  0.2585  0.0348
 2592OCT     C1 5183  20.722   6.572  20.139 -0.1689 -0.2110 -0.2595
 2592OCT     C2 5184  20.235   6.643  20.139  0.2383  0.0656  0.1281
 2593OCT     C1 5185  12.068   3.255  17.222  0.0073  0.1602 -0.3311
 2593OCT     C2 5186  12.051   3.009  16.808  0.2379  0.0813  0.0513
 2594OCT     C1 5187   2.283   8.131  21.634 -0.3496  0.4426 -0.1061
 2594OCT     C2 5188   2.301   8.491  21.937 -0.4290  0.1106  0.2894
 2595OCT     C1 5189  17.271  21.420   3.640  0.0008 -0.1143  0.0826
 2595OCT     C2 5190  17.604  21.258   3.892 -0.2071 -0.1596  0.3772
 2596OCT     C1 5191  10.755   0.244   8.808  0.1774  0.2111  0.2474
 2596OCT     C2 5192  10.915  23.576   8.609  0.1505  0.4982  0.2043
 2597OCT     C1 5193  18.828  15.354  16.938 -0.0663  0.1059 -0.1987
 2597OCT     C2 5194  19.142  15.240  16.600 -0.3214 -0.3175 -0.0334
 2598OCT     C1 5195   9.713  22.438   5.368  0.1554 -0.1346 -0.0034
 2598OCT     C2 5196   9.867  22.131   5.035  0.0853 -0.0858  0.1397
 2599OCT     C1 5197   6.981   2.956  19.720 -0.0028 -0.0281 -0.0959
 2599OCT     C2 5198   6.587   2.958  19.549 -0.0883 -0.2153 -0.0989
 2600OCT     C1 5199  22.582  22.292  11.612  0.3127 -0.0915  0.0115
 2600OCT     C2 5200  22.618  21.905  11.399 -0.0873  0.0167 -0.2168
 2601OCT     C1 5201  10.821  10.333  16.231 -0.1781  0.2404  0.2247
 2601OCT     C2 5202  10.872  10.095  16.626 -0.2220 -0.0226 -0.0277
 2602OCT     C1 5203  13.400   1.573  17.751  0.2558  0.1916 -0.2181
 2602OCT     C2 5204  13.716   1.875  17.692  0.1636  0.2139  0.0262
 2603OCT     C1 5205  17.714  11.639  15.161  0.4016 -0.0472  0.0094
 2603OCT     C2 5206  18.086  11.393  15.345  0.0332 -0.1906  0.0908
 2604OCT     C1 5207  14.529  15.237   7.148  0.1737 -0.0698 -0.1012
 2604OCT     C2 5208  14.420  15.210   6.678  0.1475 -0.3080  0.4600
 2605OCT     C1 5209  11.368   8.389  23.345  0.0174  0.0514 -0.1326
 2605OCT     C2 5210  11.087   8.423  23.733  0.0949 -0.1584 -0.1148
 2606OCT     C1 5211  11.039   5.875  23.515 -0.4493 -0.3302 -0.1265
 2606OCT     C2 5212  11.326   5.606   0.019 -0.0686 -0.0715  0.0098
 2607OCT     C1 5213   7.652   1.780  18.203  0.1273  0.3527  0.0456
 2607OCT     C2 5214   8.016   1.918  18.479  0.1634  0.0327 -0.1482
 2608OCT     C1 5215  15.514   2.048   2.588  0.2581  0.0497  0.0320
 2608OCT     C2 5216  15.343   1.689   2.246  0.0346 -0.3022 -0.0003
 2609OCT     C1 5217   5.293   6.934  14.683  0.0744 -0.4050  0.2071
 2609OCT     C2 5218   5.124   7.352  14.441 -0.2707  0.0317  0.1388
 2610OCT     C1 5219   8.304  11.085  22.859 -0.0243 -0.1381 -0.2428
 2610OCT     C2 5220   8.424  11.513  23.065 -0.0260 -0.0200 -0.2461
 2611OCT     C1 5221   3.799   9.034  16.127 -0.1054  0.0764 -0.2400
 2611OCT     C2 5222   4.199   9.095  16.361  0.1902  0.1718 -0.1233
 2612OCT     C1 5223  11.898  22.670   2.284  0.3355  0.3814 -0.2130
 2612OCT     C2 5224  11.689  22.652   2.714 -0.1452  0.0286 -0.0556
 2613OCT     C1 5225  16.459  17.323   2.404  0.1267 -0.3474 -0.0608
 2613OCT     C2 5226  16.811  17.139   2.240 -0.1049 -0.0966  0.0390
 2614OCT     C1 5227   6.058  20.136  12.681 -0.2443  0.3163 -0.2590
 2614OCT     C2 5228   5.630  20.101  12.924  0.0630 -0.0397  0.1424
 2615OCT     C1 5229  18.951  11.618  19.044  0.1706  0.1194 -0.3988
 2615OCT     C2 5230  18.508  11.740  18.999  0.0517 -0.0457 -0.0437
 2616OCT     C1 5231  22.048  16.622  20.309 -0.1796 -0.0306 -0.0576
 2616OCT     C2 5232  22.262  16.297  20.608  0.0302 -0.2123  0.2816
 2617OCT     C1 5233   9.717  14.164  14.167 -0.3155 -0.3006  0.0778
 2617OCT     C2 5234   9.718  13.843  14.487  0.1287 -0.0680  0.1463
 2618OCT     C1 5235  14.712   9.430  10.780  0.2689  0.1073  0.3009
 2618OCT     C2 5236  15.147   9.349  10.629 -0.0098 -0.0147 -0.0015
 2619OCT     C1 5237  18.402   2.528   0.829  0.2537 -0.1312  0.1951
 2619OCT     C2 5238  18.207   2.185   0.572  0.1782 -0.1076  0.3578
 2620OCT     C1 5239  16.877  21.325   2.345 -0.1210  0.3119 -0.1965
 2620OCT     C2 5240  16.818  21.562   1.957 -0.2684 -0.0472 -0.0910
 2621OCT     C1 5241  18.614  20.235   4.003  0.0886  0.2445  0.1473
 2621OCT     C2 5242  18.328  19.942   4.256  0.2410 -0.1792 -0.0705
 2622OCT     C1 5243  16.463   6.861   8.644 -0.4724 -0.4861  0.0768
 2622OCT     C2 5244  16.859   7.135   8.688  0.1183 -0.2195  0.0980
 2623OCT     C1 5245  16.417   8.545  13.952 -0.0713 -0.2941 -0.0256
 2623OCT     C2 5246  16.158   8.642  14.356 -0.1427  0.0003  0.0401
 2624OCT     C1 5247  16.419   6.105  23.514 -0.2441  0.1329  0.0481
 2624OCT     C2 5248  16.456   6.509   0.082 -0.2464 -0.1646 -0.2383
 2625OCT     C1 5249   3.539   5.341   6.073 -0.0437  0.1095 -0.1874
 2625OCT     C2 5250   3.547   4.880   6.251 -0.1865 -0.0202 -0.2901
 2626OCT     C1 5251  20.609  13.572  15.107  0.0675  0.2514 -0.0752
 2626OCT     C2 5252  20.758  13.990  14.992  0.3434  0.0723 -0.2895
 2627OCT     C1 5253  11.526  16.159  13.967 -0.0878 -0.0763  0.0050
 2627OCT     C2 5254  11.304  15.808  13.975  0.2646  0.0781  0.0292
 2628OCT     C1 5255   7.210  16.544   4.767  0.1291  0.0954 -0.0883
 2628OCT     C2 5256   6.848  16.660   4.528 -0.0129  0.0893 -0.0683
 2629OCT     C1 5257  22.666  14.744   8.696  0.2938  0.2026  0.1749
 2629OCT     C2 5258  23.135  14.849   8.567  0.0099  0.3287  0.2903
 2630OCT     C1 5259   7.484   8.040   3.094 -0.1852  0.0640  0.0124
 2630OCT     C2 5260   7.303   8.280   3.468  0.1158 -0.3748  0.1614
 2631OCT     C1 5261   7.608  21.501  15.028 -0.2216  0.0908 -0.0675
 2631OCT     C2 5262   7.696  21.553  15.516  0.1927 -0.0608  0.0455
 2632OCT     C1 5263  10.289  21.108  14.241 -0.2240 -0.1108  0.1042
 2632OCT     C2 5264  10.565  21.032  14.600 -0.1618  0.2040  0.0483
 2633OCT     C1 5265   4.650  19.073   3.882 -0.2316  0.2560 -0.2115
 2633OCT     C2 5266   4.963  19.303   4.150  0.0518 -0.1865  0.1619
 2634OCT     C1 5267   3.931  22.745  17.783  0.0903  0.3390 -0.0717
 2634OCT     C2 5268   4.290  22.544  17.510  0.1222 -0.0371 -0.0973
 2635OCT     C1 5269  17.978   5.851   7.010 -0.2710  0.1523 -0.2705
 2635OCT     C2 5270  17.967   5.623   7.423 -0.0459 -0.1192  0.1831
 2636OCT     C1 5271   6.437  12.937  13.993  0.2756  0.2932 -0.0962
 2636OCT     C2 5272   6.173  12.706  13.673  0.1381 -0.3235 -0.3041
 2637OCT     C1 5273   1.436   1.994  14.696  0.3417  0.1870  0.1973
 2637OCT     C2 5274   1.335   2.080  14.243 -0.0382  0.0145  0.2741
 2638OCT     C1 5275   8.497   0.320  15.875  0.0131  0.1146 -0.0150
 2638OCT     C2 5276   8.108   0.497  15.862 -0.4306  0.1854 -0.1477
 2639OCT     C1 5277  18.317  18.350   1.239 -0.1208  0.0612  0.3410
 2639OCT     C2 5278  18.497  18.411   0.834 -0.0408  0.1307  0.2948
 2640OCT     C1 5279   0.437   6.918  14.889 -0.0024 -0.1103 -0.1891
 2640OCT     C2 5280   0.262   6.902  15.320  0.4388  0.1147  0.4401
 2641OCT     C1 5281   7.227   1.144  23.422  0.0124 -0.2439 -0.2116
 2641OCT     C2 5282   6.912   1.473  23.293 -0.0257 -0.0293  0.2771
 2642OCT     C1 5283   4.423  16.641  11.393  0.2783 -0.2064 -0.3695
 2642OCT     C2 5284   4.251  17.081  11.307 -0.1361 -0.2387 -0.0434
 2643OCT     C1 5285  20.870  12.027  18.838 -0.2082 -0.1431 -0.0508
 2643OCT     C2 5286  21.239  12.253  18.697 -0.0502  0.2747 -0.2941
 2644OCT     C1 5287  18.571   0.208  13.977  0.1222 -0.4479  0.0159
 2644OCT     C2 5288  18.226   0.455  13.857  0.0911  0.1229  0.1686
 2645OCT     C1 5289  15.369  18.180   7.227 -0.1175 -0.2641  0.1139
 2645OCT     C2 5290  15.240  17.743   7.210 -0.0791 -0.0099  0.1382
 2646OCT     C1 5291   6.237  20.328  21.102  0.0280  0.2430 -0.0383
 2646OCT     C2 5292   6.585  20.668  21.226  0.0580  0.2476 -0.0113
 2647OCT     C1 5293  21.471  22.989   5.533  0.3159 -0.0603 -0.1817
 2647OCT     C2 5294  21.652  22.746   5.894  0.1171  0.0220  0.0768
 2648OCT     C1 5295   6.146   4.594  11.920  0.3147  0.0663  0.1615
 2648OCT     C2 5296   6.464   4.235  11.909 -0.1061 -0.3874 -0.0202
 2649OCT     C1 5297   1.862   1.733  17.447  0.0241  0.0035 -0.2298
 2649OCT     C2 5298   1.737   2.085  17.126  0.0093 -0.0510  0.0322
 2650OCT     C1 5299  22.080  19.901   6.083 -0.0260  0.1397  0.0711
 2650OCT     C2 5300  22.082  20.229   5.778 -0.1313 -0.4827 -0.0390
 2651OCT     C1 5301  13.893  17.585   9.747  0.2909  0.2407  0.3091
 2651OCT     C2 5302  13.578  17.281   9.595  0.1167  0.0725  0.1018
 2652OCT     C1 5303  17.387  20.342  19.023 -0.2150  0.0783 -0.1072
 2652OCT     C2 5304  17.575  20.550  18.645 -0.1969 -0.0380 -0.0778
 2653OCT     C1 5305  11.056  20.381   5.953 -0.0247 -0.1491  0.0472
 2653OCT     C2 5306  11.559  20.331   5.990  0.0973 -0.2076  0.0479
 2654OCT     C1 5307  22.292   1.524   1.438 -0.0879 -0.0833  0.1922
 2654OCT     C2 5308  22.634   1.621   1.138  0.0592 -0.1320 -0.2283
 2655OCT     C1 5309  18.738   0.111   8.227  0.2633  0.1250 -0.2112
 2655OCT     C2 5310  19.222  23.714   8.178  0.0890  0.1600  0.4039
 2656OCT     C1 5311  23.590  13.477   7.640 -0.1512 -0.1401  0.0360
 2656OCT     C2 5312  23.170  13.735   7.465 -0.0091 -0.2142 -0.1644
 2657OCT     C1 5313   7.337  21.402   2.122 -0.0781 -0.0485 -0.0050
 2657OCT     C2 5314   6.857  21.192   2.037 -0.2712  0.1119  0.2286
 2658OCT     C1 5315   4.603  20.533   7.598 -0.2732  0.0900 -0.3499
 2658OCT     C2 5316   4.639  20.634   8.053 -0.0432 -0.2205 -0.1034
 2659OCT     C1 5317  14.546   9.437  10.179  0.0275 -0.0988 -0.1626
 2659OCT     C2 5318  15.010   9.433  10.177 -0.1945 -0.0620 -0.0332
 2660OCT     C1 5319  18.560  20.493  11.849  0.1196 -0.1228 -0.1256
 2660OCT     C2 5320  18.678  20.816  11.589 -0.0830 -0.0307 -0.0464
 2661OCT     C1 5321  16.582   9.940  15.472  0.0633 -0.1595 -0.1722
 2661OCT     C2 5322  16.244   9.702  15.227 -0.0952 -0.0247  0.2798
 2662OCT     C1 5323  22.650  22.745  19.779  0.0233  0.0404  0.0532
 2662OCT     C2 5324  22.649  22.513  19.409  0.2015  0.0619  0.2582
 2663OCT     C1 5325  14.811  12.630  22.661  0.1171 -0.0955  0.0231
 2663OCT     C2 5326  14.615  12.634  23.087 -0.3646 -0.1370  0.0238
 2664OCT     C1 5327  21.476  14.140  22.235 -0.2912 -0.0165  0.1726
 2664OCT     C2 5328  21.636  14.600  22.185  0.3394 -0.1745 -0.3051
 2665OCT     C1 5329  23.211   3.758   5.113 -0.0459  0.2721 -0.2877
 2665OCT     C2 5330  22.783   3.588   5.279  0.2916 -0.3117  0.2236
 2666OCT     C1 5331   9.336   7.124   9.067 -0.2237 -0.1426 -0.1811
 2666OCT     C2 5332   9.640   7.355   9.327  0.0777 -0.0249  0.1382
 2667OCT     C1 5333   1.794   6.488  20.014  0.0737 -0.0049 -0.5854
 2667OCT     C2 5334   1.781   6.891  19.796  0.4426 -0.0193  0.0009
 2668OCT     C1 5335  13.537   1.494  22.900  0.1001  0.0590  0.2366
 2668OCT     C2 5336  13.757   1.100  22.654 -0.2932  0.4097  0.2353
 2669OCT     C1 5337   5.482  18.792   5.650 -0.1712  0.0823  0.2487
 2669OCT     C2 5338   5.619  18.450   5.354  0.1315 -0.0042 -0.3505
 2670OCT     C1 5339  15.645  15.117   5.886 -0.2460 -0.0534  0.3454
 2670OCT     C2 5340  15.630  15.386   6.241  0.0773 -0.0677  0.0910
 2671OCT     C1 5341  14.175   9.477   0.095 -0.3298 -0.3356 -0.0519
 2671OCT     C2 5342  14.533   9.364   0.419 -0.2909 -0.0158  0.3969
 2672OCT     C1 5343  14.798   7.698  21.854 -0.0460  0.5557  0.2409
 2672OCT     C2 5344  14.748   7.535  21.369 -0.1046 -0.0470 -0.2268
 2673OCT     C1 5345  11.922   5.787  12.575 -0.2976  0.0705 -0.1483
 2673OCT     C2 5346  12.282   6.072  12.721 -0.2183 -0.0920 -0.0030
 2674OCT     C1 5347   4.531   3.202   9.805  0.2552 -0.0351 -0.1638
 2674OCT     C2 5348   4.837   3.237   9.413 -0.0607 -0.2259 -0.2101
 2675OCT     C1 5349   7.575   2.246  23.435 -0.3892  0.1094  0.1833
 2675OCT     C2 5350   7.805   1.847  23.282 -0.0452  0.0802 -0.3764
 2676OCT     C1 5351  23.009   5.610  21.769  0.0889  0.1577 -0.0705
 2676OCT     C2 5352  23.013   6.002  21.582 -0.0086 -0.1031  0.0764
 2677OCT     C1 5353   7.927  12.260   5.779  0.3195  0.3698 -0.0629
 2677OCT     C2 5354   8.193  12.052   5.422 -0.0530  0.3486 -0.2319
 2678OCT     C1 5355   8.498   3.377   6.560  0.2881 -0.0685  0.2424
 2678OCT     C2 5356   8.334   2.981   6.678  0.2693 -0.3856  0.2016
 2679OCT     C1 5357  21.443  10.229  22.101  0.0032 -0.1082  0.3749
 2679OCT     C2 5358  21.332  10.599  21.874  0.1906  0.1349  0.1845
 2680OCT     C1 5359  14.191  15.852   6.292  0.1949 -0.0539 -0.2083
 2680OCT     C2 5360  14.561  15.851   5.941  0.0092  0.3622 -0.0681
 2681OCT     C1 5361  20.008   4.857   3.916  0.1568 -0.0267 -0.1155
 2681OCT     C2 5362  20.206   4.584   3.589  0.0858  0.2404  0.2921
 2682OCT     C1 5363  17.588   6.704  12.903 -0.0430  0.1037  0.0384
 2682OCT     C2 5364  17.315   6.487  12.579 -0.0921 -0.2692  0.2745
 2683OCT     C1 5365  20.349   1.986   0.622  0.1373 -0.1095 -0.0690
 2683OCT     C2 5366  20.102   2.399   0.773 -0.0465  0.2984  0.0302
 2684OCT     C1 5367  14.099  11.424  18.966  0.1712 -0.5273 -0.2243
 2684OCT     C2 5368  13.779  11.193  19.117 -0.0268 -0.1445 -0.2231
 2685OCT     C1 5369   9.745  10.176  21.125 -0.0101  0.0524 -0.0378
 2685OCT     C2 5370   9.487   9.744  21.181 -0.0207 -0.3554  0.4305
 2686OCT     C1 5371  18.465   3.996  10.430  0.1203 -0.0831 -0.0478
 2686OCT     C2 5372  18.799   4.193  10.670 -0.1811 -0.2857 -0.0401
 2687OCT     C1 5373   7.419  15.922   3.937  0.0904  0.0653 -0.1819
 2687OCT     C2 5374   7.550  15.500   3.863  0.0519 -0.3113  0.1648
 2688OCT     C1 5375  14.650  14.728  19.167 -0.1418 -0.1623  0.2439
 2688OCT     C2 5376  14.849  15.134  19.001 -0.3107 -0.0709  0.2880
 2689OCT     C1 5377   9.559   4.520  21.604  0.4530 -0.3166  0.0046
 2689OCT     C2 5378   9.154   4.697  21.497 -0.2098 -0.1736 -0.2764
 2690OCT     C1 5379   1.046   3.255  10.510  0.0255 -0.1833  0.2889
 2690OCT     C2 5380   1.041   3.636  10.170  0.2077 -0.0913 -0.0628
 2691OCT     C1 5381   5.297  14.431   6.388  0.1804 -0.0876  0.3901
 2691OCT     C2 5382   5.268  14.886   6.512 -0.0737 -0.0589 -0.1884
 2692OCT     C1 5383   0.873  18.063  19.917 -0.1439 -0.0685 -0.1020
 2692OCT     C2 5384   0.925  18.315  20.269  0.2095  0.0011 -0.1066
 2693OCT     C1 5385   1.819  16.784  10.650  0.2448 -0.2331 -0.0573
 2693OCT     C2 5386   1.974  17.085  10.308  0.0034 -0.0484  0.5011
 2694OCT     C1 5387  10.319  18.580  20.791 -0.2104 -0.2302 -0.0189
 2694OCT     C2 5388  10.261  18.828  20.375  0.2568  0.2420 -0.1040
 2695OCT     C1 5389  17.142   4.091  11.742 -0.0664  0.2459 -0.3198
 2695OCT     C2 5390  17.132   4.201  12.180  0.0475  0.0587  0.1602
 2696OCT     C1 5391  16.915  18.675   9.247  0.0896  0.0475 -0.1474
 2696OCT     C2 5392  17.143  18.565   9.591 -0.2437  0.1654 -0.1732
 2697OCT     C1 5393  12.036   1.099   8.365  0.0378 -0.1074  0.0714
 2697OCT     C2 5394  11.989   1.592   8.284  0.2267  0.1040  0.2205
 2698OCT     C1 5395  21.518  21.962  14.985 -0.1726 -0.2389  0.2267
 2698OCT     C2 5396  21.291  22.398  15.099 -0.2771  0.2261 -0.0778
 2699OCT     C1 5397   0.605   2.902  13.393 -0.0490 -0.2715  0.2580
 2699OCT     C2 5398   0.345   3.103  13.745  0.0998 -0.3396  0.0077
 2700OCT     C1 5399   7.038   1.494  11.153 -0.1661 -0.2542 -0.0889
 2700OCT     C2 5400   7.347   1.642  10.850  0.0609  0.3008 -0.2240
 2701OCT     C1 5401  15.636  13.021  11.572 -0.3349  0.3550  0.0682
 2701OCT     C2 5402  15.688  13.138  12.023  0.0687 -0.2027 -0.4763
 2702OCT     C1 5403   9.876  23.739  21.635  0.1012  0.1594  0.1631
 2702OCT     C2 5404   9.585   0.002  21.249  0.0753 -0.1929  0.1591
 2703OCT     C1 5405  16.462  22.778  21.655 -0.0105 -0.1911 -0.0738
 2703OCT     C2 5406  16.782  23.147  21.557  0.3829 -0.0752  0.6065
 2704OCT     C1 5407   4.887   5.139  16.786  0.2147 -0.5157  0.2743
 2704OCT     C2 5408   4.918   5.598  16.612  0.0337  0.4766 -0.3123
 2705OCT     C1 5409  14.333  22.406  12.906 -0.2141  0.1220  0.2517
 2705OCT     C2 5410  14.247  22.702  12.592  0.2857 -0.1647 -0.0413
 2706OCT     C1 5411  14.525   8.194  15.682  0.1214 -0.1171 -0.1872
 2706OCT     C2 5412  14.916   8.279  15.481  0.3197  0.2380 -0.0027
 2707OCT     C1 5413   5.517  21.923  16.890 -0.3562 -0.1098 -0.4163
 2707OCT     C2 5414   5.714  22.287  16.608 -0.0734  0.0105  0.2096
 2708OCT     C1 5415   4.663  14.135   7.241  0.3494 -0.0477  0.0959
 2708OCT     C2 5416   4.631  14.071   7.720  0.1087 -0.0898 -0.1389
 2709OCT     C1 5417   8.050   8.122   6.200  0.0223  0.5001 -0.0263
 2709OCT     C2 5418   8.302   8.445   5.956 -0.1413  0.0413  0.0261
 2710OCT     C1 5419   3.720   3.694  11.792  0.1155  0.0744  0.2114
 2710OCT     C2 5420   3.855   3.626  11.323 -0.0523  0.1950 -0.1113
 2711OCT     C1 5421   8.166  11.141  10.788 -0.1075  0.4736 -0.1725
 2711OCT     C2 5422   8.517  10.787  10.818 -0.1149  0.0960 -0.0124
 2712OCT     C1 5423   0.668   6.221  18.891 -0.2565 -0.1170  0.2329
 2712OCT     C2 5424   0.656   5.816  18.652 -0.0548  0.1531 -0.4770
 2713OCT     C1 5425  10.023  21.755   6.933  0.0914 -0.0033  0.1342
 2713OCT     C2 5426  10.379  21.730   6.671 -0.2846 -0.3851 -0.0022
 2714OCT     C1 5427   6.856  21.316   1.264 -0.3660  0.1148 -0.0146
 2714OCT     C2 5428   7.232  21.579   1.153  0.0994 -0.0400  0.1354
 2715OCT     C1 5429   9.595  13.103  13.281 -0.0168 -0.0499 -0.1952
 2715OCT     C2 5430   9.901  13.452  13.221 -0.1485  0.1112 -0.0458
 2716OCT     C1 5431   5.660  10.296   0.154 -0.2407  0.1543 -0.1623
 2716OCT     C2 5432   5.544   9.883   0.374  0.2620  0.1084 -0.2620
 2717OCT     C1 5433   5.144  20.335   9.318  0.0546  0.0604  0.0573
 2717OCT     C2 5434   5.393  20.164   9.625 -0.0342 -0.1029  0.1406
 2718OCT     C1 5435   3.741   9.515  16.340  0.1240  0.1239  0.0844
 2718OCT     C2 5436   4.038   9.800  16.126  0.0750  0.0420  0.3200
 2719OCT     C1 5437  12.144  20.044   6.288 -0.0658  0.1189 -0.1481
 2719OCT     C2 5438  11.782  19.772   6.179  0.1120 -0.1114 -0.0643
 2720OCT     C1 5439   0.356   2.825  12.914 -0.0934  0.2188 -0.0857
 2720OCT     C2 5440   0.135   2.449  13.066  0.2340 -0.0140 -0.2037
 2721OCT     C1 5441  12.279   3.703  19.419  0.2324  0.0263  0.0839
 2721OCT     C2 5442  12.068   3.392  19.143 -0.3186  0.0529 -0.0192
 2722OCT     C1 5443  11.318   7.477   7.099  0.0483 -0.2696  0.0628
 2722OCT     C2 5444  11.325   7.291   7.541 -0.2108  0.2338 -0.0805
 2723OCT     C1 5445  13.362   4.369  11.410  0.2143 -0.3674 -0.2769
 2723OCT     C2 5446  13.116   4.036  11.223  0.0979  0.3365  0.1435
 2724OCT     C1 5447  20.843   1.496  13.946 -0.0343  0.0432 -0.1054
 2724OCT     C2 5448  20.563   1.291  14.290  0.1275  0.0463 -0.0128
 2725OCT     C1 5449   9.914  17.066  13.122 -0.0012 -0.3886 -0.0898
 2725OCT     C2 5450  10.218  17.029  13.452  0.1903  0.1102 -0.2023
 2726OCT     C1 5451   3.523  13.950  13.033  0.1730 -0.1808  0.4533
 2726OCT     C2 5452   3.322  13.994  13.480 -0.1613  0.0075 -0.0768
 2727OCT     C1 5453  19.231   3.159   2.090  0.1762  0.0307 -0.1791
 2727OCT     C2 5454  19.514   2.855   2.276 -0.0402  0.2030  0.1385
 2728OCT     C1 5455  12.858  11.958  18.711 -0.1379  0.1147  0.2423
 2728OCT     C2 5456  12.934  11.774  19.149 -0.0200  0.0264  0.0028
 2729OCT     C1 5457   6.053  20.240   1.633 -0.1878  0.1490  0.1165
 2729OCT     C2 5458   5.670  19.966   1.578  0.1619 -0.2825  0.3362
 2730OCT     C1 5459   8.887  17.686  16.912 -0.0449 -0.0326  0.0987
 2730OCT     C2 5460   8.760  17.740  17.328 -0.1349 -0.0521  0.1731
 2731OCT     C1 5461  23.447   2.876  14.238  0.1413  0.1203  0.2073
 2731OCT     C2 5462  23.563   3.017  13.791  0.1188 -0.3988 -0.2012
 2732OCT     C1 5463  16.291  21.194  15.865  0.0598  0.2280 -0.1239
 2732OCT     C2 5464  16.675  21.473  15.961 -0.0342 -0.3245  0.1774
 2733OCT     C1 5465  20.827  12.545  16.911  0.1867 -0.1151 -0.1091
 2733OCT     C2 5466  20.510  12.392  17.210 -0.1756  0.0596 -0.1295
 2734OCT     C1 5467   8.350  15.586  16.951 -0.3475  0.1915 -0.3000
 2734OCT     C2 5468   8.771  15.622  16.833 -0.1246  0.1686 -0.0155
 2735OCT     C1 5469  13.349   1.789  22.159 -0.0032 -0.1475 -0.1271
 2735OCT     C2 5470  13.309   1.920  22.597 -0.0031 -0.0624  0.2567
 2736OCT     C1 5471  14.412  10.941   6.704 -0.1191  0.1360  0.1033
 2736OCT     C2 5472  14.689  11.221   6.953 -0.2351 -0.2957 -0.0846
 2737OCT     C1 5473  13.806  23.700   1.717  0.1015  0.0385 -0.2018
 2737OCT     C2 5474  13.672  23.242   1.710 -0.0923  0.0355  0.0749
 2738OCT     C1 5475  21.671   3.634   5.921 -0.2485  0.0442 -0.3014
 2738OCT     C2 5476  21.208   3.771   5.942 -0.2013 -0.0631 -0.0743
 2739OCT     C1 5477  22.883  15.765  15.608  0.2229  0.0862  0.1960
 2739OCT     C2 5478  22.755  16.083  15.295  0.3497 -0.3012  0.0615
 2740OCT     C1 5479   6.339  18.729  13.953 -0.0624  0.1636  0.0227
 2740OCT     C2 5480   6.618  19.041  14.155 -0.1498 -0.4539  0.0556
 2741OCT     C1 5481   2.347  22.144  16.191  0.1855 -0.1361  0.1685
 2741OCT     C2 5482   2.097  22.282  15.796  0.2185  0.1117 -0.2053
 2742OCT     C1 5483   1.021  21.151  15.044 -0.1893  0.0712  0.0770
 2742OCT     C2 5484   0.957  20.723  14.813 -0.0685 -0.4460  0.1080
 2743OCT     C1 5485  16.232  20.447   7.619 -0.2659  0.0740  0.3553
 2743OCT     C2 5486  16.593  20.716   7.790 -0.0422 -0.1631 -0.0510
 2744OCT     C1 5487  15.657   2.047   1.619 -0.0257  0.1119 -0.2573
 2744OCT     C2 5488  16.079   1.898   1.501 -0.1735 -0.2828 -0.1710
 2745OCT     C1 5489  12.980   0.630  21.935  0.0988 -0.1009  0.1303
 2745OCT     C2 5490  12.600   0.599  21.595 -0.0041  0.1189  0.0336
 2746OCT     C1 5491   7.565   5.012  15.084 -0.0264 -0.1424  0.1104
 2746OCT     C2 5492   7.596   5.076  15.574 -0.1618  0.0025 -0.1029
 2747OCT     C1 5493  16.772   7.117  15.261 -0.0388 -0.2377 -0.2496
 2747OCT     C2 5494  17.247   7.157  15.321 -0.0733  0.1050  0.5000
 2748OCT     C1 5495  10.475  18.031  15.852  0.0536 -0.1671  0.3151
 2748OCT     C2 5496  10.052  17.936  15.654  0.1234 -0.5171 -0.3607
 2749OCT     C1 5497   5.862  22.608   6.308 -0.1303  0.0945  0.1488
 2749OCT     C2 5498   5.468  22.772   6.244 -0.0247 -0.0345 -0.0534
 2750OCT     C1 5499  22.596  22.838   7.235  0.0122 -0.2802 -0.0557
 2750OCT     C2 5500  22.700  22.391   7.185  0.2403  0.1458  0.0724
 2751OCT     C1 5501  22.989  23.070  12.522 -0.0075  0.3465 -0.2731
 2751OCT     C2 5502  23.265  22.805  12.208  0.4178  0.3075 -0.0079
 2752OCT     C1 5503   3.782  21.412   5.027 -0.0934 -0.2356 -0.0201
 2752OCT     C2 5504   3.410  21.567   4.786 -0.0197  0.3853 -0.1931
 2753OCT     C1 5505  22.162  21.243   2.792  0.0570 -0.2480 -0.2668
 2753OCT     C2 5506  22.130  20.992   3.217 -0.2721  0.0600 -0.0074
 2754OCT     C1 5507   6.858  17.236   4.411 -0.2393  0.1720 -0.3236
 2754OCT     C2 5508   6.787  16.919   4.066 -0.1758 -0.0723  0.0634
 2755OCT     C1 5509   0.365  10.661  19.615  0.1899 -0.3531  0.0594
 2755OCT     C2 5510   0.357  10.820  20.087  0.2021  0.1783  0.2810
 2756OCT     C1 5511   7.842   8.093  11.492 -0.4951 -0.1962  0.1612
 2756OCT     C2 5512   7.881   8.294  11.888  0.0279  0.4125 -0.0385
 2757OCT     C1 5513   3.667  16.182  10.410  0.1376 -0.1329  0.0546
 2757OCT     C2 5514   3.793  16.622  10.445  0.0002  0.1037 -0.0725
 2758OCT     C1 5515  14.186   8.695  20.119  0.1613  0.3792  0.2208
 2758OCT     C2 5516  13.891   9.109  20.342  0.2376 -0.2161 -0.2860
 2759OCT     C1 5517  11.291  16.969  14.312 -0.4034  0.0258  0.3067
 2759OCT     C2 5518  11.631  17.137  14.034  0.0665  0.1490  0.0717
 2760OCT     C1 5519  22.323  12.323   8.216 -0.2195  0.0678 -0.0420
 2760OCT     C2 5520  21.890  12.303   8.386  0.2082  0.1400 -0.2783
 2761OCT     C1 5521  17.985   8.269  19.906  0.3166  0.3137  0.0325
 2761OCT     C2 5522  17.835   7.894  20.186  0.2617 -0.2145  0.4344
 2762OCT     C1 5523  21.690  16.706  16.078  0.1832 -0.1787  0.1361
 2762OCT     C2 5524  21.702  16.930  16.512  0.1261  0.4970 -0.0013
 2763OCT     C1 5525  12.297  13.263  12.754 -0.0621 -0.0159  0.3209
 2763OCT     C2 5526  12.109  13.024  12.357  0.1409 -0.0400  0.0369
 2764OCT     C1 5527   6.332   9.441  14.298 -0.0878  0.4026 -0.3230
 2764OCT     C2 5528   6.402   9.621  13.859  0.0498  0.1149  0.0282
 2765OCT     C1 5529  20.526   5.698   8.949  0.1233  0.1910  0.1730
 2765OCT     C2 5530  20.182   5.891   8.747  0.1668 -0.2315 -0.1823
 2766OCT     C1 5531  20.150   4.345  16.172 -0.1046  0.1571  0.2519
 2766OCT     C2 5532  20.475   3.993  16.262 -0.2272  0.1568 -0.3906
 2767OCT     C1 5533  15.646  13.456  14.468 -0.2774  0.1674 -0.3892
 2767OCT     C2 5534  15.360  13.177  14.753 -0.1090  0.1942  0.2346
 2768OCT     C1 5535  17.623  16.637   4.812  0.0424 -0.1970 -0.0018
 2768OCT     C2 5536  17.183  16.707   4.735  0.0916  0.0442 -0.0284
 2769OCT     C1 5537  17.642  14.701  21.629 -0.1945  0.1311  0.0249
 2769OCT     C2 5538  17.752  14.735  22.108 -0.2466  0.0093 -0.2453
 2770OCT     C1 5539   6.900  18.841   2.083 -0.0281  0.2351  0.0712
 2770OCT     C2 5540   7.127  18.954   2.439  0.1199  0.3684  0.1871
 2771OCT     C1 5541   4.390  23.225  10.959  0.2224  0.2297 -0.1211
 2771OCT     C2 5542   4.210  23.138  11.358 -0.2278  0.0928 -0.1531
 2772OCT     C1 5543   9.231  18.681   0.353  0.2785  0.2319  0.0112
 2772OCT     C2 5544   9.419  19.114   0.174  0.1770 -0.0723  0.0783
 2773OCT     C1 5545  21.361  20.539  16.236  0.0970 -0.0794  0.2132
 2773OCT     C2 5546  21.478  20.445  15.768 -0.5359 -0.1259  0.0232
 2774OCT     C1 5547  15.551   5.984  17.131  0.0073 -0.0585  0.2549
 2774OCT     C2 5548  15.157   6.212  17.133  0.1004 -0.1663 -0.0138
 2775OCT     C1 5549  11.481   4.568  11.480 -0.1172  0.0912  0.1727
 2775OCT     C2 5550  11.548   5.006  11.486 -0.0783 -0.0382  0.2307
 2776OCT     C1 5551  17.326  12.954   1.275  0.2554  0.0431 -0.2268
 2776OCT     C2 5552  17.699  13.052   1.556  0.2392  0.1930 -0.0367
 2777OCT     C1 5553  22.248  11.587   5.596 -0.1782  0.1495  0.0039
 2777OCT     C2 5554  22.070  11.211   5.772 -0.6127 -0.1946 -0.3348
 2778OCT     C1 5555  14.961   2.345   9.464  0.1426 -0.2415 -0.2156
 2778OCT     C2 5556  15.022   2.269   9.007 -0.1516 -0.1079 -0.0392
 2779OCT     C1 5557  14.461   5.091  16.855 -0.1962  0.1666  0.3005
 2779OCT     C2 5558  14.083   5.323  16.970 -0.1628  0.0697 -0.0479
 2780OCT     C1 5559  15.349  11.345   0.715 -0.2839 -0.1615 -0.1979
 2780OCT     C2 5560  15.280  10.878   0.849 -0.2222 -0.1170  0.0554
 2781OCT     C1 5561   7.894  14.895  13.656  0.2513  0.3736  0.0455
 2781OCT     C2 5562   7.751  15.023  14.127 -0.1643 -0.0095 -0.4002
 2782OCT     C1 5563  10.215  23.004  13.240 -0.0264 -0.0132 -0.0382
 2782OCT     C2 5564  10.317  22.835  13.589 -0.0374  0.1172  0.0597
 2783OCT     C1 5565  17.413  12.889  11.795 -0.1098  0.0636 -0.0676
 2783OCT     C2 5566  17.315  12.466  11.579 -0.1292 -0.4024  0.0845
 2784OCT     C1 5567   9.652  22.096  22.623 -0.4461  0.5048 -0.0708
 2784OCT     C2 5568   9.252  22.360  22.713 -0.2213  0.2244 -0.0985
 2785OCT     C1 5569  10.224  22.941  18.552 -0.4278 -0.1324 -0.0928
 2785OCT     C2 5570  10.385  22.669  18.873 -0.0378 -0.0612 -0.0963
 2786OCT     C1 5571  11.324   1.844   1.768 -0.2105  0.2999 -0.2150
 2786OCT     C2 5572  11.351   1.507   1.426 -0.2342  0.2913 -0.4043
 2787OCT     C1 5573   4.191  18.891  21.678  0.1572 -0.1895 -0.0308
 2787OCT     C2 5574   4.638  19.069  21.512 -0.0956 -0.0381  0.0825
 2788OCT     C1 5575   6.442   3.597   1.284  0.1447  0.2825  0.2515
 2788OCT     C2 5576   6.817   3.815   1.442 -0.1087  0.0419  0.5664
 2789OCT     C1 5577  17.927  10.288  16.655 -0.1296  0.3118 -0.0243
 2789OCT     C2 5578  17.499  10.153  16.470  0.1580  0.0394  0.0066
 2790OCT     C1 5579   6.030   9.652   5.718  0.2011 -0.2247  0.0277
 2790OCT     C2 5580   5.723   9.713   6.056 -0.1505  0.0418 -0.2337
 2791OCT     C1 5581   8.543   9.408  20.079  0.3071 -0.3475 -0.2017
 2791OCT     C2 5582   8.858   9.731  20.305  0.1651  0.3257  0.0310
 2792OCT     C1 5583  13.172  23.653  17.261 -0.0699  0.1772 -0.2169
 2792OCT     C2 5584  13.578  23.535  17.246  0.2251 -0.0218  0.3662
 2793OCT     C1 5585  20.262   9.670  17.992  0.1010 -0.2057  0.1057
 2793OCT     C2 5586  20.583   9.369  17.883 -0.2392 -0.0152 -0.0038
 2794OCT     C1 5587  12.182  22.595   0.249  0.1002  0.0232  0.0253
 2794OCT     C2 5588  11.842  22.835   0.141  0.0697  0.0244 -0.1743
 2795OCT     C1 5589   1.334  22.635   0.360  0.2452  0.0748  0.2509
 2795OCT     C2 5590   1.132  22.843   0.011  0.1602  0.2896 -0.1972
 2796OCT     C1 5591  20.751   3.708  18.762 -0.0007 -0.3648 -0.3060
 2796OCT     C2 5592  20.641   3.251  18.809 -0.3282  0.0050  0.1385
 2797OCT     C1 5593   3.077   1.714  13.366 -0.2781 -0.2597  0.2310
 2797OCT     C2 5594   2.879   1.336  13.495  0.0854 -0.1744 -0.3823
 2798OCT     C1 5595  23.631  20.930  22.824  0.0662  0.1961  0.2123
 2798OCT     C2 5596   0.198  20.663  22.743 -0.1582 -0.0913 -0.0687
 2799OCT     C1 5597  12.635  23.229   1.316  0.1594  0.1788 -0.2300
 2799OCT     C2 5598  12.925  22.911   1.413 -0.1058  0.1618  0.1895
 2800OCT     C1 5599  13.026  12.529   7.223 -0.1844 -0.1840  0.2582
 2800OCT     C2 5600  13.109  12.093   7.004  0.2037  0.2716 -0.3705
 2801OCT     C1 5601  18.332   9.522  15.746 -0.1481 -0.1360 -0.0828
 2801OCT     C2 5602  18.141   9.894  15.572  0.2357 -0.0800  0.0395
 2802OCT     C1 5603   4.462  14.027  19.529 -0.1737 -0.0499 -0.1723
 2802OCT     C2 5604   4.195  14.051  19.197  0.1182 -0.0792  0.0936
 2803OCT     C1 5605  17.424  14.571  16.549 -0.4281 -0.0902 -0.1153
 2803OCT     C2 5606  17.815  14.698  16.777 -0.1409  0.2470 -0.0241
 2804OCT     C1 5607  12.641  21.223   1.725  0.3973  0.3811 -0.1084
 2804OCT     C2 5608  12.887  21.424   1.987 -0.1014 -0.0294 -0.2175
 2805OCT     C1 5609   4.787   0.264  11.940  0.1000  0.3580  0.0686
 2805OCT     C2 5610   4.949   0.692  12.041 -0.0346  0.0396 -0.0845
 2806OCT     C1 5611   5.523  19.173  21.801  0.0116  0.2006  0.2711
 2806OCT     C2 5612   5.105  18.949  21.625 -0.1848 -0.2395  0.3856
 2807OCT     C1 5613   4.539  13.975   5.086 -0.2423 -0.3177  0.1086
 2807OCT     C2 5614   4.293  13.648   5.201 -0.4110  0.1604 -0.0511
 2808OCT     C1 5615   9.956  17.147  19.587  0.0913  0.0180 -0.2895
 2808OCT     C2 5616  10.152  17.498  19.876 -0.1630 -0.1221  0.0069
 2809OCT     C1 5617  16.100   8.712   2.396  0.2977  0.2833 -0.2476
 2809OCT     C2 5618  16.217   8.343   2.184  0.2921 -0.1191  0.2721
 2810OCT     C1 5619   1.318  22.895   3.277  0.1704  0.3772  0.1628
 2810OCT     C2 5620   0.987  22.675   3.104  0.2229  0.0256  0.1352
 2811OCT     C1 5621  13.440  18.651   4.841  0.0619 -0.0085 -0.1482
 2811OCT     C2 5622  13.088  18.670   4.530  0.0041  0.0629  0.1203
 2812OCT     C1 5623   0.969   8.710   4.821  0.3551 -0.0217  0.2327
 2812OCT     C2 5624   1.332   8.919   4.656 -0.0950  0.2351  0.0033
 2813OCT     C1 5625   5.554   1.830   8.380  0.2190 -0.1006  0.2298
 2813OCT     C2 5626   5.822   1.429   8.517 -0.2674  0.0218 -0.1994
 2814OCT     C1 5627  14.876  13.336   6.109  0.0579  0.4234  0.1546
 2814OCT     C2 5628  14.820  13.675   6.355  0.0663  0.3107 -0.0185
 2815OCT     C1 5629   7.078   3.812  21.119 -0.0176 -0.0165  0.1333
 2815OCT     C2 5630   6.661   3.782  20.890  0.0336  0.3116  0.0848
 2816OCT     C1 5631   7.179  19.269  18.547 -0.0346  0.0510  0.1859
 2816OCT     C2 5632   7.333  18.929  18.868  0.1296 -0.0800 -0.3130
 2817OCT     C1 5633  14.622  22.720  14.899  0.0753 -0.1801  0.1901
 2817OCT     C2 5634  14.482  23.179  14.876 -0.0731  0.2393  0.0967
 2818OCT     C1 5635  15.540  17.175  16.208 -0.1844 -0.0608  0.1013
 2818OCT     C2 5636  15.378  17.504  16.443 -0.0145  0.3611  0.0645
 2819OCT     C1 5637  12.473   5.912   9.141 -0.3842  0.0887  0.2715
 2819OCT     C2 5638  12.904   6.033   9.318 -0.6570  0.0342  0.3094
 2820OCT     C1 5639   1.287   3.324   9.472  0.2455 -0.1473 -0.0353
 2820OCT     C2 5640   1.009   3.666   9.644 -0.2187 -0.2589 -0.0254
 2821OCT     C1 5641  16.206   7.837   9.575 -0.2315  0.0817  0.0359
 2821OCT     C2 5642  15.959   8.044   9.253  0.6349 -0.1961 -0.0171
 2822OCT     C1 5643  17.659  22.398  23.700  0.3035 -0.2174  0.2067
 2822OCT     C2 5644  17.819  22.506  23.259 -0.2573  0.2410  0.0003
 2823OCT     C1 5645  10.581  17.874   5.863  0.0527  0.0521  0.0063
 2823OCT     C2 5646  10.145  18.091   5.783  0.1907  0.0341  0.0509
 2824OCT     C1 5647  21.798  19.648   1.575  0.2134  0.2309 -0.4023
 2824OCT     C2 5648  22.165  19.719   1.320  0.2218  0.1160 -0.3276
 2825OCT     C1 5649  17.808  23.733  17.231 -0.3661  0.2010 -0.1750
 2825OCT     C2 5650  17.847   0.283  16.886  0.1230 -0.1263 -0.0831
 2826OCT     C1 5651   7.033  20.196   8.227 -0.1092  0.5589  0.0858
 2826OCT     C2 5652   6.648  20.190   8.547  0.1827  0.2679 -0.0747
 2827OCT     C1 5653   7.787  12.911   0.508 -0.0506 -0.1523 -0.1904
 2827OCT     C2 5654   8.083  13.325   0.556 -0.2892  0.0626  0.2128
 2828OCT     C1 5655   4.867  19.636   7.313 -0.1721  0.1180 -0.0671
 2828OCT     C2 5656   4.840  19.648   6.822  0.1125 -0.2571  0.2789
 2829OCT     C1 5657  19.253  13.524  10.362  0.0641  0.0755 -0.1462
 2829OCT     C2 5658  19.511  13.126  10.250 -0.4964 -0.1520  0.0611
 2830OCT     C1 5659  15.111   1.784   8.936  0.0173 -0.1302  0.0570
 2830OCT     C2 5660  15.032   1.714   9.408 -0.1736  0.1759  0.2679
 2831OCT     C1 5661   6.810   1.619   4.962  0.3823  0.4089 -0.2420
 2831OCT     C2 5662   7.037   1.422   4.614 -0.0902  0.2450 -0.2846
 2832OCT     C1 5663  10.195  15.039  18.996 -0.0778  0.1920  0.2576
 2832OCT     C2 5664   9.964  15.005  18.591 -0.3317 -0.4231 -0.0049
 2833OCT     C1 5665   3.573  15.111  22.865 -0.0789 -0.2521 -0.3829
 2833OCT     C2 5666   3.476  15.346  22.466 -0.0762 -0.0915 -0.1730
 2834OCT     C1 5667  16.960  10.472  12.705  0.0182  0.0342  0.0191
 2834OCT     C2 5668  16.643  10.835  12.784 -0.2086  0.0229  0.0533
 2835OCT     C1 5669  19.145   0.100   1.870  0.0959  0.1155 -0.0513
 2835OCT     C2 5670  18.823  23.655   1.614 -0.1196 -0.3138  0.0684
 2836OCT     C1 5671  14.457  19.774  14.388  0.2372 -0.0728  0.0714
 2836OCT     C2 5672  14.425  19.712  14.824 -0.0479  0.3338  0.1699
 2837OCT     C1 5673   5.423   2.723   7.171 -0.0121 -0.1528 -0.3215
 2837OCT     C2 5674   5.560   2.826   6.755 -0.2113 -0.1682  0.1653
 2838OCT     C1 5675   3.481  19.084   4.808  0.3733  0.5642 -0.1441
 2838OCT     C2 5676   3.403  19.482   5.051 -0.0131 -0.1171 -0.0369
 2839OCT     C1 5677  15.593  20.765  12.158  0.3337 -0.2388  0.2964
 2839OCT     C2 5678  15.985  20.702  12.297 -0.4769 -0.5304  0.0968
 2840OCT     C1 5679  14.383  19.178   1.531 -0.3974 -0.1255  0.1768
 2840OCT     C2 5680  14.078  18.882   1.729  0.0347  0.2134 -0.1749
 2841OCT     C1 5681  18.040  15.003   4.998  0.2106  0.0574  0.0218
 2841OCT     C2 5682  18.104  15.186   5.448  0.2944 -0.2444 -0.0997
 2842OCT     C1 5683  10.682  15.902   9.310 -0.3626  0.2159  0.1559
 2842OCT     C2 5684  10.524  15.801   8.902 -0.0996 -0.0732  0.1169
 2843OCT     C1 5685  18.524  15.723  12.798 -0.4476 -0.1881 -0.0442
 2843OCT     C2 5686  18.724  15.861  13.204 -0.0400  0.0587 -0.0100
 2844OCT     C1 5687   0.396   1.777  13.955  0.3133  0.2524  0.4611
 2844OCT     C2 5688   0.621   1.763  14.363 -0.2294  0.1404 -0.1958
 2845OCT     C1 5689   4.863  13.842  16.318 -0.1045 -0.0925  0.0070
 2845OCT     C2 5690   4.660  13.686  15.890  0.0966  0.0710  0.3386
 2846OCT     C1 5691   4.006  19.969   9.939  0.0291 -0.0807  0.0233
 2846OCT     C2 5692   3.667  19.818  10.134  0.1049 -0.1776 -0.4121
 2847OCT     C1 5693   4.080  17.633   6.314  0.0415  0.0526 -0.2097
 2847OCT     C2 5694   4.436  17.886   6.570  0.3671 -0.2567  0.3063
 2848OCT     C1 5695   7.990   6.826   8.438  0.2326 -0.3267  0.4816
 2848OCT     C2 5696   8.150   7.190   8.698  0.3372 -0.0767 -0.4501
 2849OCT     C1 5697  18.706   8.443  18.517  0.3723 -0.2821  0.0771
 2849OCT     C2 5698  19.171   8.617  18.508  0.0808  0.4463 -0.3126
 2850OCT     C1 5699  13.486   5.199   5.390  0.1031 -0.1424  0.1236
 2850OCT     C2 5700  13.125   5.313   5.680 -0.2753  0.5551  0.0548
 2851OCT     C1 5701  16.364   8.033   7.401 -0.2687 -0.1419 -0.2851
 2851OCT     C2 5702  16.095   8.344   7.149  0.1554 -0.3377 -0.0979
 2852OCT     C1 5703  18.270  10.469   4.033  0.1248 -0.1787 -0.0010
 2852OCT     C2 5704  18.466  10.357   3.618 -0.0378 -0.5367  0.3216
 2853OCT     C1 5705  21.972  11.070   1.157 -0.2110  0.1757  0.0362
 2853OCT     C2 5706  22.415  11.067   1.028  0.0071  0.2467  0.1334
 2854OCT     C1 5707  14.543  15.014   5.274 -0.0604 -0.1350 -0.1478
 2854OCT     C2 5708  14.738  15.375   5.020  0.0833 -0.3827  0.3045
 2855OCT     C1 5709   1.741  21.754  15.489  0.1112  0.1362  0.0406
 2855OCT     C2 5710   1.300  21.803  15.591 -0.4750  0.3651  0.1430
 2856OCT     C1 5711  12.048  16.046  21.077  0.0456  0.1994  0.0894
 2856OCT     C2 5712  11.717  15.841  21.351 -0.0284  0.0573  0.3090
 2857OCT     C1 5713  20.095  21.925  11.783  0.0249  0.2031  0.0535
 2857OCT     C2 5714  19.855  22.356  11.885 -0.1651  0.1467  0.2082
 2858OCT     C1 5715  20.683   3.900  10.698 -0.1460  0.0435 -0.1207
 2858OCT     C2 5716  21.031   4.051  10.473  0.1815  0.0604  0.1307
 2859OCT     C1 5717  15.091   6.490  14.788  0.2541  0.0470 -0.0709
 2859OCT     C2 5718  14.957   6.420  15.256  0.4313 -0.2479 -0.1667
 2860OCT     C1 5719   8.045  15.586  14.367  0.4721 -0.0373  0.3121
 2860OCT     C2 5720   8.129  15.424  14.823  0.3674  0.1447 -0.1916
 2861OCT     C1 5721  17.592   5.709  22.438 -0.1253 -0.0604 -0.1943
 2861OCT     C2 5722  17.613   6.041  22.865 -0.1142 -0.1536 -0.0042
 2862OCT     C1 5723  22.434  18.291  10.932 -0.1299  0.3861 -0.1642
 2862OCT     C2 5724  22.679  18.723  10.882  0.0573 -0.0618  0.1289
 2863OCT     C1 5725  23.669  16.011  19.270  0.2337  0.0253 -0.3747
 2863OCT     C2 5726  23.654  16.425  19.508  0.0349 -0.0180  0.0159
 2864OCT     C1 5727   1.042  21.041  16.995  0.1967 -0.1338 -0.3653
 2864OCT     C2 5728   1.136  21.244  16.622 -0.2280 -0.8047  0.0809
 2865OCT     C1 5729  21.644  17.166  11.990 -0.1512  0.0073  0.0270
 2865OCT     C2 5730  21.471  17.523  11.709  0.0477  0.1477  0.3592
 2866OCT     C1 5731  15.666   1.908   9.778  0.1542  0.0563 -0.1820
 2866OCT     C2 5732  15.267   1.713   9.892 -0.0245 -0.6008  0.1206
 2867OCT     C1 5733   4.373  16.306  18.608  0.0075  0.3794  0.0062
 2867OCT     C2 5734   4.129  16.638  18.402  0.0651  0.1097  0.0478
 2868OCT     C1 5735   5.397  11.019  13.489  0.1129 -0.2326 -0.2402
 2868OCT     C2 5736   5.572  10.598  13.543 -0.1549 -0.1429  0.2724
 2869OCT     C1 5737   4.248   1.713  23.709  0.1550 -0.3909  0.1203
 2869OCT     C2 5738   4.153   1.386   0.335  0.0384 -0.0175  0.2082
 2870OCT     C1 5739  13.942   8.395  14.606  0.4462  0.0811  0.0195
 2870OCT     C2 5740  13.859   8.319  15.089  0.2080 -0.1331 -0.0968
 2871OCT     C1 5741  20.466   2.408   5.602  0.0409  0.1038 -0.3506
 2871OCT     C2 5742  20.672   2.304   6.022  0.3151  0.2808  0.1863
 2872OCT     C1 5743   9.730  10.760   9.906 -0.0057  0.1254  0.1171
 2872OCT     C2 5744   9.529  10.561   9.497 -0.3726 -0.0972 -0.0928
 2873OCT     C1 5745  23.426   8.991  10.911 -0.0628 -0.2500  0.1464
 2873OCT     C2 5746  22.957   9.086  10.915  0.2219 -0.0589  0.1705
 2874OCT     C1 5747  12.887   2.979   1.942 -0.4409  0.0093  0.2486
 2874OCT     C2 5748  12.496   2.889   1.688  0.2364 -0.2031  0.1257
 2875OCT     C1 5749   7.032   6.047  15.183  0.2581 -0.1137  0.0756
 2875OCT     C2 5750   7.284   5.939  15.573 -0.0905  0.1050 -0.2720
 2876OCT     C1 5751  15.378  13.144  10.063  0.1072  0.4284  0.2530
 2876OCT     C2 5752  15.663  13.303   9.651 -0.2061 -0.1751 -0.1259
 2877OCT     C1 5753   0.913   2.154  20.326  0.1369  0.0040  0.0411
 2877OCT     C2 5754   1.271   1.819  20.365 -0.0468 -0.0238  0.0819
 2878OCT     C1 5755   8.309  17.413  17.464 -0.3044 -0.0889  0.3023
 2878OCT     C2 5756   7.889  17.548  17.405  0.1878  0.1852 -0.2870
 2879OCT     C1 5757  18.602  14.739   1.595 -0.0679  0.1276 -0.1668
 2879OCT     C2 5758  18.410  14.413   1.315 -0.5964 -0.3616 -0.0988
 2880OCT     C1 5759  17.276   8.008   8.787  0.0111 -0.2870  0.1860
 2880OCT     C2 5760  16.993   8.197   9.029  0.0993 -0.1360 -0.1567
 2881OCT     C1 5761  18.528  12.943   5.864  0.1309 -0.1890 -0.1302
 2881OCT     C2 5762  18.571  12.893   6.323  0.0064 -0.3857 -0.0051
 2882OCT     C1 5763   0.272  19.890  22.152 -0.0339 -0.0195  0.0033
 2882OCT     C2 5764   0.265  19.416  22.195 -0.0776  0.0457  0.0548
 2883OCT     C1 5765   6.670   8.888  14.465 -0.2847 -0.4253  0.2147
 2883OCT     C2 5766   6.303   8.623  14.366  0.1954  0.3430  0.0487
 2884OCT     C1 5767   0.345  21.194  12.451  0.1441 -0.3058  0.5536
 2884OCT     C2 5768   0.323  21.435  12.038  0.0832  0.0579 -0.0594
 2885OCT     C1 5769  12.674  19.547   8.057 -0.2672 -0.0233  0.1987
 2885OCT     C2 5770  12.361  19.644   7.728 -0.0469  0.0440 -0.0359
 2886OCT     C1 5771  15.470   2.810   3.795  0.1272  0.0826  0.1529
 2886OCT     C2 5772  15.730   2.465   3.786  0.1534 -0.4373  0.1717
 2887OCT     C1 5773   6.611  15.345  14.651 -0.2543  0.3497 -0.1914
 2887OCT     C2 5774   6.437  15.046  14.976  0.3009 -0.3683  0.2722
 2888OCT     C1 5775   0.203   7.332  14.912 -0.1501  0.0316 -0.3222
 2888OCT     C2 5776  23.629   7.191  15.229  0.1045 -0.0039 -0.0594
 2889OCT     C1 5777  12.723  23.715   8.637  0.0642  0.0589 -0.0500
 2889OCT     C2 5778  12.926   0.275   8.345 -0.3317 -0.3127 -0.0373
 2890OCT     C1 5779  16.365   5.077   9.978 -0.1303 -0.3510 -0.1060
 2890OCT     C2 5780  16.123   5.308   9.670  0.0479 -0.1380  0.0185
 2891OCT     C1 5781   2.831   5.868   6.541  0.0762 -0.1860 -0.0942
 2891OCT     C2 5782   2.772   5.456   6.791  0.0418  0.2306  0.2783
 2892OCT     C1 5783  16.689   0.957  10.662 -0.1081 -0.2684 -0.1491
 2892OCT     C2 5784  16.521   0.693  11.027  0.1062 -0.1418  0.2152
 2893OCT     C1 5785  11.429   9.893  17.168 -0.1776 -0.0438 -0.0492
 2893OCT     C2 5786  11.377  10.255  17.483  0.0481  0.1896  0.0496
 2894OCT     C1 5787  16.690   5.833  11.587  0.0604  0.0659  0.1879
 2894OCT     C2 5788  16.729   5.504  11.271  0.0143  0.2974 -0.2971
 2895OCT     C1 5789  13.082   7.507  14.228  0.1771 -0.0575  0.3450
 2895OCT     C2 5790  12.780   7.788  14.049  0.1134  0.0720 -0.3275
 2896OCT     C1 5791  18.816  23.433  15.375  0.1839 -0.4299 -0.1952
 2896OCT     C2 5792  18.623  23.031  15.541 -0.0040 -0.1835 -0.4449
 2897OCT     C1 5793   5.084   1.956   5.236  0.0351  0.1374 -0.2761
 2897OCT     C2 5794   4.629   2.064   5.173 -0.4250 -0.1549  0.2930
 2898OCT     C1 5795   6.566   9.760  18.569  0.2629 -0.1662  0.3116
 2898OCT     C2 5796   6.633   9.791  18.122  0.0676  0.0557 -0.3603
 2899OCT     C1 5797   3.356   4.354  22.472  0.1648  0.1392  0.2665
 2899OCT     C2 5798   3.355   4.783  22.293 -0.0115 -0.1283  0.0403
 2900OCT     C1 5799  16.277   9.880  22.653  0.0028 -0.1780  0.2270
 2900OCT     C2 5800  16.192  10.244  22.900  0.2761 -0.0588  0.4686
 2901OCT     C1 5801   7.865  19.375  19.637 -0.1267  0.0948  0.1171
 2901OCT     C2 5802   7.444  19.267  19.720 -0.2478 -0.0592 -0.3256
 2902OCT     C1 5803  11.479  13.582   8.874  0.1738  0.0650  0.2826
 2902OCT     C2 5804  11.944  13.763   9.045 -0.4552  0.1952  0.1876
 2903OCT     C1 5805   8.523  17.523  16.565 -0.0082 -0.1949 -0.2656
 2903OCT     C2 5806   8.310  17.660  16.950 -0.1313 -0.2861  0.0763
 2904OCT     C1 5807   7.703   9.200  19.537  0.2021  0.2490  0.3707
 2904OCT     C2 5808   7.513   8.914  19.257  0.0778 -0.1625 -0.3004
 2905OCT     C1 5809  16.357   5.999   1.773  0.1292 -0.4538 -0.0141
 2905OCT     C2 5810  16.708   6.276   1.950  0.0396  0.0867  0.3546
 2906OCT     C1 5811   6.917  14.861  14.189  0.0911  0.0781 -0.1126
 2906OCT     C2 5812   6.485  14.926  14.397 -0.1777 -0.4958  0.2493
 2907OCT     C1 5813   4.648  21.967  16.710 -0.2232  0.2810 -0.3965
 2907OCT     C2 5814   5.042  21.670  16.880  0.0757 -0.2527 -0.0857
 2908OCT     C1 5815   1.592   0.332  18.055  0.0449  0.0210  0.1246
 2908OCT     C2 5816   2.017   0.181  17.959 -0.1116 -0.4307  0.0277
 2909OCT     C1 5817  15.943  15.688   1.615  0.3600 -0.3347 -0.0546
 2909OCT     C2 5818  15.762  15.282   1.479  0.2114  0.3858  0.2452
 2910OCT     C1 5819   9.915   2.225  19.642  0.1002 -0.0332 -0.0947
 2910OCT     C2 5820  10.091   1.798  19.744 -0.1486  0.2728  0.0303
 2911OCT     C1 5821  14.439  21.788   8.858  0.5446 -0.2407 -0.1280
 2911OCT     C2 5822  14.687  21.490   9.142  0.0123  0.2583  0.5454
 2912OCT     C1 5823   1.596   6.226   7.317  0.4362  0.2456 -0.3607
 2912OCT     C2 5824   1.330   6.040   7.016 -0.1473 -0.1189  0.3982
 2913OCT     C1 5825   7.607  18.416  15.459 -0.0803  0.0811  0.5241
 2913OCT     C2 5826   7.398  18.508  15.868 -0.0382 -0.1149  0.2004
 2914OCT     C1 5827   0.342  19.287  19.192  0.0256  0.1606 -0.0206
 2914OCT     C2 5828   0.043  19.364  18.840 -0.1375  0.2548  0.0533
 2915OCT     C1 5829  12.462  12.804   2.649  0.1132 -0.4123  0.1282
 2915OCT     C2 5830  12.578  13.213   2.597 -0.1810  0.0743  0.0400
 2916OCT     C1 5831  16.191   4.211   4.800  0.0346  0.3257  0.3727
 2916OCT     C2 5832  16.565   4.262   5.105  0.1506  0.3812  0.1907
 2917OCT     C1 5833  16.356   2.719   6.147 -0.0389 -0.3062 -0.4064
 2917OCT     C2 5834  16.116   3.045   6.371  0.2185  0.0381 -0.1676
 2918OCT     C1 5835  14.712  20.512   5.735 -0.3944  0.0089 -0.0432
 2918OCT     C2 5836  15.117  20.587   5.515 -0.3947 -0.3942  0.0150
 2919OCT     C1 5837  11.575   8.880   2.039 -0.0109  0.1468  0.2852
 2919OCT     C2 5838  11.643   9.108   2.401 -0.0831 -0.1105 -0.3168
 2920OCT     C1 5839  21.643   5.196  23.201  0.1091 -0.1049  0.0085
 2920OCT     C2 5840  21.322   5.493  22.983  0.0765 -0.0256 -0.0395
 2921OCT     C1 5841   5.549   5.763  15.240  0.2833  0.1833  0.0217
 2921OCT     C2 5842   5.892   5.544  15.486 -0.0610 -0.0440 -0.2032
 2922OCT     C1 5843   3.689   8.285   6.370  0.1955 -0.0494 -0.2595
 2922OCT     C2 5844   3.399   8.338   6.019  0.1902  0.1304 -0.1574
 2923OCT     C1 5845   0.069  13.659  16.850  0.1313 -0.1203  0.3097
 2923OCT     C2 5846  23.418  13.398  16.794  0.3184 -0.3869 -0.2571
 2924OCT     C1 5847  22.926  14.525   0.832  0.0853 -0.1444 -0.1086
 2924OCT     C2 5848  22.506  14.347   0.932  0.3464  0.4676  0.1904
 2925OCT     C1 5849  15.763  22.525   6.265 -0.0813  0.2045  0.0667
 2925OCT     C2 5850  15.626  22.243   5.922 -0.1110  0.1801  0.0901
 2926OCT     C1 5851   3.870  16.957  18.702 -0.2709  0.2838  0.2838
 2926OCT     C2 5852   3.435  17.127  18.786 -0.3328 -0.1058 -0.1217
 2927OCT     C1 5853  22.940  15.533   8.186  0.1721 -0.0988  0.0106
 2927OCT     C2 5854  23.168  15.414   8.596  0.1656  0.0705  0.1048
 2928OCT     C1 5855  12.450  14.392   8.794  0.0659 -0.2211  0.0257
 2928OCT     C2 5856  12.699  14.768   8.943  0.1318  0.1312 -0.1546
 2929OCT     C1 5857   1.927  19.963   0.246 -0.0005 -0.3872  0.4253
 2929OCT     C2 5858   1.709  19.514   0.160  0.2251 -0.0410 -0.3475
 2930OCT     C1 5859  18.619  18.552  10.027 -0.0706 -0.0233 -0.3048
 2930OCT     C2 5860  18.735  18.346  10.507 -0.1937 -0.0468 -0.0044
 2931OCT     C1 5861   3.820   4.063  18.748  0.1317  0.4199 -0.1112
 2931OCT     C2 5862   4.023   4.405  18.950 -0.1201 -0.4684 -0.2446
 2932OCT     C1 5863   8.492  18.911   4.457  0.1214 -0.1163  0.1929
 2932OCT     C2 5864   8.109  19.095   4.224 -0.0211  0.0514 -0.3239
 2933OCT     C1 5865   1.957  12.314  15.653 -0.0273  0.0150  0.1079
 2933OCT     C2 5866   2.346  12.058  15.792  0.0970  0.2010 -0.3779
 2934OCT     C1 5867  10.689  15.901   5.335 -0.0006 -0.0714 -0.4034
 2934OCT     C2 5868  10.400  16.242   5.179  0.1993  0.0025  0.0525
 2935OCT     C1 5869   5.254   2.902   5.005  0.0674  0.2337  0.1209
 2935OCT     C2 5870   5.110   3.234   4.673  0.0742 -0.1262  0.0141
 2936OCT     C1 5871  22.867   2.898  14.188  0.0485 -0.0440 -0.0636
 2936OCT     C2 5872  22.495   3.185  14.139 -0.0755  0.1199  0.1406
 2937OCT     C1 5873  23.474   0.678  10.267 -0.2939  0.1940 -0.1616
 2937OCT     C2 5874  23.403   0.986  10.627  0.3183 -0.0052  0.0257
 2938OCT     C1 5875  13.683   2.778   4.004 -0.0899 -0.0977 -0.1164
 2938OCT     C2 5876  13.376   2.843   4.376 -0.0591 -0.2565  0.2206
 2939OCT     C1 5877  17.799   5.024  18.522  0.1436  0.0235 -0.0175
 2939OCT     C2 5878  18.101   5.187  18.811 -0.0784  0.0598 -0.0625
 2940OCT     C1 5879   4.056  15.276  18.696  0.3619  0.0466  0.1473
 2940OCT     C2 5880   4.386  15.309  19.034  0.1126  0.0048  0.3497
 2941OCT     C1 5881   0.629  19.581  17.652  0.0393  0.1009 -0.2307
 2941OCT     C2 5882   0.797  19.959  17.438 -0.0902  0.0105  0.2131
 2942OCT     C1 5883   4.317  18.035   6.095  0.2947 -0.1839  0.1723
 2942OCT     C2 5884   3.829  18.101   6.074 -0.1852  0.2189  0.2146
 2943OCT     C1 5885  14.022  23.239  11.463 -0.3494 -0.2606 -0.1617
 2943OCT     C2 5886  13.738  22.925  11.502 -0.1073 -0.1119 -0.1911
 2944OCT     C1 5887  23.597  11.899   1.481 -0.0797 -0.2690 -0.2770
 2944OCT     C2 5888   0.193  12.153   1.261  0.0486 -0.2668  0.0997
 2945OCT     C1 5889  15.408  16.853  13.842  0.0578  0.3051 -0.0198
 2945OCT     C2 5890  15.264  17.139  14.202  0.1809  0.1534 -0.0224
 2946OCT     C1 5891  18.203  14.295   9.732  0.0769 -0.1498 -0.0556
 2946OCT     C2 5892  18.198  14.688   9.994 -0.0217 -0.1810 -0.3086
 2947OCT     C1 5893   9.417   0.385  17.138  0.0642  0.1200 -0.2312
 2947OCT     C2 5894   9.641   0.831  17.249  0.0065  0.1620 -0.0031
 2948OCT     C1 5895  22.694  11.174  13.337 -0.2415  0.0277  0.3268
 2948OCT     C2 5896  22.804  11.269  13.779 -0.2775 -0.0502 -0.2933
 2949OCT     C1 5897   8.306  20.513   5.726 -0.1369 -0.3965 -0.1651
 2949OCT     C2 5898   8.655  20.148   5.718 -0.3622 -0.0091 -0.0347
 2950OCT     C1 5899  23.171  10.400   4.078 -0.1050 -0.4070 -0.1830
 2950OCT     C2 5900  23.558  10.667   4.021  0.1862  0.0265  0.2101
 2951OCT     C1 5901  13.646  13.646   0.254 -0.1658  0.1827  0.1111
 2951OCT     C2 5902  13.365  13.295   0.393  0.1303 -0.2431  0.1554
 2952OCT     C1 5903  15.721  12.057  12.732 -0.0342 -0.0562 -0.0814
 2952OCT     C2 5904  16.128  12.019  12.603 -0.0311 -0.1946 -0.3115
 2953OCT     C1 5905  11.122   2.991  13.672  0.0334  0.2746 -0.1172
 2953OCT     C2 5906  10.813   2.729  13.899  0.0577  0.0729 -0.1036
 2954OCT     C1 5907   3.343   0.099  20.964 -0.1095 -0.2210 -0.1783
 2954OCT     C2 5908   3.311   0.574  20.897  0.0556 -0.2332 -0.3125
 2955OCT     C1 5909  21.264  11.870  15.114 -0.1980  0.1096  0.2230
 2955OCT     C2 5910  21.018  12.093  14.774  0.2510 -0.0593  0.1032
 2956OCT     C1 5911  18.150   6.257  21.475 -0.0208 -0.0221  0.0035
 2956OCT     C2 5912  17.886   6.611  21.536 -0.0540 -0.1685 -0.3993
 2957OCT     C1 5913  14.174   3.483  10.835  0.3558 -0.1501 -0.0367
 2957OCT     C2 5914  13.884   3.475  10.429  0.0391  0.1887 -0.0356
 2958OCT     C1 5915  20.019  19.488  14.957 -0.0729  0.1586 -0.0135
 2958OCT     C2 5916  20.158  19.868  14.645 -0.2324 -0.1253 -0.1333
 2959OCT     C1 5917   1.319  17.080  10.761 -0.0608  0.1849  0.3220
 2959OCT     C2 5918   1.280  17.549  10.801  0.0462  0.1203 -0.0780
 2960OCT     C1 5919   9.704   8.106   2.750  0.3456  0.0834  0.0242
 2960OCT     C2 5920   9.699   8.359   2.312 -0.0215 -0.2061 -0.2853
 2961OCT     C1 5921  15.357  17.792  19.763 -0.1707 -0.2649  0.1954
 2961OCT     C2 5922  15.070  17.837  20.145  0.1590 -0.2133  0.2736
 2962OCT     C1 5923  22.454  17.178   3.950  0.0388 -0.0131  0.0912
 2962OCT     C2 5924  22.624  16.886   4.293  0.0677 -0.0625 -0.0285
 2963OCT     C1 5925  20.411  22.169   0.511 -0.0223  0.1887 -0.2245
 2963OCT     C2 5926  19.945  21.997   0.539 -0.1786 -0.0391 -0.3149
 2964OCT     C1 5927  13.059  18.612   9.749 -0.3279  0.0581 -0.2074
 2964OCT     C2 5928  13.332  18.633  10.133  0.2983  0.4332 -0.0888
 2965OCT     C1 5929   6.090  21.161  22.863  0.1410 -0.1766 -0.0927
 2965OCT     C2 5930   5.979  21.394  22.382  0.3027 -0.3845  0.1274
 2966OCT     C1 5931  11.718  18.530  13.942 -0.0234 -0.1363  0.5204
 2966OCT     C2 5932  11.615  18.932  14.186  0.3608  0.2949 -0.3141
 2967OCT     C1 5933  15.736   2.310   4.500 -0.0419  0.2910  0.0089
 2967OCT     C2 5934  16.190   2.386   4.569 -0.0413 -0.3164 -0.0012
 2968OCT     C1 5935  10.011   4.120   1.943  0.3533 -0.6156  0.0736
 2968OCT     C2 5936  10.477   3.988   1.910 -0.0985 -0.2914 -0.0843
 2969OCT     C1 5937  22.429  10.434  15.431  0.2009 -0.0839 -0.2984
 2969OCT     C2 5938  22.666  10.052  15.541 -0.0601 -0.0781 -0.0345
 2970OCT     C1 5939   0.939  15.092   8.790 -0.4576  0.1604  0.2181
 2970OCT     C2 5940   1.094  14.985   8.352 -0.3836 -0.0522 -0.4900
 2971OCT     C1 5941   5.453   4.285  18.656  0.1358 -0.0662 -0.1151
 2971OCT     C2 5942   5.009   4.516  18.538  0.1364  0.1875 -0.2894
 2972OCT     C1 5943  13.544  21.346  13.645  0.3120 -0.2738  0.0108
 2972OCT     C2 5944  13.570  21.195  14.064  0.0452 -0.0609 -0.3980
 2973OCT     C1 5945  17.384   5.084  14.682  0.2066 -0.0972 -0.0110
 2973OCT     C2 5946  17.576   5.482  14.792 -0.2896  0.0813  0.6574
 2974OCT     C1 5947  21.207  13.716   1.019  0.0783  0.2691  0.6466
 2974OCT     C2 5948  20.938  13.777   1.395 -0.0818 -0.1551 -0.1259
 2975OCT     C1 5949  11.850  15.850   2.051 -0.3206  0.1082 -0.2925
 2975OCT     C2 5950  11.914  16.144   1.705  0.2837 -0.0259  0.0462
 2976OCT     C1 5951  20.156  14.693   9.115  0.0119 -0.0905  0.1569
 2976OCT     C2 5952  20.420  14.681   9.473 -0.2612  0.0430 -0.0441
 2977OCT     C1 5953   4.573   5.184   6.575 -0.0147  0.1744  0.0017
 2977OCT     C2 5954   4.361   5.299   6.143 -0.0405 -0.1203  0.1079
 2978OCT     C1 5955   7.756   4.570  11.526  0.1959 -0.0783  0.0743
 2978OCT     C2 5956   7.679   4.961  11.268  0.1807 -0.0463  0.0030
 2979OCT     C1 5957  11.385   6.897  15.269 -0.0116  0.2346 -0.2839
 2979OCT     C2 5958  11.043   6.707  14.960 -0.1860 -0.1489  0.3255
 2980OCT     C1 5959   8.211  15.538  22.068  0.2137  0.0885 -0.2467
 2980OCT     C2 5960   8.059  15.634  22.522  0.0551  0.1001 -0.3897
 2981OCT     C1 5961   0.107  11.786   1.899 -0.0007 -0.1050 -0.1806
 2981OCT     C2 5962  23.472  11.545   1.988 -0.3031 -0.2236  0.4161
 2982OCT     C1 5963  11.737   0.993   7.631  0.1663  0.1807 -0.0101
 2982OCT     C2 5964  11.731   0.693   7.990 -0.0121 -0.1073  0.2132
 2983OCT     C1 5965  21.285   3.854  17.558  0.1141 -0.2841 -0.1484
 2983OCT     C2 5966  21.313   3.615  17.178  0.1522  0.0047 -0.0166
 2984OCT     C1 5967  16.292  11.108   3.073  0.1203 -0.3813 -0.1467
 2984OCT     C2 5968  16.399  11.443   2.720  0.0059  0.1385  0.1502
 2985OCT     C1 5969  18.194   2.814   3.947  0.3026 -0.1222  0.3038
 2985OCT     C2 5970  18.130   2.872   4.358 -0.0403  0.2602 -0.0437
 2986OCT     C1 5971   5.414  20.818  22.932  0.1460  0.1992 -0.0159
 2986OCT     C2 5972   5.088  20.714  22.539 -0.2655 -0.0842 -0.2746
 2987OCT     C1 5973  12.129  22.096  10.314  0.1197 -0.2296 -0.2869
 2987OCT     C2 5974  12.343  21.663  10.196  0.1446  0.3888  0.0682
 2988OCT     C1 5975  23.119   2.679  23.398 -0.0324  0.1170  0.1297
 2988OCT     C2 5976  23.110   2.443  22.917 -0.1681 -0.1934 -0.5527
 2989OCT     C1 5977  19.422   5.490  18.441 -0.5150  0.1922  0.2852
 2989OCT     C2 5978  19.032   5.564  18.251  0.6270  0.0268  0.2427
 2990OCT     C1 5979   9.933  13.476   2.212 -0.0386  0.0928  0.0454
 2990OCT     C2 5980   9.752  13.821   1.924  0.0987  0.2130 -0.2765
 2991OCT     C1 5981   3.983   3.896  12.360 -0.0829 -0.2217 -0.3375
 2991OCT     C2 5982   4.196   3.485  12.296  0.0519 -0.1527  0.1499
 2992OCT     C1 5983   4.228  15.827  18.563  0.3726 -0.1630  0.0667
 2992OCT     C2 5984   4.624  15.708  18.736  0.0431 -0.2102 -0.2035
 2993OCT     C1 5985  15.798  18.224   8.407 -0.2495  0.0170  0.1830
 2993OCT     C2 5986  15.941  17.802   8.574  0.1386 -0.3843  0.3483
 2994OCT     C1 5987   2.694  16.464   7.954  0.0431 -0.3467  0.3220
 2994OCT     C2 5988   3.048  16.743   8.042 -0.2790 -0.0112 -0.0964
 2995OCT     C1 5989   3.164  19.511  22.297 -0.2075 -0.1172 -0.0993
 2995OCT     C2 5990   3.128  19.997  22.255  0.3150 -0.2680  0.0493
 2996OCT     C1 5991   2.653  19.489  13.970 -0.0946 -0.6293  0.0757
 2996OCT     C2 5992   2.909  19.112  13.833 -0.1602  0.0700 -0.1764
 2997OCT     C1 5993   7.696  10.924  13.553 -0.5735 -0.0115  0.2810
 2997OCT     C2 5994   7.280  10.695  13.604 -0.2227 -0.0265 -0.3770
 2998OCT     C1 5995   2.533   4.825  15.806  0.3042 -0.0719 -0.0767
 2998OCT     C2 5996   2.215   4.813  16.121 -0.0612 -0.0787 -0.0862
 2999OCT     C1 5997   0.681  23.226  10.140 -0.0705 -0.1428  0.1211
 2999OCT     C2 5998   0.803  23.206  10.566 -0.0788 -0.4262  0.0601
 3000OCT     C1 5999   9.303  10.862   6.889  0.3296  0.0600 -0.0139
 3000OCT     C2 6000   9.149  10.477   6.726 -0.1677 -0.0081 -0.0856
 3001OCT     C1 6001  23.646   7.090  11.498 -0.1613 -0.1093 -0.3004
 3001OCT     C2 6002  23.363   6.854  11.202 -0.3831  0.0750  0.1500
 3002OCT     C1 6003  13.375   7.000  19.064  0.0174 -0.0643 -0.1501
 3002OCT     C2 6004  13.013   7.099  19.284  0.0799 -0.0996 -0.0211
 3003OCT     C1 6005   3.678   9.254  21.868  0.2278 -0.3201 -0.1036
 3003OCT     C2 6006   3.473   9.554  22.174 -0.1530 -0.1970 -0.0057
 3004OCT     C1 6007   0.729   0.023  20.151  0.1207 -0.0938  0.0260
 3004OCT     C2 6008   1.050  23.485  20.376  0.0880 -0.2290  0.2706
 3005OCT     C1 6009   9.429  11.199   2.485 -0.2560 -0.3322 -0.3906
 3005OCT     C2 6010   9.867  11.348   2.420  0.1161  0.0759  0.0100
 3006OCT     C1 6011  10.618  18.389   0.487 -0.5675 -0.1161  0.0227
 3006OCT     C2 6012  10.953  18.542   0.190 -0.0022  0.1251  0.1687
 3007OCT     C1 6013  20.090  23.359  18.886 -0.2349 -0.0082 -0.3274
 3007OCT     C2 6014  19.751  23.093  19.155 -0.3849  0.0074 -0.0470
 3008OCT     C1 6015   7.016   6.753  17.220 -0.0311  0.1244 -0.0061
 3008OCT     C2 6016   7.068   6.264  17.245  0.3228  0.0329 -0.0250
 3009OCT     C1 6017  16.075  21.705   8.595  0.2369  0.0100  0.1417
 3009OCT     C2 6018  15.890  21.630   8.954 -0.3044 -0.1837 -0.1898
 3010OCT     C1 6019  18.230  23.383  12.219 -0.0098 -0.1168  0.1754
 3010OCT     C2 6020  18.382   0.058  12.522 -0.0177  0.0566 -0.1069
 3011OCT     C1 6021  21.790  21.719  20.100  0.0332  0.3540  0.1313
 3011OCT     C2 6022  21.642  22.172  20.227  0.1074  0.2201 -0.3276
 3012OCT     C1 6023  13.409   7.387  21.939  0.0365  0.1096  0.2649
 3012OCT     C2 6024  13.812   7.514  21.770  0.3454  0.1701 -0.0070
 3013OCT     C1 6025   8.837  21.186  16.878 -0.1571 -0.1149 -0.0118
 3013OCT     C2 6026   9.212  21.280  17.132  0.0266  0.2525  0.0472
 3014OCT     C1 6027   0.396   5.115  11.698 -0.0591 -0.2845 -0.0644
 3014OCT     C2 6028   0.378   5.480  11.975  0.2726 -0.5804  0.3180
 3015OCT     C1 6029   1.059  20.095   6.194  0.0260 -0.0859 -0.2979
 3015OCT     C2 6030   0.769  20.469   6.162 -0.1153  0.1874  0.1039
 3016OCT     C1 6031  15.035  12.023   7.594  0.0751  0.0123 -0.0027
 3016OCT     C2 6032  14.826  11.745   7.297 -0.1397  0.0157 -0.1658
 3017OCT     C1 6033  17.424  13.307  10.070 -0.2252 -0.0463 -0.2913
 3017OCT     C2 6034  17.862  13.241  10.306 -0.3430 -0.4406  0.4741
 3018OCT     C1 6035   5.800   2.172  22.751 -0.0289 -0.0627 -0.1678
 3018OCT     C2 6036   6.182   2.392  22.674  0.2010  0.0016  0.0803
 3019OCT     C1 6037   1.767   6.192   1.518  0.0512  0.4938  0.1216
 3019OCT     C2 6038   1.572   6.275   1.099 -0.1912 -0.0926 -0.0107
 3020OCT     C1 6039   3.522  16.504   9.075 -0.2783  0.0198 -0.0773
 3020OCT     C2 6040   3.563  16.216   8.654  0.2677 -0.2048  0.2632
 3021OCT     C1 6041   3.331   0.615   2.006  0.1175 -0.0801 -0.1224
 3021OCT     C2 6042   3.506   0.907   1.600 -0.4055  0.2431  0.2523
 3022OCT     C1 6043  16.898  15.967  18.997  0.2099 -0.0098 -0.0033
 3022OCT     C2 6044  16.696  15.646  19.270  0.3498  0.0007 -0.3909
 3023OCT     C1 6045  22.590  14.355  18.754  0.3986 -0.2715 -0.1501
 3023OCT     C2 6046  22.981  14.417  19.055 -0.3765  0.0617  0.4553
 3024OCT     C1 6047  20.138  10.466  23.624 -0.1578  0.2565 -0.1230
 3024OCT     C2 6048  20.179  10.248   0.289 -0.0886  0.3784  0.0483
 3025OCT     C1 6049  21.882   9.895   8.665 -0.0207  0.1913  0.1921
 3025OCT     C2 6050  21.465   9.624   8.650 -0.0897  0.1958 -0.1610
 3026OCT     C1 6051   0.749   4.353   7.587  0.0960 -0.1501 -0.0675
 3026OCT     C2 6052   0.889   3.908   7.710  0.0555  0.0132 -0.2717
 3027OCT     C1 6053  18.778  22.229  23.044  0.1469  0.0441 -0.1594
 3027OCT     C2 6054  19.039  22.421  22.719 -0.2608  0.0203  0.0874
 3028OCT     C1 6055  21.725  17.063  21.198  0.2493  0.5884 -0.3490
 3028OCT     C2 6056  21.490  16.854  20.842 -0.2927  0.1370 -0.1703
 3029OCT     C1 6057  12.888   1.641  18.712  0.2024 -0.0465 -0.0381
 3029OCT     C2 6058  13.140   1.857  18.341 -0.5054  0.1690  0.2147
 3030OCT     C1 6059   8.769  10.611   5.239 -0.1070 -0.4833  0.0707
 3030OCT     C2 6060   8.662  11.047   5.355 -0.1129  0.2463 -0.0933
 3031OCT     C1 6061   0.929  16.420  14.607  0.1048 -0.1663 -0.0818
 3031OCT     C2 6062   0.801  16.787  14.793 -0.3519 -0.2591 -0.0379
 3032OCT     C1 6063  16.734  17.811  23.239  0.1951 -0.1524 -0.1461
 3032OCT     C2 6064  16.525  17.831  23.704 -0.2393  0.3755 -0.0723
 3033OCT     C1 6065  21.970  21.865  15.244  0.0423  0.0622 -0.0171
 3033OCT     C2 6066  22.129  22.112  15.573 -0.2405 -0.0118 -0.1201
 3034OCT     C1 6067   7.188   1.262   6.161 -0.2422  0.1374 -0.1067
 3034OCT     C2 6068   6.804   1.251   5.911  0.0396  0.0285 -0.0974
 3035OCT     C1 6069   9.525   7.141  15.578  0.3809 -0.0475 -0.2123
 3035OCT     C2 6070   9.400   7.348  15.208 -0.0665  0.0476  0.3191
 3036OCT     C1 6071   8.285  10.284  10.450  0.2268 -0.0844  0.1830
 3036OCT     C2 6072   8.444  10.646  10.218 -0.1605 -0.1602 -0.2704
 3037OCT     C1 6073   4.758   3.966  11.272  0.1185 -0.2510 -0.1742
 3037OCT     C2 6074   4.386   3.742  11.006  0.4106 -0.1640 -0.0514
 3038OCT     C1 6075   0.591  21.396   2.820 -0.3838  0.1862 -0.1830
 3038OCT     C2 6076   0.341  21.528   2.421 -0.5810  0.4605  0.0692
 3039OCT     C1 6077   5.776  18.005  21.112 -0.1910 -0.1755 -0.0408
 3039OCT     C2 6078   5.838  18.048  21.623 -0.2458 -0.0083  0.0026
 3040OCT     C1 6079  11.471  15.457  10.120  0.1648 -0.1368 -0.2368
 3040OCT     C2 6080  11.190  15.212   9.823  0.0335 -0.0240  0.0969
 3041OCT     C1 6081  11.764  21.357  11.273 -0.3830  0.1496 -0.2698
 3041OCT     C2 6082  11.457  21.310  11.646  0.3374 -0.0358 -0.2930
 3042OCT     C1 6083  17.598  22.316  22.712  0.1223 -0.1205  0.0058
 3042OCT     C2 6084  17.783  22.684  22.830 -0.0754 -0.3698 -0.0430
 3043OCT     C1 6085  16.885  10.359  14.659  0.0401  0.2461  0.3364
 3043OCT     C2 6086  16.642  10.043  14.923  0.2623 -0.0996  0.2223
 3044OCT     C1 6087   8.209  22.356   0.820  0.3552  0.1307  0.4213
 3044OCT     C2 6088   8.569  22.604   0.926 -0.1605 -0.0035  0.4845
 3045OCT     C1 6089   5.311   9.877  15.309  0.1141  0.0837  0.0563
 3045OCT     C2 6090   5.654   9.743  14.979  0.1844  0.2580  0.1318
 3046OCT     C1 6091  13.476   4.618  19.636  0.4388 -0.2597  0.0666
 3046OCT     C2 6092  13.663   4.988  19.400  0.1069 -0.1585  0.0610
 3047OCT     C1 6093  15.730  21.500  21.462 -0.1594 -0.2822 -0.2171
 3047OCT     C2 6094  15.686  21.545  20.997 -0.3736  0.0761 -0.3122
 3048OCT     C1 6095  23.658  18.863   2.659 -0.1393 -0.1945  0.0005
 3048OCT     C2 6096  23.673  19.195   2.299  0.0642 -0.5733 -0.3456
 3049OCT     C1 6097  22.087  17.737   3.381  0.1507 -0.1041  0.0139
 3049OCT     C2 6098  22.497  17.771   3.211 -0.1384 -0.1498 -0.5075
 3050OCT     C1 6099  20.927   8.953  15.757 -0.0054  0.0915 -0.1374
 3050OCT     C2 6100  20.962   8.581  15.458  0.0660  0.1415 -0.0380
 3051OCT     C1 6101   8.766  18.817  14.337 -0.2397 -0.1533 -0.1433
 3051OCT     C2 6102   9.093  19.073  14.447 -0.4110  0.2090 -0.0814
 3052OCT     C1 6103  11.828  11.220  17.907  0.0367  0.0291 -0.3692
 3052OCT     C2 6104  11.649  10.971  18.241 -0.1558  0.1179  0.0219
 3053OCT     C1 6105  14.573  18.473  21.238  0.2126  0.2345  0.2272
 3053OCT     C2 6106  14.614  18.088  21.025  0.2216 -0.2781 -0.3087
 3054OCT     C1 6107  11.715  19.306  15.138  0.1814 -0.2547 -0.2366
 3054OCT     C2 6108  12.090  19.079  15.205 -0.2026  0.2699  0.0514
 3055OCT     C1 6109  14.303   8.243  21.446 -0.0942  0.1891  0.1135
 3055OCT     C2 6110  14.662   8.107  21.613 -0.0332 -0.0300  0.0876
 3056OCT     C1 6111   1.805  17.706  10.206  0.2734 -0.2022  0.1696
 3056OCT     C2 6112   1.530  17.789   9.848  0.1835  0.0990 -0.1344
 3057OCT     C1 6113   0.936  20.436   7.796  0.0664  0.1059 -0.0152
 3057OCT     C2 6114   0.551  20.279   7.537 -0.2298 -0.3103  0.4211
 3058OCT     C1 6115  20.703  12.219  21.994 -0.0989  0.2695  0.0326
 3058OCT     C2 6116  21.176  12.152  21.964 -0.2813  0.0034  0.0346
 3059OCT     C1 6117  12.063  13.347  18.195  0.1962 -0.4836 -0.2370
 3059OCT     C2 6118  12.201  13.192  18.647  0.1919 -0.0028 -0.2338
 3060OCT     C1 6119  17.135  22.784   7.452 -0.0348 -0.0660 -0.2897
 3060OCT     C2 6120  17.017  23.142   7.797  0.0906 -0.0683 -0.0307
 3061OCT     C1 6121   7.103  15.804  15.837  0.1963 -0.0174  0.0652
 3061OCT     C2 6122   7.332  16.242  15.827  0.3130 -0.0571 -0.1917
 3062OCT     C1 6123   3.308   3.483  22.583 -0.0123  0.5292  0.1523
 3062OCT     C2 6124   3.699   3.622  22.382  0.0894  0.0217  0.0011
 3063OCT     C1 6125   7.620  11.040  23.469 -0.0960  0.0425 -0.1535
 3063OCT     C2 6126   7.421  11.470  23.348 -0.2218  0.2481 -0.3166
 3064OCT     C1 6127  21.113  10.977   2.746  0.1721  0.1157  0.1899
 3064OCT     C2 6128  20.771  10.757   3.055 -0.0381  0.1389  0.1325
 3065OCT     C1 6129   1.492  12.543   5.886 -0.1688 -0.0930  0.0924
 3065OCT     C2 6130   1.739  12.767   5.492  0.3428  0.0007 -0.4345
 3066OCT     C1 6131   0.966   6.868  10.288 -0.0934  0.0388  0.1056
 3066OCT     C2 6132   0.961   6.826  10.775 -0.0015 -0.2796  0.0308
 3067OCT     C1 6133  13.792  23.020  18.622 -0.0662 -0.0488 -0.0714
 3067OCT     C2 6134  13.657  23.455  18.374 -0.1194  0.2120  0.0045
 3068OCT     C1 6135   3.546   0.091   2.012  0.2238  0.1530 -0.3987
 3068OCT     C2 6136   3.257  23.469   1.994  0.0627 -0.1144 -0.0359
 3069OCT     C1 6137  12.011   4.256  17.527 -0.1313 -0.5153  0.0119
 3069OCT     C2 6138  12.326   4.011  17.806  0.3300 -0.5693  0.2696
 3070OCT     C1 6139  19.782   5.229   0.246  0.0073  0.0724  0.2345
 3070OCT     C2 6140  19.523   4.855   0.401 -0.1908 -0.0141 -0.2145
 3071OCT     C1 6141   2.421   0.323  15.496  0.4933 -0.5102  0.0196
 3071OCT     C2 6142   2.164  23.647  15.641  0.0607  0.3299 -0.1597
 3072OCT     C1 6143  16.962  13.305   9.380 -0.0101 -0.0880 -0.1978
 3072OCT     C2 6144  16.989  13.600   9.120  0.1276 -0.1334 -0.1835
 3073OCT     C1 6145  21.919  16.639  18.146 -0.1690 -0.3253 -0.0336
 3073OCT     C2 6146  22.236  17.019  18.261  0.0429  0.0377  0.0849
 3074OCT     C1 6147  19.760   3.459   3.091  0.1874  0.0907 -0.1906
 3074OCT     C2 6148  19.787   3.570   3.556 -0.1507  0.0089 -0.3919
 3075OCT     C1 6149   4.027  17.233   4.973 -0.0584  0.3221 -0.1787
 3075OCT     C2 6150   4.535  17.166   4.926  0.2132  0.1385  0.4739
 3076OCT     C1 6151   6.835  14.978  15.421 -0.3245 -0.0903 -0.1376
 3076OCT     C2 6152   7.018  15.354  15.619 -0.2950 -0.0111 -0.4606
 3077OCT     C1 6153   9.808  19.070   3.439 -0.0982 -0.2184 -0.5421
 3077OCT     C2 6154  10.027  19.406   3.229 -0.1967 -0.3807  0.2472
 3078OCT     C1 6155  23.627   2.532  17.261 -0.0316 -0.1957  0.1376
 3078OCT     C2 6156   0.103   2.363  16.910  0.0649 -0.2415  0.0663
 3079OCT     C1 6157   2.276   5.937  16.872 -0.0751  0.3492 -0.1037
 3079OCT     C2 6158   2.525   6.325  16.902 -0.0638  0.1295 -0.3731
 3080OCT     C1 6159  21.176   6.841   2.565 -0.3379  0.0140 -0.2918
 3080OCT     C2 6160  20.799   6.628   2.391 -0.1137  0.1754  0.0392
 3081OCT     C1 6161   6.107  20.158  13.486  0.1368  0.4782 -0.0624
 3081OCT     C2 6162   6.063  20.398  13.079 -0.0024 -0.0020  0.1787
 3082OCT     C1 6163   0.808   7.882  19.936  0.3471 -0.0468 -0.0759
 3082OCT     C2 6164   0.804   8.199  19.588 -0.0177  0.0809  0.3032
 3083OCT     C1 6165   1.563   3.232  12.399  0.3858  0.0937 -0.0981
 3083OCT     C2 6166   1.920   3.569  12.305  0.2162 -0.1654 -0.0416
 3084OCT     C1 6167  10.898   9.486   0.502 -0.0125  0.0946  0.0269
 3084OCT     C2 6168  10.926   9.377   0.031 -0.0683 -0.1478 -0.0711
 3085OCT     C1 6169   1.081  11.638  20.144 -0.1898 -0.1165 -0.2331
 3085OCT     C2 6170   1.186  11.845  20.569 -0.0964 -0.2082  0.0837
 3086OCT     C1 6171  20.063  15.942  15.636  0.4076 -0.0475  0.2227
 3086OCT     C2 6172  20.039  15.983  16.126  0.2675  0.1689 -0.4179
 3087OCT     C1 6173   1.073  14.464  18.547  0.2882  0.0446  0.0245
 3087OCT     C2 6174   0.689  14.722  18.495  0.2339  0.0231 -0.1338
 3088OCT     C1 6175  17.351  11.511   0.264  0.2853 -0.0519  0.1287
 3088OCT     C2 6176  17.570  11.494   0.625  0.2898 -0.0178  0.3892
 3089OCT     C1 6177  13.302  13.835   4.192  0.4464 -0.3692 -0.2348
 3089OCT     C2 6178  13.315  13.811   3.722 -0.1951  0.0179  0.2806
 3090OCT     C1 6179  15.165   0.695  17.576  0.1251  0.1799 -0.0165
 3090OCT     C2 6180  14.978   0.598  17.155  0.3369  0.4880  0.1190
 3091OCT     C1 6181  22.649  21.997  22.351  0.2047  0.2183  0.1609
 3091OCT     C2 6182  22.907  21.780  22.040  0.1609  0.0248 -0.1943
 3092OCT     C1 6183  11.483   0.503   8.872  0.1329 -0.0304  0.0101
 3092OCT     C2 6184  11.023   0.576   9.049  0.2147  0.3346 -0.1612
 3093OCT     C1 6185  19.468  20.067   4.384  0.0315  0.0688 -0.1496
 3093OCT     C2 6186  19.702  20.287   4.097 -0.1098  0.0206 -0.1070
 3094OCT     C1 6187  19.596  22.846  10.322 -0.2207 -0.0329  0.0472
 3094OCT     C2 6188  19.676  23.242  10.565 -0.2514  0.1452 -0.1505
 3095OCT     C1 6189   7.665  12.516   1.436  0.0866 -0.0626  0.1187
 3095OCT     C2 6190   7.514  12.277   1.791  0.0001 -0.0566  0.0077
 3096OCT     C1 6191   7.781  19.858  22.473 -0.3748  0.0174 -0.0981
 3096OCT     C2 6192   7.933  19.597  22.826  0.2940 -0.1104  0.2308
 3097OCT     C1 6193   9.678   7.622  17.114  0.2884 -0.2738 -0.2188
 3097OCT     C2 6194  10.063   7.352  17.008 -0.3088 -0.0938 -0.1441
 3098OCT     C1 6195  14.847   7.940  19.997 -0.3559  0.0560  0.2586
 3098OCT     C2 6196  14.946   7.690  19.602 -0.0318  0.3384  0.1307
 3099OCT     C1 6197  22.748  14.695   1.235 -0.0690 -0.3765  0.0449
 3099OCT     C2 6198  22.332  14.891   1.266 -0.2030 -0.1854  0.1846
 3100OCT     C1 6199   9.473  14.949   9.240  0.0543  0.2749 -0.0341
 3100OCT     C2 6200   9.408  14.534   9.471 -0.0423  0.3751  0.0940
 3101OCT     C1 6201  15.394  10.914   6.010  0.1866 -0.1273  0.1299
 3101OCT     C2 6202  15.524  11.374   6.069  0.2837  0.2104 -0.3039
 3102OCT     C1 6203   7.874  13.897   4.851 -0.1901  0.0344  0.1803
 3102OCT     C2 6204   7.653  13.581   5.127 -0.3147  0.5429 -0.0748
 3103OCT     C1 6205  22.459  11.264   9.963 -0.0511  0.2300  0.0913
 3103OCT     C2 6206  22.752  11.343   9.614 -0.1392 -0.0680 -0.0116
 3104OCT     C1 6207   6.113   6.187  19.190  0.4844  0.2255 -0.2351
 3104OCT     C2 6208   6.011   6.464  19.551  0.4067  0.0581 -0.1271
 3105OCT     C1 6209  17.594   8.755  15.095  0.0792 -0.5304  0.4025
 3105OCT     C2 6210  17.762   8.388  15.023 -0.0777  0.1233  0.0816
 3106OCT     C1 6211  23.541  12.261  20.427  0.1390  0.3551 -0.0819
 3106OCT     C2 6212  23.500  12.522  20.796  0.1584 -0.1147 -0.5374
 3107OCT     C1 6213  19.236  12.764  10.419 -0.2069 -0.2723 -0.4107
 3107OCT     C2 6214  19.408  12.667  10.858 -0.2826  0.4302  0.3320
 3108OCT     C1 6215   2.133   3.603  15.748 -0.2067 -0.3197  0.2004
 3108OCT     C2 6216   2.295   3.264  16.018  0.2444 -0.1677  0.0031
 3109OCT     C1 6217   8.707   2.269   9.766 -0.4424 -0.1066 -0.1884
 3109OCT     C2 6218   8.598   2.594   9.477  0.1504 -0.0407  0.1404
 3110OCT     C1 6219   3.826  22.308   7.407 -0.0015 -0.2536 -0.0286
 3110OCT     C2 6220   3.918  22.792   7.500 -0.0558 -0.0570 -0.0220
 3111OCT     C1 6221  11.267  20.153   2.274  0.3491  0.1053 -0.1347
 3111OCT     C2 6222  10.860  20.178   2.083  0.1710 -0.1115 -0.1440
 3112OCT     C1 6223  17.346   9.245   8.135  0.0168 -0.2177 -0.1254
 3112OCT     C2 6224  17.559   8.999   7.774 -0.0666  0.0878  0.0956
 3113OCT     C1 6225  22.057  22.969   6.432  0.0716 -0.0752  0.1554
 3113OCT     C2 6226  22.191  23.087   6.017 -0.0738  0.0314 -0.1407
 3114OCT     C1 6227  13.442  15.840  10.127 -0.1853 -0.3196  0.0385
 3114OCT     C2 6228  13.724  15.470  10.188 -0.3661 -0.1291  0.1048
 3115OCT     C1 6229   7.183   8.543  19.137  0.0081 -0.2125  0.1974
 3115OCT     C2 6230   6.892   8.928  19.175 -0.2138  0.1598 -0.0024
 3116OCT     C1 6231   4.759  11.761  22.146 -0.0224 -0.1227 -0.1163
 3116OCT     C2 6232   4.966  12.149  22.347 -0.1048 -0.1080 -0.2736
 3117OCT     C1 6233  10.593  11.459  10.791 -0.2172 -0.1744  0.1534
 3117OCT     C2 6234  10.841  11.142  10.515 -0.2089 -0.1467 -0.0984
 3118OCT     C1 6235   9.765  23.310  16.165  0.3624 -0.1977 -0.1733
 3118OCT     C2 6236   9.512  22.918  16.137  0.1584  0.0478  0.1100
 3119OCT     C1 6237  15.573  17.175   4.704 -0.0161 -0.0208  0.2222
 3119OCT     C2 6238  15.292  17.591   4.840 -0.3439  0.1042 -0.0085
 3120OCT     C1 6239  18.628  18.114  17.764  0.0068 -0.2627  0.1183
 3120OCT     C2 6240  19.015  18.002  18.071  0.2154 -0.2420 -0.1606
 3121OCT     C1 6241  13.858  22.608  13.127  0.1878 -0.2622  0.4819
 3121OCT     C2 6242  13.586  22.690  12.765  0.0338  0.1094  0.3555
 3122OCT     C1 6243  10.942  11.042   0.493 -0.0911  0.2864  0.3292
 3122OCT     C2 6244  11.028  10.570   0.499  0.2809 -0.4012 -0.0419
 3123OCT     C1 6245   2.691   1.527  12.042 -0.4191  0.2796 -0.0094
 3123OCT     C2 6246   2.328   1.368  12.303 -0.4125 -0.4918  0.0738
 3124OCT     C1 6247  17.644  10.992  23.271  0.0854  0.1537 -0.2244
 3124OCT     C2 6248  17.503  11.405  23.499  0.3736  0.1913 -0.0062
 3125OCT     C1 6249  14.318  13.615   4.754  0.1373  0.1062 -0.0690
 3125OCT     C2 6250  14.403  13.139   4.946  0.0591  0.1020  0.0321
 3126OCT     C1 6251  16.412   2.277   7.777 -0.0179  0.0271  0.0099
 3126OCT     C2 6252  16.832   2.146   7.977 -0.4733 -0.2510  0.0723
 3127OCT     C1 6253  17.518  11.465   3.373 -0.0809 -0.2846 -0.1872
 3127OCT     C2 6254  17.243  11.625   3.011 -0.0637 -0.0098  0.1640
 3128OCT     C1 6255  14.316  17.842  11.900 -0.0611 -0.0288 -0.1640
 3128OCT     C2 6256  14.526  18.059  12.248 -0.1219 -0.0304 -0.2595
 3129OCT     C1 6257  18.515   3.923   4.544 -0.2042 -0.2307  0.2882
 3129OCT     C2 6258  18.588   3.469   4.532 -0.2086 -0.0384 -0.6583
 3130OCT     C1 6259  17.662  20.833  14.821  0.1584  0.0739 -0.0415
 3130OCT     C2 6260  17.235  20.656  14.901  0.2976  0.1240  0.3819
 3131OCT     C1 6261   8.657  16.536  13.303 -0.0364 -0.1100  0.0654
 3131OCT     C2 6262   8.729  16.898  13.639  0.4859  0.1533 -0.0724
 3132OCT     C1 6263  14.125  13.972  11.009 -0.0686 -0.0733 -0.0014
 3132OCT     C2 6264  14.487  14.190  11.140  0.1010 -0.2230 -0.2105
 3133OCT     C1 6265   3.241  12.085  21.752  0.0352 -0.3952  0.0019
 3133OCT     C2 6266   3.515  11.819  21.538  0.0720 -0.0181  0.3048
 3134OCT     C1 6267   8.567  11.840   5.092  0.1759  0.3521 -0.1162
 3134OCT     C2 6268   8.838  12.193   4.905  0.1038  0.0656  0.0120
 3135OCT     C1 6269   6.762  14.500   9.807  0.0811 -0.1571 -0.0409
 3135OCT     C2 6270   6.366  14.183   9.768 -0.1201  0.1661 -0.1631
 3136OCT     C1 6271   0.010   0.274  17.031  0.0698 -0.1237  0.5366
 3136OCT     C2 6272   0.011  23.564  16.819  0.1171 -0.1711 -0.4905
 3137OCT     C1 6273  21.529  18.466   6.610  0.0487 -0.0422  0.2461
 3137OCT     C2 6274  21.163  18.714   6.476 -0.2228  0.0870 -0.0746
 3138OCT     C1 6275   1.101  21.450  13.036  0.1516 -0.0583  0.1398
 3138OCT     C2 6276   0.909  21.450  12.609  0.1081 -0.2233 -0.0076
 3139OCT     C1 6277  13.407  17.176   4.268  0.1109 -0.0382 -0.1734
 3139OCT     C2 6278  12.969  17.064   4.421  0.3301 -0.4487 -0.1478
 3140OCT     C1 6279   5.397  18.393  15.916  0.3385  0.1378  0.2844
 3140OCT     C2 6280   5.428  18.850  16.011 -0.1514 -0.1062  0.0869
 3141OCT     C1 6281  13.740   1.619  20.382 -0.1904 -0.0988  0.0210
 3141OCT     C2 6282  13.738   1.322  20.009 -0.2286  0.2848  0.2186
 3142OCT     C1 6283  15.117  17.190   1.618  0.4580  0.1642 -0.1588
 3142OCT     C2 6284  15.095  17.614   1.563  0.1926  0.0500 -0.0724
 3143OCT     C1 6285  20.375  20.083   3.829 -0.2103  0.0552  0.0164
 3143OCT     C2 6286  20.789  19.997   4.071  0.4442 -0.2756  0.0725
 3144OCT     C1 6287   2.796  18.893  17.475  0.3059 -0.0618 -0.0276
 3144OCT     C2 6288   3.065  19.292  17.557  0.1484  0.3205 -0.1772
 3145OCT     C1 6289   8.645   3.033  15.458  0.0530 -0.2954  0.3961
 3145OCT     C2 6290   8.146   2.984  15.481 -0.0868 -0.0950  0.1181
 3146OCT     C1 6291   0.629  12.627  14.499 -0.5084 -0.0460  0.2407
 3146OCT     C2 6292   1.135  12.535  14.404 -0.1272  0.0546 -0.3071
 3147OCT     C1 6293   7.010   0.600  12.112  0.0870 -0.1891 -0.0215
 3147OCT     C2 6294   7.410   0.492  12.364 -0.2355 -0.2088 -0.0404
 3148OCT     C1 6295  18.751  21.067  20.863 -0.0419  0.2851 -0.4136
 3148OCT     C2 6296  19.101  20.717  20.969  0.0890  0.0557 -0.1602
 3149OCT     C1 6297  22.322   3.645  13.239  0.2788 -0.0171 -0.0201
 3149OCT     C2 6298  22.740   3.637  13.461 -0.0225 -0.0913 -0.1719
 3150OCT     C1 6299   1.019   9.855  20.062 -0.0658  0.2641 -0.1417
 3150OCT     C2 6300   0.863   9.880  20.486 -0.1612 -0.0751 -0.3075
 3151OCT     C1 6301  22.956   7.546  11.764  0.0225 -0.0138 -0.1413
 3151OCT     C2 6302  23.110   7.962  11.634  0.1239 -0.0965 -0.0982
 3152OCT     C1 6303  15.457   1.706  13.318 -0.2981 -0.1031 -0.2281
 3152OCT     C2 6304  15.829   1.944  13.444  0.0790  0.0443 -0.1031
 3153OCT     C1 6305  19.308  11.342   7.603 -0.1560  0.1284  0.1339
 3153OCT     C2 6306  19.129  11.786   7.577 -0.3498  0.1718  0.4335
 3154OCT     C1 6307   4.920   4.926  16.324  0.5387  0.1537  0.0828
 3154OCT     C2 6308   5.320   5.124  16.427  0.2002  0.1163  0.0768
 3155OCT     C1 6309   4.522  16.549  14.599  0.1704 -0.2339  0.2654
 3155OCT     C2 6310   4.948  16.312  14.721  0.1838 -0.2548 -0.6184
 3156OCT     C1 6311  13.069  10.567  10.160  0.0136 -0.3717 -0.1866
 3156OCT     C2 6312  13.328  10.806   9.810 -0.3001  0.3159 -0.1549
 3157OCT     C1 6313  22.594  12.863  18.170  0.1507  0.2160 -0.1448
 3157OCT     C2 6314  22.354  13.171  18.345  0.2643 -0.1523 -0.2535
 3158OCT     C1 6315   4.036   6.421   3.489 -0.0772  0.1630 -0.0811
 3158OCT     C2 6316   3.623   6.210   3.634  0.1009 -0.0081 -0.0128
 3159OCT     C1 6317  13.384  13.391   8.260 -0.4104  0.2918  0.0136
 3159OCT     C2 6318  13.514  13.825   8.312  0.0633 -0.2931 -0.2788
 3160OCT     C1 6319  19.716   6.864  14.929 -0.0072  0.1467  0.1776
 3160OCT     C2 6320  19.898   6.399  14.793  0.2755 -0.1363 -0.0345
 3161OCT     C1 6321  13.392  13.064  21.769 -0.2055  0.1557 -0.2667
 3161OCT     C2 6322  13.414  12.724  21.487 -0.0634 -0.0059 -0.0246
 3162OCT     C1 6323  20.796  22.997  11.553 -0.3728  0.0296  0.0182
 3162OCT     C2 6324  20.754  23.127  11.952 -0.3872 -0.0770  0.2506
 3163OCT     C1 6325   4.277  21.183   5.233  0.0973 -0.3698  0.3596
 3163OCT     C2 6326   4.193  20.966   5.611  0.1290 -0.2917 -0.1569
 3164OCT     C1 6327  14.025   3.128  19.266 -0.1951  0.1039 -0.3118
 3164OCT     C2 6328  13.638   3.206  18.974 -0.1387 -0.3265 -0.2742
 3165OCT     C1 6329   1.768   4.999  16.257  0.1798  0.0770  0.2738
 3165OCT     C2 6330   2.141   5.202  16.468  0.2273  0.0466  0.0539
 3166OCT     C1 6331  16.415  12.235  16.516  0.2065 -0.4042 -0.0917
 3166OCT     C2 6332  16.617  12.480  16.863  0.3391  0.0150 -0.2348
 3167OCT     C1 6333  20.030   8.421   8.528 -0.2419 -0.2404 -0.1059
 3167OCT     C2 6334  19.803   8.050   8.351 -0.0212 -0.0937 -0.1914
 3168OCT     C1 6335   0.942  15.993   3.825  0.2145 -0.0443  0.0375
 3168OCT     C2 6336   0.491  15.977   3.835  0.0632  0.1038  0.0915
 3169OCT     C1 6337   8.211   5.779  14.871 -0.1060  0.2161  0.0630
 3169OCT     C2 6338   8.640   5.958  14.731  0.1128  0.2064  0.0109
 3170OCT     C1 6339  21.110  16.849  15.829  0.2594 -0.2886  0.0698
 3170OCT     C2 6340  20.926  17.134  15.507  0.0177  0.0377 -0.2307
 3171OCT     C1 6341  16.826   6.427   5.645  0.0496 -0.2681  0.2829
 3171OCT     C2 6342  16.958   6.203   6.053  0.1491 -0.1102  0.2351
 3172OCT     C1 6343   5.168   6.560   8.292  0.0722 -0.4895 -0.0722
 3172OCT     C2 6344   5.434   6.932   8.434  0.4968  0.1685 -0.0559
 3173OCT     C1 6345  20.985   6.986  13.297 -0.1699 -0.0455  0.2729
 3173OCT     C2 6346  20.660   7.341  13.275 -0.2063  0.0578 -0.1726
 3174OCT     C1 6347   3.956   9.336  12.953  0.0110 -0.2786  0.1665
 3174OCT     C2 6348   3.804   9.763  12.820  0.2289  0.2279 -0.3301
 3175OCT     C1 6349   0.888  22.323   2.519 -0.3420 -0.3125  0.1751
 3175OCT     C2 6350   0.583  22.648   2.666  0.0397  0.1898 -0.0882
 3176OCT     C1 6351   1.502   5.893  21.818 -0.1006  0.0051  0.0599
 3176OCT     C2 6352   1.260   5.611  21.536  0.3700 -0.2974  0.2499
 3177OCT     C1 6353  16.418  13.163  10.226 -0.0988  0.4332  0.1758
 3177OCT     C2 6354  16.043  13.102  10.552 -0.0539  0.0073  0.1885
 3178OCT     C1 6355   2.850   4.481  14.936  0.0390  0.1281  0.2590
 3178OCT     C2 6356   2.712   4.176  14.606 -0.2769 -0.0028  0.2681
 3179OCT     C1 6357   5.806   2.617   0.614  0.1556 -0.0405 -0.1401
 3179OCT     C2 6358   6.147   2.820   0.485 -0.2984 -0.0997  0.0646
 3180OCT     C1 6359   2.787  13.204  18.711 -0.0224  0.3966 -0.2856
 3180OCT     C2 6360   3.034  13.437  18.406 -0.1487  0.0137  0.0846
 3181OCT     C1 6361  12.343   5.836   7.119  0.0886  0.1181  0.0836
 3181OCT     C2 6362  12.215   6.254   7.008  0.2073 -0.0411  0.0764
 3182OCT     C1 6363   9.296   8.939  16.948  0.1205 -0.4863 -0.0039
 3182OCT     C2 6364   9.424   9.266  16.590  0.2912 -0.0315 -0.1830
 3183OCT     C1 6365  10.061  16.640  22.291  0.0140  0.2121 -0.1187
 3183OCT     C2 6366  10.231  16.729  21.826  0.0677  0.2358  0.1205
 3184OCT     C1 6367   7.339  20.595  12.935 -0.0304  0.3149 -0.0648
 3184OCT     C2 6368   7.361  20.586  12.428  0.0073  0.0280 -0.1294
 3185OCT     C1 6369   5.753  18.460   9.889 -0.3681 -0.0254 -0.2344
 3185OCT     C2 6370   5.469  18.232  10.162 -0.1571  0.1270 -0.1605
 3186OCT     C1 6371   6.365  19.319   6.942  0.0431  0.1446 -0.1241
 3186OCT     C2 6372   6.292  19.810   6.977 -0.1060  0.1008  0.2908
 3187OCT     C1 6373   2.344  11.185  15.663 -0.0290 -0.1886  0.2569
 3187OCT     C2 6374   2.139  10.882  15.978  0.0539  0.0995 -0.2057
 3188OCT     C1 6375  16.691  20.608  18.899  0.0787 -0.1948 -0.1785
 3188OCT     C2 6376  17.068  20.612  18.585  0.2163  0.0432 -0.0787
 3189OCT     C1 6377  18.119   1.579   6.899 -0.1156  0.2288 -0.2249
 3189OCT     C2 6378  18.264   1.862   7.233  0.1108  0.0724 -0.1449
 3190OCT     C1 6379   5.085   0.453  11.535 -0.2321  0.0324  0.1173
 3190OCT     C2 6380   4.631   0.554  11.467  0.0821 -0.1469 -0.4574
 3191OCT     C1 6381  15.221  18.073   8.981  0.0383  0.1614  0.1158
 3191OCT     C2 6382  15.333  17.837   8.582 -0.0677  0.1440 -0.1348
 3192OCT     C1 6383   7.424   9.154   4.188  0.1948  0.0989  0.0300
 3192OCT     C2 6384   7.850   9.315   4.228  0.0961 -0.2397  0.2838
 3193OCT     C1 6385  18.162   4.538   6.603 -0.0677 -0.0130 -0.1309
 3193OCT     C2 6386  17.887   4.441   6.256 -0.3444  0.0809 -0.2000
 3194OCT     C1 6387   6.728  10.800   1.063 -0.1403 -0.3482 -0.0026
 3194OCT     C2 6388   6.425  10.469   1.101 -0.1151  0.1880  0.2991
 3195OCT     C1 6389   3.229  16.934   9.727 -0.2486 -0.0013 -0.1785
 3195OCT     C2 6390   3.610  16.617   9.736 -0.0233  0.0118 -0.2870
 3196OCT     C1 6391  10.760  10.552   2.116 -0.3559 -0.1918  0.0745
 3196OCT     C2 6392  10.698  10.141   2.190  0.0831 -0.0175 -0.0928
 3197OCT     C1 6393  20.913   4.345  18.124  0.1327  0.0152  0.3187
 3197OCT     C2 6394  21.084   3.934  17.971 -0.0382  0.0507 -0.0890
 3198OCT     C1 6395  22.930   8.174   4.594  0.0419  0.2813 -0.2449
 3198OCT     C2 6396  22.510   7.998   4.552 -0.2232  0.1867  0.1048
 3199OCT     C1 6397  23.254  11.902   7.092 -0.0615 -0.0354 -0.1773
 3199OCT     C2 6398  23.550  12.201   7.250 -0.0551  0.4187 -0.2583
 3200OCT     C1 6399   3.600   9.731  20.063 -0.3487  0.2505 -0.0199
 3200OCT     C2 6400   3.300  10.079  19.983  0.1093 -0.0205  0.2111
 3201OCT     C1 6401  16.545  22.223   4.935  0.0500 -0.0348  0.1656
 3201OCT     C2 6402  16.861  21.938   4.815  0.1874 -0.0913  0.3886
 3202OCT     C1 6403  13.264  13.561  13.939 -0.2596  0.2567 -0.1373
 3202OCT     C2 6404  13.343  13.822  14.347  0.1758  0.2869  0.2802
 3203OCT     C1 6405  23.386   8.478   6.038  0.1979  0.0628  0.5331
 3203OCT     C2 6406  23.726   8.694   6.243 -0.1152 -0.3351 -0.0260
 3204OCT     C1 6407  16.556   3.692   3.304 -0.0862 -0.1644 -0.4063
 3204OCT     C2 6408  16.378   4.053   3.049 -0.1346 -0.2148 -0.1057
 3205OCT     C1 6409   0.027   9.285   5.767  0.1170  0.0177  0.1719
 3205OCT     C2 6410  23.554   8.878   5.803 -0.0571 -0.0821  0.0173
 3206OCT     C1 6411  14.281   5.235   7.811 -0.2212 -0.3125 -0.2317
 3206OCT     C2 6412  14.263   5.583   7.442 -0.0457  0.0602  0.2095
 3207OCT     C1 6413   1.817   3.868   2.217 -0.1262  0.1540  0.4227
 3207OCT     C2 6414   2.034   3.731   1.832 -0.1182 -0.2263  0.0400
 3208OCT     C1 6415  21.399  12.684   6.764 -0.0671  0.0311 -0.2178
 3208OCT     C2 6416  21.375  12.865   6.328 -0.2390  0.0599 -0.4699
 3209OCT     C1 6417  19.627  11.455  22.111 -0.3696 -0.3734  0.0044
 3209OCT     C2 6418  19.484  11.654  21.764 -0.0222  0.4107 -0.1470
 3210OCT     C1 6419  11.558   2.290  17.660 -0.2551 -0.3404  0.5671
 3210OCT     C2 6420  11.104   2.352  17.470 -0.3209  0.1600 -0.1624
 3211OCT     C1 6421  18.974   5.649   1.700 -0.0577  0.0085  0.0517
 3211OCT     C2 6422  19.299   5.550   1.417 -0.0386 -0.1870 -0.1088
 3212OCT     C1 6423  20.497   6.793  10.870 -0.1073 -0.0203  0.1095
 3212OCT     C2 6424  20.355   6.351  11.026  0.2252 -0.0047 -0.4167
 3213OCT     C1 6425   1.866   1.279  14.257 -0.0797  0.1444  0.0559
 3213OCT     C2 6426   1.435   1.488  14.138 -0.1114 -0.2481  0.2258
 3214OCT     C1 6427   5.267   3.667  23.471  0.3670 -0.5568 -0.0658
 3214OCT     C2 6428   5.233   3.597  23.010 -0.2470 -0.4854  0.1341
 3215OCT     C1 6429  10.641   3.918  13.324 -0.2195  0.0264  0.4380
 3215OCT     C2 6430  11.117   4.034  13.363  0.0847  0.3490  0.4126
 3216OCT     C1 6431  12.581  22.429  22.471 -0.3386 -0.2091  0.2409
 3216OCT     C2 6432  12.843  22.815  22.274 -0.0126 -0.3820 -0.2952
 3217OCT     C1 6433   4.748  21.711  22.727 -0.0209  0.0873 -0.2023
 3217OCT     C2 6434   4.731  21.443  23.139  0.4016 -0.1803 -0.2046
 3218OCT     C1 6435   5.097  17.240  21.057  0.0145 -0.0659  0.1351
 3218OCT     C2 6436   4.856  17.106  21.461 -0.4929 -0.2325 -0.0319
 3219OCT     C1 6437   7.124  19.482   0.526  0.0972 -0.0765  0.0054
 3219OCT     C2 6438   6.670  19.668   0.662 -0.1292 -0.1094 -0.2868
 3220OCT     C1 6439   9.212  17.512  16.457  0.1073  0.0799 -0.0725
 3220OCT     C2 6440   9.028  17.166  16.736 -0.0443 -0.1900 -0.0217
 3221OCT     C1 6441   5.743  21.019  12.619  0.2388 -0.3118  0.2074
 3221OCT     C2 6442   5.557  21.354  12.323 -0.1271 -0.0816 -0.3805
 3222OCT     C1 6443  15.440  18.039  11.449 -0.0162 -0.0947  0.0234
 3222OCT     C2 6444  15.040  18.141  11.251  0.1333 -0.4751 -0.0837
 3223OCT     C1 6445   2.336   4.379  20.151 -0.3710  0.0606 -0.0379
 3223OCT     C2 6446   2.069   4.043  19.986 -0.0515  0.0144 -0.1643
 3224OCT     C1 6447  10.194   2.606   3.136 -0.3878  0.0747 -0.0654
 3224OCT     C2 6448  10.583   2.698   2.886  0.0746 -0.2746  0.4499
 3225OCT     C1 6449  20.546   1.187   7.668  0.1341 -0.0971  0.1045
 3225OCT     C2 6450  20.748   1.073   7.227 -0.2116 -0.3325  0.1620
 3226OCT     C1 6451   8.351   3.704  19.338  0.2217 -0.0256 -0.1051
 3226OCT     C2 6452   8.094   3.792  18.964 -0.0825  0.3066 -0.1534
 3227OCT     C1 6453   5.526   4.940   1.835 -0.1504  0.3726  0.1048
 3227OCT     C2 6454   5.479   5.112   1.431 -0.0539  0.1063 -0.2309
 3228OCT     C1 6455  10.467  12.460  13.483  0.0297 -0.0901 -0.1159
 3228OCT     C2 6456  10.430  12.512  13.951  0.0504  0.1988  0.1211
 3229OCT     C1 6457  17.738   5.241   1.293 -0.1332  0.0258 -0.3669
 3229OCT     C2 6458  17.303   5.031   1.379  0.1407  0.0214 -0.0953
 3230OCT     C1 6459  21.637  15.074  10.886  0.2257  0.2777  0.0758
 3230OCT     C2 6460  21.792  15.367  10.508  0.2345  0.0649  0.1925
 3231OCT     C1 6461  12.163  18.900  14.025  0.0610  0.1893  0.0829
 3231OCT     C2 6462  11.806  19.123  13.760  0.2012 -0.0589 -0.2156
 3232OCT     C1 6463  23.335  16.968  23.209 -0.2726 -0.2056 -0.0941
 3232OCT     C2 6464  23.708  17.237  23.231  0.1048 -0.3418  0.1112
 3233OCT     C1 6465  11.608  15.491  16.298  0.0145 -0.0210 -0.4604
 3233OCT     C2 6466  11.725  15.074  16.551  0.3286 -0.1410  0.3547
 3234OCT     C1 6467   3.600   5.683   5.213 -0.2276  0.0034  0.2158
 3234OCT     C2 6468   3.707   5.373   4.820  0.2466  0.3413 -0.2102
 3235OCT     C1 6469  14.934  16.812  22.671 -0.0006 -0.2740 -0.1526
 3235OCT     C2 6470  14.716  16.822  23.113 -0.0679  0.1388  0.0764
 3236OCT     C1 6471  19.605  18.553  11.504  0.1586 -0.1738  0.4350
 3236OCT     C2 6472  19.189  18.676  11.234 -0.1406  0.2961 -0.2918
 3237OCT     C1 6473   6.975   3.775  23.635 -0.1149 -0.1033  0.2058
 3237OCT     C2 6474   6.674   4.072   0.052 -0.1074  0.0635 -0.0604
 3238OCT     C1 6475  13.031  22.018  21.067  0.2313  0.0938 -0.0865
 3238OCT     C2 6476  13.384  22.025  21.350  0.1890  0.0784 -0.1049
 3239OCT     C1 6477  12.977  10.836  20.225  0.2015  0.3553  0.0878
 3239OCT     C2 6478  13.061  10.979  19.725 -0.0489  0.2150  0.1273
 3240OCT     C1 6479  17.881  11.160  10.969  0.0171 -0.5145 -0.0644
 3240OCT     C2 6480  17.535  11.477  10.789  0.0255  0.1626  0.1812
 3241OCT     C1 6481  20.340   5.229   2.969  0.0082  0.1087  0.0182
 3241OCT     C2 6482  19.979   5.514   2.737 -0.0006 -0.3294 -0.3328
 3242OCT     C1 6483  15.713   3.386  19.830 -0.2629 -0.3964  0.0910
 3242OCT     C2 6484  15.354   3.695  19.819  0.4927 -0.0716  0.0232
 3243OCT     C1 6485  18.573  13.195   1.749 -0.3261 -0.4327 -0.0349
 3243OCT     C2 6486  18.983  12.913   1.774  0.2499  0.2776  0.3474
 3244OCT     C1 6487  10.746  22.680   9.588  0.4115  0.0819 -0.4722
 3244OCT     C2 6488  10.911  22.402   9.922  0.1111 -0.0072  0.0640
 3245OCT     C1 6489  10.819   0.830  14.241  0.1593  0.2346 -0.1023
 3245OCT     C2 6490  10.902   0.721  14.697  0.5475 -0.0080 -0.1613
 3246OCT     C1 6491  10.105  19.839  21.091  0.2024  0.2307 -0.3890
 3246OCT     C2 6492   9.745  20.178  21.150  0.0675  0.0250 -0.1374
 3247OCT     C1 6493  14.121   9.555   3.192 -0.0479  0.0494  0.0569
 3247OCT     C2 6494  14.258   9.383   3.597  0.2324 -0.0746 -0.0418
 3248OCT     C1 6495  11.051   1.810   8.946 -0.0287 -0.0240 -0.3641
 3248OCT     C2 6496  11.226   1.555   8.563 -0.0847  0.0937  0.0499
 3249OCT     C1 6497   6.330  11.735  20.765 -0.2764 -0.0720  0.0312
 3249OCT     C2 6498   5.921  11.596  20.950  0.0600  0.0474 -0.3843
 3250OCT     C1 6499  13.551  12.299   1.941 -0.1557  0.0840 -0.4840
 3250OCT     C2 6500  13.262  12.407   2.287 -0.0729  0.1351 -0.0652
 3251OCT     C1 6501  18.416  16.164  22.395  0.1992  0.1376  0.1682
 3251OCT     C2 6502  18.579  15.739  22.489  0.1422  0.1002 -0.1664
 3252OCT     C1 6503  19.435   9.723  18.532  0.2097  0.0711  0.0769
 3252OCT     C2 6504  19.134   9.950  18.805  0.0710 -0.0290  0.2074
 3253OCT     C1 6505   8.259  10.171   8.352  0.4416  0.1978 -0.4262
 3253OCT     C2 6506   8.578  10.335   8.071 -0.4064 -0.2178 -0.1504
 3254OCT     C1 6507  12.050   4.851   8.687 -0.0475 -0.2987  0.1335
 3254OCT     C2 6508  11.571   4.962   8.633 -0.0460 -0.1550 -0.2529
 3255OCT     C1 6509  16.653  17.336  16.865 -0.2072  0.1527  0.0458
 3255OCT     C2 6510  16.554  17.641  16.468  0.2988 -0.1195  0.3208
 3256OCT     C1 6511   1.288   9.125   2.949 -0.3887 -0.0174  0.0520
 3256OCT     C2 6512   0.893   9.103   2.693  0.1864 -0.1256  0.5398
 3257OCT     C1 6513  10.828  15.174  18.357  0.1476 -0.2762 -0.0578
 3257OCT     C2 6514  10.446  15.193  18.511  0.0360  0.1748  0.2004
 3258OCT     C1 6515  17.013  17.604   6.797  0.3278  0.2035  0.1253
 3258OCT     C2 6516  16.673  17.897   6.909 -0.1691 -0.2961 -0.1597
 3259OCT     C1 6517   2.419   0.395   2.324  0.0247  0.0198  0.1746
 3259OCT     C2 6518   2.024   0.227   2.513 -0.4534 -0.0439  0.1173
 3260OCT     C1 6519  11.620   3.947   9.377  0.0850 -0.2838 -0.3595
 3260OCT     C2 6520  11.869   3.906   9.729  0.1308 -0.3187  0.2458
 3261OCT     C1 6521  19.421   0.907  12.101  0.1207 -0.2106 -0.0126
 3261OCT     C2 6522  19.366   0.585  11.793  0.0194 -0.4626  0.0174
 3262OCT     C1 6523   2.475  21.098  15.982  0.1904 -0.1989 -0.0032
 3262OCT     C2 6524   2.521  20.671  16.204 -0.1823 -0.2735  0.2659
 3263OCT     C1 6525  19.013  19.880   2.142  0.2197  0.3947  0.2048
 3263OCT     C2 6526  19.153  19.961   2.613 -0.4219 -0.3461 -0.2815
 3264OCT     C1 6527   8.334   2.259   8.756 -0.1464 -0.3107 -0.0576
 3264OCT     C2 6528   8.301   2.710   9.006  0.1045 -0.0174 -0.0185
 3265OCT     C1 6529  14.258   1.461  22.373  0.3823  0.0572  0.0909
 3265OCT     C2 6530  14.351   1.137  22.718  0.0553 -0.1124  0.0035
 3266OCT     C1 6531   2.109   1.978  22.951  0.0131  0.0800 -0.2714
 3266OCT     C2 6532   2.090   1.972  23.403  0.1373 -0.3658  0.1474
 3267OCT     C1 6533  23.499  16.921   4.631  0.0401 -0.2557  0.0526
 3267OCT     C2 6534   0.228  17.095   4.542 -0.1470  0.3497  0.5529
 3268OCT     C1 6535  15.762  16.947  10.112  0.2455  0.2572 -0.0044
 3268OCT     C2 6536  15.950  16.501   9.978 -0.1861 -0.1903  0.1240
 3269OCT     C1 6537  12.729   7.593  23.572 -0.2135  0.3785  0.2709
 3269OCT     C2 6538  12.676   7.893   0.129  0.2545 -0.0723 -0.2058
 3270OCT     C1 6539   2.754  16.597  15.950 -0.0760  0.0474 -0.1193
 3270OCT     C2 6540   3.132  16.619  15.647 -0.1025  0.1169  0.1789
 3271OCT     C1 6541   8.746  12.074  15.965 -0.2827 -0.0956 -0.1866
 3271OCT     C2 6542   8.828  12.332  15.607 -0.1521  0.0312 -0.0343
 3272OCT     C1 6543  20.123  16.100   6.201  0.1026  0.0181  0.0620
 3272OCT     C2 6544  19.799  15.971   5.879 -0.1629 -0.2945 -0.3382
 3273OCT     C1 6545  11.758  17.867   8.422  0.3540  0.5721  0.2268
 3273OCT     C2 6546  11.772  18.136   7.992 -0.3388  0.2868  0.0858
 3274OCT     C1 6547  14.605  10.051   6.208  0.1920 -0.0277  0.0273
 3274OCT     C2 6548  14.797  10.481   6.196 -0.0099 -0.0719  0.2353
 3275OCT     C1 6549  13.948   4.226   7.440 -0.0582 -0.2707  0.1584
 3275OCT     C2 6550  13.490   4.337   7.491 -0.3274  0.0609 -0.0413
 3276OCT     C1 6551   5.361  22.103  12.274  0.1741  0.0935 -0.0962
 3276OCT     C2 6552   5.002  21.958  12.606 -0.0854  0.2019 -0.1957
 3277OCT     C1 6553  23.311   2.415   5.723  0.4402  0.1030  0.1662
 3277OCT     C2 6554  23.245   2.826   5.762  0.2044  0.1866 -0.1819
 3278OCT     C1 6555  10.232  20.590   0.143  0.2320 -0.3272  0.0467
 3278OCT     C2 6556  10.195  21.037   0.260  0.1702  0.3855 -0.1457
 3279OCT     C1 6557   9.378   4.261  15.611  0.2051 -0.2514  0.1127
 3279OCT     C2 6558   9.404   4.576  15.939 -0.2483  0.1896 -0.1506
 3280OCT     C1 6559  17.438  18.131  11.181 -0.1119 -0.1669 -0.1534
 3280OCT     C2 6560  17.656  17.844  11.458 -0.4377  0.0564 -0.0313
 3281OCT     C1 6561  12.062  18.563   5.000  0.1187  0.0892 -0.0525
 3281OCT     C2 6562  12.073  18.390   5.422 -0.1465  0.0479  0.1201
 3282OCT     C1 6563   3.769  18.785  22.171 -0.2858  0.3382  0.0764
 3282OCT     C2 6564   3.497  19.175  22.155 -0.0820 -0.0406 -0.2190
 3283OCT     C1 6565  18.365   4.258  11.411  0.1920  0.1236 -0.1271
 3283OCT     C2 6566  18.475   4.654  11.607  0.2591  0.2012  0.0053
 3284OCT     C1 6567   6.418   5.968  16.749 -0.0733 -0.1083  0.1677
 3284OCT     C2 6568   6.116   5.728  16.943 -0.3624  0.1372 -0.2185
 3285OCT     C1 6569   4.504   8.267  22.386 -0.0305  0.1066 -0.0657
 3285OCT     C2 6570   4.651   8.348  21.914  0.0554 -0.2429  0.0504
 3286OCT     C1 6571  17.666   0.256   7.608 -0.0306  0.2232 -0.0141
 3286OCT     C2 6572  17.367   0.362   7.311 -0.1274  0.3028  0.2747
 3287OCT     C1 6573  19.870   7.044  15.408  0.0960 -0.2604 -0.2829
 3287OCT     C2 6574  20.120   6.707  15.169 -0.0947  0.0239 -0.0469
 3288OCT     C1 6575  11.522  13.327   7.768 -0.1486  0.0062 -0.0373
 3288OCT     C2 6576  11.235  13.704   7.643 -0.4152  0.2394 -0.1639
 3289OCT     C1 6577  15.667   9.762   8.374 -0.0802 -0.3914  0.0008
 3289OCT     C2 6578  15.648   9.447   8.745 -0.2483  0.0691  0.0122
 3290OCT     C1 6579  19.934   1.453   8.275 -0.1232 -0.2456  0.1849
 3290OCT     C2 6580  19.909   1.889   8.396 -0.3708  0.0077  0.1411
 3291OCT     C1 6581   3.677   7.643  11.329  0.3058 -0.1774 -0.0845
 3291OCT     C2 6582   3.251   7.622  11.181 -0.0512 -0.2847 -0.2103
 3292OCT     C1 6583  19.192  11.604   8.035  0.1929 -0.4225  0.3393
 3292OCT     C2 6584  19.491  11.664   8.343  0.0948 -0.2269 -0.1672
 3293OCT     C1 6585  20.727  19.220   1.952  0.3534  0.0456 -0.0031
 3293OCT     C2 6586  21.144  19.259   1.847 -0.4013 -0.0478 -0.0151
 3294OCT     C1 6587  22.886  13.945  14.772 -0.1676  0.3333 -0.0971
 3294OCT     C2 6588  22.526  13.759  14.703  0.1523 -0.1078 -0.0786
 3295OCT     C1 6589  18.009  14.732  21.288  0.2799  0.3892  0.0906
 3295OCT     C2 6590  17.721  15.082  21.203 -0.0269  0.0493  0.1238
 3296OCT     C1 6591  12.600  23.481   5.039  0.0651  0.1092 -0.1349
 3296OCT     C2 6592  12.513  23.471   5.463 -0.0520 -0.3346 -0.1781
 3297OCT     C1 6593  10.494  19.963   3.957 -0.0513 -0.0043 -0.1480
 3297OCT     C2 6594  10.124  19.848   3.631  0.1905 -0.1119  0.3205
 3298OCT     C1 6595   0.851  11.542  10.291  0.0281 -0.1994  0.4273
 3298OCT     C2 6596   0.688  11.958  10.096 -0.0241 -0.1777 -0.1110
 3299OCT     C1 6597   0.267   7.862   3.122  0.4587 -0.1568  0.4091
 3299OCT     C2 6598   0.007   8.092   2.798 -0.2704  0.2987  0.0877
 3300OCT     C1 6599   6.384  11.816  21.288  0.2841  0.0349 -0.0963
 3300OCT     C2 6600   6.819  11.808  21.224  0.2037 -0.0338  0.0503
 3301OCT     C1 6601  14.134  22.050   6.781  0.0027 -0.1392  0.2245
 3301OCT     C2 6602  13.955  21.625   6.719  0.0664 -0.0101 -0.2245
 3302OCT     C1 6603  16.846   2.103   5.568  0.2243  0.0969  0.5134
 3302OCT     C2 6604  16.485   1.883   5.385 -0.0685 -0.0941 -0.3862
 3303OCT     C1 6605  10.674  16.559  14.388  0.0377  0.2520 -0.0928
 3303OCT     C2 6606  10.519  16.223  14.130  0.1873 -0.1633  0.0669
 3304OCT     C1 6607  20.599  19.796  10.566  0.0849 -0.1299 -0.3130
 3304OCT     C2 6608  20.864  20.110  10.268  0.0943  0.1902  0.2389
 3305OCT     C1 6609  21.837  19.775  19.313 -0.0236  0.1342  0.0491
 3305OCT     C2 6610  22.103  19.547  19.551 -0.1120 -0.5213  0.2769
 3306OCT     C1 6611   1.868  12.502   0.256 -0.2955 -0.3168 -0.3027
 3306OCT     C2 6612   1.485  12.643   0.430  0.2975  0.3063  0.3128
 3307OCT     C1 6613  13.049   0.889  10.035  0.2167  0.3708  0.2057
 3307OCT     C2 6614  13.222   1.213   9.751  0.1497  0.3984 -0.1112
 3308OCT     C1 6615  14.503  16.214  14.842  0.0211 -0.0770 -0.3761
 3308OCT     C2 6616  14.220  16.559  15.102 -0.0262 -0.0482  0.0838
 3309OCT     C1 6617  12.478  20.263  10.566 -0.2136 -0.1077  0.2149
 3309OCT     C2 6618  12.887  20.091  10.743 -0.7105  0.3337  0.1347
 3310OCT     C1 6619  17.572  22.645   3.028  0.0494  0.4007 -0.0150
 3310OCT     C2 6620  17.678  22.210   3.234 -0.1001 -0.2800  0.1835
 3311OCT     C1 6621  18.782   1.947   1.254  0.2380 -0.2698  0.1263
 3311OCT     C2 6622  18.720   2.056   1.762 -0.0436  0.2016 -0.3755
 3312OCT     C1 6623  22.735   7.158   2.887  0.0056 -0.2333  0.1220
 3312OCT     C2 6624  23.038   7.385   3.100 -0.0316 -0.2119 -0.3537
 3313OCT     C1 6625  10.734   8.191   4.592 -0.2821 -0.0645 -0.0200
 3313OCT     C2 6626  10.855   7.753   4.323 -0.2050 -0.4842 -0.2881
 3314OCT     C1 6627  13.705  18.745   0.302 -0.0365  0.0921 -0.2936
 3314OCT     C2 6628  13.231  18.661   0.410 -0.0061 -0.1028 -0.0263
 3315OCT     C1 6629   3.951  10.765  10.990 -0.1633 -0.0812  0.0720
 3315OCT     C2 6630   4.042  10.818  10.536 -0.1825  0.0870  0.1947
 3316OCT     C1 6631   7.583   5.688  22.515  0.5322  0.1291  0.4086
 3316OCT     C2 6632   7.430   5.544  22.936  0.1845 -0.3140 -0.1010
 3317OCT     C1 6633  11.697  19.095   0.904  0.0182  0.0305  0.0220
 3317OCT     C2 6634  12.112  18.922   1.055  0.0450 -0.0753  0.1638
 3318OCT     C1 6635  22.822   8.199  22.328  0.3910  0.0545 -0.4299
 3318OCT     C2 6636  23.112   7.897  22.161 -0.1636  0.3569 -0.0750
 3319OCT     C1 6637  13.123  14.885   8.536  0.1764  0.4492 -0.3478
 3319OCT     C2 6638  12.717  15.109   8.608 -0.3517  0.2351  0.1694
 3320OCT     C1 6639  15.117  11.764  15.205  0.0127  0.1067  0.3689
 3320OCT     C2 6640  15.416  12.075  15.282  0.3121 -0.1253 -0.0788
 3321OCT     C1 6641  14.951   1.195  12.360  0.4168 -0.0584  0.1074
 3321OCT     C2 6642  14.514   1.163  12.147 -0.1810 -0.3108  0.0361
 3322OCT     C1 6643   4.792  16.183   2.651  0.0097 -0.0366 -0.0831
 3322OCT     C2 6644   4.768  16.380   2.206  0.0358 -0.2144 -0.0707
 3323OCT     C1 6645   8.075  13.334  16.755 -0.1183 -0.2117  0.1164
 3323OCT     C2 6646   8.402  13.538  17.021 -0.0638  0.0400  0.3401
 3324OCT     C1 6647  12.354  17.237  13.102 -0.0980 -0.0369  0.2250
 3324OCT     C2 6648  12.700  17.485  12.853 -0.1128 -0.0338 -0.0722
 3325OCT     C1 6649  21.149   9.065  19.921 -0.2906 -0.0940  0.2191
 3325OCT     C2 6650  20.824   9.432  19.825  0.0824  0.2481 -0.0623
 3326OCT     C1 6651   5.686  15.786  12.895  0.3832  0.0731 -0.3394
 3326OCT     C2 6652   5.807  15.514  13.262 -0.1759 -0.1743  0.1007
 3327OCT     C1 6653  14.837  23.298  15.588 -0.2181 -0.1108 -0.4344
 3327OCT     C2 6654  15.305  23.167  15.500  0.3516  0.2181  0.3506
 3328OCT     C1 6655   1.896   3.255  11.614  0.1615  0.1765 -0.1770
 3328OCT     C2 6656   1.561   3.369  11.901 -0.0570  0.1596  0.0697
 3329OCT     C1 6657   5.995  17.993  18.178  0.2528  0.4758  0.0491
 3329OCT     C2 6658   5.746  17.812  17.839 -0.0572 -0.1812 -0.0698
 3330OCT     C1 6659  21.203   6.489  20.197 -0.0457  0.2308 -0.1769
 3330OCT     C2 6660  21.285   6.038  20.080 -0.0455  0.1512 -0.1197
 3331OCT     C1 6661  20.100   3.692   1.679 -0.0608  0.0192  0.4244
 3331OCT     C2 6662  20.184   4.077   1.414  0.1666 -0.3095 -0.0307
 3332OCT     C1 6663  15.485  11.896  19.735 -0.2131 -0.3486 -0.1371
 3332OCT     C2 6664  15.256  12.243  19.813  0.1219 -0.4120 -0.0677
 3333OCT     C1 6665   1.253   7.950  12.333  0.2094 -0.0267  0.2692
 3333OCT     C2 6666   0.890   8.211  12.451  0.0741 -0.2620 -0.2504
 3334OCT     C1 6667  21.058  11.738  11.023 -0.0138  0.2717 -0.0501
 3334OCT     C2 6668  20.726  11.416  10.867 -0.0814 -0.1430 -0.0526
 3335OCT     C1 6669  23.016  14.763   7.835  0.1118  0.0742  0.1362
 3335OCT     C2 6670  22.605  14.544   7.763  0.1101  0.3770 -0.0498
 3336OCT     C1 6671   6.290   6.730   9.067  0.0670  0.1173 -0.1883
 3336OCT     C2 6672   5.960   6.418   9.078 -0.2223 -0.0251 -0.1936
 3337OCT     C1 6673  17.237  13.553  12.396 -0.2308 -0.1077  0.0898
 3337OCT     C2 6674  17.446  13.932  12.134  0.2991  0.0237  0.0749
 3338OCT     C1 6675  13.402   4.083  13.740  0.3420 -0.1777  0.2457
 3338OCT     C2 6676  13.576   3.673  13.620 -0.3946 -0.1650 -0.3313
 3339OCT     C1 6677  15.992  15.057  23.705 -0.1145  0.0178 -0.0675
 3339OCT     C2 6678  15.810  15.063   0.405 -0.0414 -0.1747  0.3478
 3340OCT     C1 6679  17.462   7.068  12.214  0.0773  0.0886 -0.0879
 3340OCT     C2 6680  17.572   7.145  12.631 -0.2109 -0.3114  0.0136
 3341OCT     C1 6681   7.661   8.839  10.194  0.0616 -0.2491 -0.0571
 3341OCT     C2 6682   7.987   8.484  10.160 -0.3204  0.5620  0.6119
 3342OCT     C1 6683  16.258   4.886  18.919  0.1357  0.0482  0.0612
 3342OCT     C2 6684  16.490   5.145  18.640  0.1882 -0.3603  0.1106
 3343OCT     C1 6685   4.134   5.011  23.306  0.2171  0.1066  0.1028
 3343OCT     C2 6686   3.744   5.269  23.237 -0.1000  0.0061 -0.1136
 3344OCT     C1 6687   4.827  20.240   2.987  0.0215  0.1110 -0.1005
 3344OCT     C2 6688   4.821  19.940   2.647 -0.2919 -0.5806  0.2362
 3345OCT     C1 6689  15.722   8.917  12.068 -0.0111 -0.1929 -0.0722
 3345OCT     C2 6690  16.193   8.840  12.163  0.2391 -0.2479 -0.1260
 3346OCT     C1 6691  12.561   1.763  17.119  0.2411 -0.0813 -0.0091
 3346OCT     C2 6692  12.539   1.849  16.689  0.2349 -0.3571 -0.1671
 3347OCT     C1 6693  12.986   6.781  20.267  0.2206  0.1473 -0.1650
 3347OCT     C2 6694  12.614   6.737  20.001  0.1063 -0.1426  0.1295
 3348OCT     C1 6695  22.697  20.898   7.489  0.4822 -0.0488 -0.2023
 3348OCT     C2 6696  22.367  20.722   7.813 -0.5015  0.1081 -0.1731
 3349OCT     C1 6697   2.546  22.697  13.849 -0.2091 -0.3740 -0.2817
 3349OCT     C2 6698   3.012  22.919  13.870  0.3596 -0.1245 -0.3235
 3350OCT     C1 6699   2.490  10.683  12.402  0.0437 -0.0147 -0.0337
 3350OCT     C2 6700   2.750  10.716  11.984  0.1902 -0.1565  0.1699
 3351OCT     C1 6701  18.928  14.756  11.202  0.1787 -0.2001  0.4084
 3351OCT     C2 6702  19.267  15.065  11.335  0.0302  0.0883 -0.1170
 3352OCT     C1 6703  10.878   2.369  22.972 -0.0037 -0.0374  0.1903
 3352OCT     C2 6704  10.762   2.758  23.220  0.4866 -0.1582  0.2073
 3353OCT     C1 6705   4.874  17.045  18.857  0.1674  0.0931  0.4027
 3353OCT     C2 6706   4.773  17.044  19.321  0.2757 -0.1612  0.2164
 3354OCT     C1 6707  16.111  21.546  18.637 -0.2965  0.3709  0.1628
 3354OCT     C2 6708  16.248  21.152  18.395 -0.1418 -0.0630  0.0346
 3355OCT     C1 6709   4.027  10.626  21.860  0.0297 -0.2921  0.0906
 3355OCT     C2 6710   4.455  10.821  21.987 -0.4378  0.3366 -0.0199
 3356OCT     C1 6711   6.500  19.951   9.972  0.2748  0.1507 -0.3723
 3356OCT     C2 6712   6.635  19.524  10.037 -0.0487  0.2691  0.3319
 3357OCT     C1 6713  12.401  23.090   7.129  0.1697 -0.3363  0.0858
 3357OCT     C2 6714  12.483  23.527   7.103 -0.3019 -0.1769 -0.2628
 3358OCT     C1 6715  18.237  13.425   3.946 -0.2547  0.0724 -0.2941
 3358OCT     C2 6716  18.584  13.129   4.074  0.3041 -0.0720  0.0516
 3359OCT     C1 6717   8.109  15.455  20.822 -0.0480  0.1383  0.1738
 3359OCT     C2 6718   7.742  15.390  20.524 -0.0155  0.1843  0.0008
 3360OCT     C1 6719  12.597   9.203  17.747  0.1506  0.0587 -0.0060
 3360OCT     C2 6720  13.013   9.107  17.999 -0.0102  0.3300 -0.2688
 3361OCT     C1 6721  17.530  11.684  11.550  0.1512  0.4149 -0.3328
 3361OCT     C2 6722  17.114  11.552  11.378  0.2242 -0.0678 -0.1982
 3362OCT     C1 6723   6.946  18.522  15.744 -0.3010 -0.2805  0.1433
 3362OCT     C2 6724   7.035  18.696  15.297 -0.3030  0.3816 -0.1090
 3363OCT     C1 6725  12.123   4.887  13.940 -0.2479  0.3160 -0.3967
 3363OCT     C2 6726  12.530   4.865  13.991 -0.2203  0.2267  0.2126
 3364OCT     C1 6727  10.972   6.262  18.893  0.5598  0.2293 -0.0472
 3364OCT     C2 6728  10.970   6.614  18.674  0.3596 -0.0842  0.2199
 3365OCT     C1 6729  11.414  19.640   5.488  0.5625  0.0449  0.0918
 3365OCT     C2 6730  11.253  20.040   5.662 -0.6195 -0.2003 -0.1316
 3366OCT     C1 6731  19.370  11.541   4.510 -0.1569  0.3829  0.0320
 3366OCT     C2 6732  19.681  11.407   4.829  0.2239 -0.5166 -0.0986
 3367OCT     C1 6733  21.981   5.716   2.575 -0.1352  0.2898 -0.3624
 3367OCT     C2 6734  21.788   6.049   2.911  0.1602 -0.0800  0.2861
 3368OCT     C1 6735  22.108   3.594  23.325  0.1727 -0.0627 -0.2030
 3368OCT     C2 6736  22.173   3.752  22.879 -0.1198  0.1116 -0.1288
 3369OCT     C1 6737   5.719  22.463   3.627 -0.1706  0.2489  0.0923
 3369OCT     C2 6738   5.268  22.433   3.672 -0.1732 -0.0553  0.0924
 3370OCT     C1 6739   4.675  14.305  15.042  0.0408  0.3574  0.0424
 3370OCT     C2 6740   4.582  14.070  15.384  0.0815  0.0119  0.1379
 3371OCT     C1 6741  12.729   7.342   5.253 -0.1427  0.1784  0.3092
 3371OCT     C2 6742  12.482   7.425   5.673  0.1795  0.2656  0.3983
 3372OCT     C1 6743  13.622   8.660   3.032 -0.0491 -0.0845  0.2598
 3372OCT     C2 6744  13.458   8.450   3.383 -0.3043  0.2781  0.0984
 3373OCT     C1 6745   0.203  13.989  23.274 -0.1467  0.1745  0.0590
 3373OCT     C2 6746  23.608  13.832  23.584 -0.4358  0.6116  0.1553
 3374OCT     C1 6747   0.795  15.961  21.631 -0.0466 -0.4012  0.3299
 3374OCT     C2 6748   0.814  15.969  21.134 -0.1482  0.2056 -0.0092
 3375OCT     C1 6749   6.084  18.525   6.373 -0.2261  0.0815 -0.1261
 3375OCT     C2 6750   6.182  18.369   6.782 -0.2823  0.1342  0.1455
 3376OCT     C1 6751   9.379   8.452   0.749  0.0089  0.2251  0.0371
 3376OCT     C2 6752   9.282   8.775   1.049 -0.1973  0.2503 -0.0740
 3377OCT     C1 6753  16.749   1.499  16.729 -0.1025 -0.1196  0.1794
 3377OCT     C2 6754  16.578   1.523  16.286 -0.0986 -0.0017 -0.3541
 3378OCT     C1 6755   9.961   3.278   9.324 -0.1639 -0.1366 -0.0169
 3378OCT     C2 6756   9.979   3.653   9.544  0.3814 -0.0391 -0.2335
 3379OCT     C1 6757   3.684  15.662   7.402 -0.0444  0.3310  0.2171
 3379OCT     C2 6758   3.545  15.888   7.004  0.1171  0.1660 -0.0278
 3380OCT     C1 6759  11.432  11.327  15.386 -0.0617 -0.1435 -0.1077
 3380OCT     C2 6760  11.737  11.247  15.735  0.1093 -0.1218  0.1216
 3381OCT     C1 6761  16.513   4.681   9.211 -0.1341  0.0894 -0.2851
 3381OCT     C2 6762  16.323   4.991   8.919  0.4245 -0.0426 -0.1393
 3382OCT     C1 6763  23.323   9.361   4.399  0.1414 -0.2053  0.1795
 3382OCT     C2 6764  23.104   9.456   4.740 -0.0739  0.3012 -0.0972
 3383OCT     C1 6765   8.318  13.877  23.691  0.1354 -0.0972 -0.0557
 3383OCT     C2 6766   8.009  13.509  23.491  0.3215  0.1007  0.0725
 3384OCT     C1 6767   9.990   0.367   7.236 -0.2063 -0.1309  0.1094
 3384OCT     C2 6768   9.953   0.789   7.480  0.0711 -0.3273  0.1246
 3385OCT     C1 6769  14.717  22.148   6.832 -0.0248  0.3123  0.2364
 3385OCT     C2 6770  14.427  22.102   7.219  0.0103 -0.3498 -0.2037
 3386OCT     C1 6771  19.908  15.794  18.297 -0.0129  0.2458  0.0291
 3386OCT     C2 6772  20.255  15.657  18.063  0.1360  0.0029 -0.4246
 3387OCT     C1 6773  11.188   3.768  21.738 -0.0556  0.3580 -0.3052
 3387OCT     C2 6774  11.354   3.389  22.027 -0.0649 -0.0228 -0.3669
 3388OCT     C1 6775   7.274  17.207  21.512  0.0819 -0.2804  0.0133
 3388OCT     C2 6776   7.336  17.225  21.988 -0.5389 -0.1291 -0.2301
 3389OCT     C1 6777   0.210   2.481  10.111 -0.1917 -0.2507 -0.1027
 3389OCT     C2 6778  23.701   2.819   9.877  0.3648 -0.1768  0.1168
 3390OCT     C1 6779  22.695  20.756   5.492  0.4240  0.1017  0.2103
 3390OCT     C2 6780  22.514  20.557   5.856  0.0204  0.0030 -0.0634
 3391OCT     C1 6781   2.954  18.709   5.084  0.1706 -0.2468  0.0192
 3391OCT     C2 6782   3.075  18.299   5.265  0.0365 -0.3087  0.3266
 3392OCT     C1 6783  19.691   1.104   9.352 -0.1198 -0.1637 -0.0249
 3392OCT     C2 6784  20.082   0.883   9.294  0.2256 -0.0800 -0.2910
 3393OCT     C1 6785   6.128  20.832   1.677 -0.0157  0.2239  0.0164
 3393OCT     C2 6786   6.296  21.146   1.973  0.1736 -0.3767  0.0107
 3394OCT     C1 6787  12.134   0.984   3.557 -0.1529 -0.0397  0.2497
 3394OCT     C2 6788  12.129   0.757   3.153 -0.2212  0.0152  0.4292
 3395OCT     C1 6789   7.079   6.353   1.870 -0.3628 -0.0515  0.1789
 3395OCT     C2 6790   7.082   6.689   2.138 -0.1479  0.0937  0.2716
 3396OCT     C1 6791  21.191  15.075  12.574  0.0728 -0.1458  0.0205
 3396OCT     C2 6792  21.108  15.165  12.115 -0.0773 -0.0943  0.0774
 3397OCT     C1 6793  18.991  21.585  13.464 -0.0603  0.1838 -0.3758
 3397OCT     C2 6794  18.964  21.659  13.938  0.0680  0.3518 -0.1218
 3398OCT     C1 6795  14.287  12.622  19.726 -0.3628  0.4672  0.2090
 3398OCT     C2 6796  14.417  13.027  19.572 -0.2493  0.2251  0.2729
 3399OCT     C1 6797  18.861  13.756  10.166 -0.1431  0.7634  0.2942
 3399OCT     C2 6798  19.280  13.945  10.078 -0.1058  0.3200 -0.0168
 3400OCT     C1 6799   6.764  23.367  20.016  0.0600  0.2478 -0.1065
 3400OCT     C2 6800   7.025  23.168  20.368  0.2354 -0.1909  0.0860
 3401OCT     C1 6801  10.404   1.667   6.567  0.1253  0.2344  0.0387
 3401OCT     C2 6802  10.143   2.033   6.690  0.1085 -0.2074 -0.0888
 3402OCT     C1 6803  10.952  16.356  18.063 -0.3930  0.2147 -0.3107
 3402OCT     C2 6804  10.647  16.702  17.989  0.1070 -0.3160  0.0167
 3403OCT     C1 6805  13.440  19.968  14.373 -0.2178 -0.0124  0.1353
 3403OCT     C2 6806  13.781  19.802  14.554 -0.1134  0.0939 -0.0476
 3404OCT     C1 6807   7.171  15.202  16.759 -0.0207  0.1086  0.2959
 3404OCT     C2 6808   7.283  14.902  16.470  0.0136  0.2499  0.0686
 3405OCT     C1 6809  18.074   7.266  18.842  0.0413  0.0525 -0.1187
 3405OCT     C2 6810  18.156   7.725  18.788  0.3060  0.0706 -0.3346
 3406OCT     C1 6811   8.056  16.422  17.489 -0.2930 -0.2436 -0.0135
 3406OCT     C2 6812   7.947  16.883  17.603 -0.1233 -0.1032  0.3345
 3407OCT     C1 6813   4.881  18.325  15.770 -0.2220  0.0403  0.3741
 3407OCT     C2 6814   4.619  18.047  15.956  0.1429 -0.0420  0.3494
 3408OCT     C1 6815  17.654   3.746  17.572 -0.1260 -0.1651  0.2515
 3408OCT     C2 6816  17.477   3.383  17.272 -0.1891 -0.0820 -0.0783
 3409OCT     C1 6817   2.253  13.575  17.771 -0.1483 -0.1551  0.0694
 3409OCT     C2 6818   2.091  13.189  18.016 -0.5855 -0.3682 -0.1382
 3410OCT     C1 6819  17.003  15.022   2.186  0.0413 -0.2111 -0.1403
 3410OCT     C2 6820  17.374  14.760   2.244  0.0217  0.1241  0.1455
 3411OCT     C1 6821  23.576  11.645  14.389  0.2157  0.0748  0.2450
 3411OCT     C2 6822  23.318  11.397  14.648  0.1288 -0.2614  0.1649
 3412OCT     C1 6823  20.566   0.048  16.506 -0.2671  0.1230  0.2387
 3412OCT     C2 6824  20.860   0.302  16.250 -0.0334 -0.1223  0.0530
 3413OCT     C1 6825  18.589   3.885   3.135 -0.0194  0.1321 -0.1013
 3413OCT     C2 6826  18.435   3.525   3.430  0.0240 -0.2106 -0.0019
 3414OCT     C1 6827   0.484   1.068  15.605 -0.0865 -0.0307 -0.0364
 3414OCT     C2 6828   0.853   1.320  15.833 -0.1357  0.3550 -0.0867
 3415OCT     C1 6829   8.863  15.912  10.347 -0.0092 -0.0268  0.0909
 3415OCT     C2 6830   8.731  16.266  10.047 -0.0006 -0.0443 -0.0801
 3416OCT     C1 6831   1.476  20.372   7.167 -0.3281 -0.0993 -0.0311
 3416OCT     C2 6832   1.201  20.697   7.378 -0.1541 -0.3325 -0.0946
 3417OCT     C1 6833   6.574   4.244   3.827  0.0657  0.3135 -0.0574
 3417OCT     C2 6834   6.368   4.433   3.483 -0.0901 -0.2631  0.0907
 3418OCT     C1 6835   9.507  20.110  19.974 -0.4384 -0.0097  0.0195
 3418OCT     C2 6836   9.198  19.916  19.711  0.3107 -0.1375 -0.2352
 3419OCT     C1 6837  12.192  17.852  21.103  0.0805 -0.2562  0.2046
 3419OCT     C2 6838  11.783  17.826  20.800  0.0878 -0.1011  0.0610
 3420OCT     C1 6839   6.237  12.889  11.217 -0.1741  0.1422  0.2372
 3420OCT     C2 6840   6.551  12.547  11.239  0.1709 -0.1512  0.2631
 3421OCT     C1 6841  20.789  13.004  18.362 -0.1980 -0.0065 -0.0871
 3421OCT     C2 6842  20.422  13.149  18.027 -0.1642  0.0626 -0.0254
 3422OCT     C1 6843   7.643  20.277  14.638  0.1526 -0.2861  0.1119
 3422OCT     C2 6844   7.178  20.214  14.522  0.1411  0.4013 -0.1010
 3423OCT     C1 6845   9.096  20.317   0.700 -0.0556 -0.3340  0.1045
 3423OCT     C2 6846   9.264  20.278   0.276 -0.1276  0.1529 -0.1865
 3424OCT     C1 6847   0.609   6.056  15.063 -0.2895  0.0716 -0.0974
 3424OCT     C2 6848   0.993   6.340  14.952 -0.0310 -0.0004 -0.2037
 3425OCT     C1 6849  17.862   2.261   9.208 -0.2015  0.4104  0.1142
 3425OCT     C2 6850  17.527   2.581   9.322 -0.0605  0.0969 -0.1353
 3426OCT     C1 6851   5.328   3.650  13.386  0.3375 -0.4207  0.3062
 3426OCT     C2 6852   5.695   3.413  13.401  0.4178 -0.0355  0.1016
 3427OCT     C1 6853  21.561   0.573  14.118  0.0647 -0.2335 -0.1625
 3427OCT     C2 6854  21.546   0.986  14.350  0.1881 -0.2290  0.0234
 3428OCT     C1 6855  15.237  17.504  11.208 -0.1640 -0.0042  0.2472
 3428OCT     C2 6856  15.339  17.113  10.908  0.1486  0.0592 -0.1094
 3429OCT     C1 6857   8.575  13.638   8.527  0.0282 -0.2032 -0.3371
 3429OCT     C2 6858   8.770  13.779   8.925 -0.1029  0.2371 -0.1951
 3430OCT     C1 6859  17.998  12.369  12.790 -0.3556  0.3880 -0.1159
 3430OCT     C2 6860  18.459  12.378  12.676  0.0540  0.2550  0.1311
 3431OCT     C1 6861  21.248   6.769  18.032 -0.1943 -0.3579 -0.2089
 3431OCT     C2 6862  21.225   6.799  17.598  0.0427 -0.4139 -0.1482
 3432OCT     C1 6863  11.244   9.230   1.391 -0.3323  0.2043  0.0416
 3432OCT     C2 6864  11.237   9.222   1.840 -0.0853  0.3256 -0.3909
 3433OCT     C1 6865  17.331  14.631   9.206 -0.1380 -0.2548 -0.1063
 3433OCT     C2 6866  17.445  15.036   9.211 -0.0824  0.0707 -0.2094
 3434OCT     C1 6867   1.200   8.726   2.540 -0.0372 -0.0370  0.0877
 3434OCT     C2 6868   1.451   8.452   2.844 -0.2205 -0.1852  0.3037
 3435OCT     C1 6869   1.934  15.780  11.027  0.0372 -0.0944  0.3016
 3435OCT     C2 6870   1.902  15.578  11.407 -0.0924  0.2600 -0.1259
 3436OCT     C1 6871  21.789  18.616   0.638  0.1548  0.0768  0.4868
 3436OCT     C2 6872  21.870  18.865   1.046  0.1133 -0.1773 -0.2029
 3437OCT     C1 6873  15.645  11.729   2.265  0.1908 -0.0571  0.2953
 3437OCT     C2 6874  15.466  11.334   2.120 -0.0943  0.0404 -0.0098
 3438OCT     C1 6875  12.871  16.939  22.010 -0.2992 -0.0279 -0.1820
 3438OCT     C2 6876  12.438  16.882  22.087  0.2074 -0.2528  0.0429
 3439OCT     C1 6877   1.549  22.578  20.675  0.2285 -0.0825  0.5445
 3439OCT     C2 6878   1.380  22.566  21.097  0.0256  0.0234 -0.3002
 3440OCT     C1 6879  17.743   9.914  11.716  0.0900 -0.1189 -0.1269
 3440OCT     C2 6880  17.787   9.486  11.848 -0.5161  0.0862 -0.5126
 3441OCT     C1 6881   8.205  14.731  14.649  0.0915 -0.2064 -0.1434
 3441OCT     C2 6882   8.361  14.944  15.011  0.0897 -0.0422  0.1831
 3442OCT     C1 6883  12.011  18.601  12.601  0.0969  0.2272  0.1506
 3442OCT     C2 6884  12.265  18.868  12.930 -0.2350 -0.0033  0.1194
 3443OCT     C1 6885  13.278   8.052  22.970  0.0340  0.3828  0.2003
 3443OCT     C2 6886  12.819   7.846  22.972 -0.0037  0.1309  0.0368
 3444OCT     C1 6887   9.285   1.161   4.842  0.1648  0.1197 -0.0885
 3444OCT     C2 6888   9.328   0.692   4.960  0.0044 -0.2707 -0.1986
 3445OCT     C1 6889  14.715  12.617  18.940  0.0731  0.0541  0.0740
 3445OCT     C2 6890  14.848  12.884  19.306 -0.3392 -0.0687 -0.1914
 3446OCT     C1 6891   2.128  21.821  18.210 -0.0900 -0.1968 -0.1463
 3446OCT     C2 6892   2.009  21.530  18.554 -0.2461 -0.0478  0.0241
 3447OCT     C1 6893  21.380   3.291  16.839  0.0101  0.0870 -0.0988
 3447OCT     C2 6894  21.219   3.785  16.639 -0.2835  0.0532 -0.2076
 3448OCT     C1 6895  14.429   8.104  13.169 -0.3355  0.0416  0.1676
 3448OCT     C2 6896  13.924   8.232  13.078 -0.2913 -0.2452  0.1023
 3449OCT     C1 6897   3.488  18.555  16.173  0.0344  0.2110 -0.4106
 3449OCT     C2 6898   3.724  18.166  16.379  0.0025  0.2189  0.2795
 3450OCT     C1 6899   7.678   9.711  17.483  0.1455 -0.1120  0.0367
 3450OCT     C2 6900   7.606   9.813  17.049 -0.1711 -0.1700 -0.1728
 3451OCT     C1 6901   6.342  10.377   2.053 -0.0090  0.2996 -0.0307
 3451OCT     C2 6902   5.997  10.049   1.927 -0.4179  0.0700 -0.0270
 3452OCT     C1 6903   3.754   7.726  16.417 -0.1212 -0.1629 -0.0494
 3452OCT     C2 6904   3.701   7.389  16.754  0.2721 -0.0194 -0.0158
 3453OCT     C1 6905   6.925  20.391   2.369 -0.0180 -0.1391 -0.2095
 3453OCT     C2 6906   7.082  20.373   1.946 -0.2229  0.1034 -0.3282
 3454OCT     C1 6907  13.782   7.760   8.832  0.1935 -0.0306 -0.0557
 3454OCT     C2 6908  13.347   7.801   8.668  0.2241 -0.0853 -0.1146
 3455OCT     C1 6909  11.350  22.666   9.709 -0.0321  0.4101  0.0644
 3455OCT     C2 6910  11.139  22.454   9.339 -0.0334  0.0056  0.0328
 3456OCT     C1 6911   8.274  17.368   7.875 -0.1303  0.0352 -0.1912
 3456OCT     C2 6912   8.144  17.505   8.277  0.0411 -0.1682  0.1452
 3457OCT     C1 6913   9.966   8.456  13.685 -0.4238 -0.0463 -0.3015
 3457OCT     C2 6914   9.988   7.976  13.457 -0.1853  0.1047 -0.2601
 3458OCT     C1 6915   2.980  20.526   8.564  0.0081  0.2756 -0.1520
 3458OCT     C2 6916   3.354  20.282   8.412  0.2516  0.0648 -0.1730
 3459OCT     C1 6917  10.952   4.761  18.456  0.0123  0.0246  0.3676
 3459OCT     C2 6918  10.540   4.528  18.454 -0.2608  0.2834 -0.0848
 3460OCT     C1 6919  15.766  14.673  22.795  0.1230  0.0650  0.1188
 3460OCT     C2 6920  15.869  15.004  22.506  0.1140  0.3257  0.0466
 3461OCT     C1 6921  15.359   5.207  17.582  0.0205  0.2554  0.0522
 3461OCT     C2 6922  14.992   5.137  17.253  0.3338  0.0237 -0.0042
 3462OCT     C1 6923  13.578  20.395   9.620 -0.2011 -0.1848  0.1301
 3462OCT     C2 6924  13.996  20.675   9.473 -0.3262 -0.0476 -0.3358
 3463OCT     C1 6925  21.691  15.463  13.343  0.1755  0.0551 -0.1626
 3463OCT     C2 6926  22.033  15.804  13.377  0.3179  0.0240  0.1061
 3464OCT     C1 6927  22.859  16.662  23.310 -0.0761 -0.2074  0.0902
 3464OCT     C2 6928  22.653  16.926  23.573  0.3218  0.3335 -0.2834
 3465OCT     C1 6929   8.732   0.313   8.942  0.2177 -0.0357  0.0985
 3465OCT     C2 6930   8.441   0.573   8.718 -0.1189 -0.1413  0.0942
 3466OCT     C1 6931  16.887  14.784   8.983 -0.0180 -0.2450 -0.0286
 3466OCT     C2 6932  16.960  14.879   9.426 -0.1189  0.2482  0.0002
 3467OCT     C1 6933   1.077  18.412   9.052 -0.1250  0.0768  0.1971
 3467OCT     C2 6934   1.152  18.706   8.701  0.0371  0.0350 -0.0414
 3468OCT     C1 6935   6.618   1.469   7.394  0.5244  0.4312  0.0651
 3468OCT     C2 6936   6.341   1.098   7.456  0.1402 -0.0886  0.0482
 3469OCT     C1 6937  21.998   2.110  15.572  0.1387  0.2722  0.3018
 3469OCT     C2 6938  22.172   2.442  15.418 -0.1152 -0.0310 -0.0869
 3470OCT     C1 6939   9.840   5.649  15.822 -0.3608 -0.1390  0.2195
 3470OCT     C2 6940   9.690   5.421  16.212 -0.1295 -0.0743  0.1733
 3471OCT     C1 6941  20.095   2.700   3.149 -0.0612  0.0922  0.1545
 3471OCT     C2 6942  19.883   3.034   3.442 -0.0014 -0.0317  0.3357
 3472OCT     C1 6943   6.776   6.973  19.773  0.1791 -0.2556  0.0346
 3472OCT     C2 6944   6.642   6.868  20.231  0.0330 -0.4277  0.1415
 3473OCT     C1 6945  16.810   6.908   2.988 -0.3300 -0.1630  0.2490
 3473OCT     C2 6946  16.380   6.666   2.915 -0.2058  0.1718  0.2641
 3474OCT     C1 6947   8.852   5.367  15.850 -0.1543 -0.2747 -0.2654
 3474OCT     C2 6948   8.868   5.016  15.522  0.0904 -0.0046  0.2210
 3475OCT     C1 6949   0.321   3.210  11.118 -0.0961  0.0424  0.2519
 3475OCT     C2 6950   0.127   3.373  10.710 -0.1212  0.3847  0.1946
 3476OCT     C1 6951   2.710   0.664   9.173 -0.0249  0.2770  0.0815
 3476OCT     C2 6952   2.677   0.393   9.549  0.2052  0.0436 -0.3690
 3477OCT     C1 6953   1.367   6.268  18.346  0.1531 -0.2612 -0.3022
 3477OCT     C2 6954   1.592   6.468  18.661 -0.2880  0.1923 -0.5132
 3478OCT     C1 6955   8.015  12.975   2.236  0.0673  0.2578 -0.1060
 3478OCT     C2 6956   7.713  13.144   2.596 -0.3050 -0.0631 -0.2093
 3479OCT     C1 6957  12.092   3.787   1.791 -0.0265 -0.1129 -0.1445
 3479OCT     C2 6958  12.477   3.775   1.603 -0.0720 -0.2639 -0.2585
 3480OCT     C1 6959   0.922  11.197  23.431 -0.0978  0.1097  0.2681
 3480OCT     C2 6960   1.168  10.851  23.133  0.0585 -0.3342  0.2307
 3481OCT     C1 6961   8.505  22.484  21.975 -0.0665  0.0693  0.1717
 3481OCT     C2 6962   8.566  22.785  21.592 -0.0339  0.1328 -0.2043
 3482OCT     C1 6963   7.301   2.074   9.907  0.2130 -0.0721  0.0861
 3482OCT     C2 6964   7.205   1.625   9.874 -0.0202 -0.1152 -0.0081
 3483OCT     C1 6965  13.967  13.515   7.141  0.1064 -0.2490  0.0985
 3483OCT     C2 6966  14.429  13.443   6.970  0.0438 -0.2506  0.0845
 3484OCT     C1 6967   1.400  16.301   9.406 -0.2023  0.2515 -0.1786
 3484OCT     C2 6968   1.811  16.498   9.434  0.1525 -0.3010 -0.1087
 3485OCT     C1 6969  17.851  12.807  21.732  0.3391 -0.0538 -0.4141
 3485OCT     C2 6970  17.758  12.519  21.322 -0.0187 -0.1062 -0.4944
 3486OCT     C1 6971   7.221  16.542   5.275 -0.2055  0.5139  0.2342
 3486OCT     C2 6972   6.788  16.523   5.059  0.0081  0.0784  0.1125
 3487OCT     C1 6973  17.806  19.072   4.419  0.1190 -0.1087 -0.0276
 3487OCT     C2 6974  17.553  18.871   4.752 -0.2262  0.1226 -0.1710
 3488OCT     C1 6975  17.549  12.319  20.074  0.3041 -0.0729  0.0927
 3488OCT     C2 6976  17.763  12.374  19.661 -0.1175 -0.0906 -0.3012
 3489OCT     C1 6977  23.611   6.566   2.286 -0.2283  0.5086  0.4090
 3489OCT     C2 6978  23.480   6.239   2.018  0.0191  0.1597 -0.2779
 3490OCT     C1 6979  20.260  10.902  23.305  0.0251  0.1379  0.0369
 3490OCT     C2 6980  20.373  10.515  23.092  0.0103  0.0245  0.0404
 3491OCT     C1 6981  15.558  10.730   7.346 -0.4684  0.1321 -0.0890
 3491OCT     C2 6982  15.810  10.676   7.755  0.1110 -0.0640  0.3139
 3492OCT     C1 6983  13.049   5.270   9.198 -0.0719  0.1300  0.0892
 3492OCT     C2 6984  13.022   5.543   8.853 -0.0919  0.0789 -0.1093
 3493OCT     C1 6985  11.822  11.196   8.321 -0.1902  0.0639  0.2165
 3493OCT     C2 6986  11.340  11.306   8.393 -0.1556 -0.1545 -0.4021
 3494OCT     C1 6987  11.258   3.351   7.880  0.0681  0.5856 -0.0362
 3494OCT     C2 6988  11.658   3.542   7.803 -0.1311 -0.2841  0.4557
 3495OCT     C1 6989   8.496  22.647   9.725  0.1712  0.0518  0.2888
 3495OCT     C2 6990   8.080  22.865   9.855  0.1956 -0.3129 -0.1137
 3496OCT     C1 6991   7.682   2.037  10.649  0.1492  0.0823  0.1974
 3496OCT     C2 6992   8.081   2.242  10.463  0.2878 -0.1368  0.1585
 3497OCT     C1 6993  20.704  17.064   4.234 -0.1369 -0.2032 -0.0208
 3497OCT     C2 6994  20.293  17.232   4.277 -0.2016 -0.1698  0.0687
 3498OCT     C1 6995   5.810  18.871   1.097 -0.4313 -0.1215 -0.0723
 3498OCT     C2 6996   5.442  18.834   0.891 -0.2562  0.1017  0.2419
 3499OCT     C1 6997  11.641  22.388   9.091  0.0556 -0.0275 -0.3219
 3499OCT     C2 6998  11.757  22.492   9.510 -0.4116  0.0884 -0.1283
 3500OCT     C1 6999  23.697   3.941   4.828  0.0451 -0.2789 -0.0900
 3500OCT     C2 7000  23.414   4.201   5.145  0.1813  0.0389  0.1272
 3501OCT     C1 7001  21.032   6.208  21.064 -0.0598 -0.1292 -0.1792
 3501OCT     C2 7002  20.646   6.259  20.779  0.0455 -0.1303 -0.1586
 3502OCT     C1 7003  13.479   5.992  19.327 -0.3247  0.2363 -0.0594
 3502OCT     C2 7004  13.415   5.516  19.395 -0.0580  0.0425  0.3180
 3503OCT     C1 7005   8.971  22.534  21.977 -0.1369  0.1643 -0.2299
 3503OCT     C2 7006   9.277  22.312  22.196 -0.5309 -0.1293  0.0345
 3504OCT     C1 7007  12.304  17.083   1.312  0.1204 -0.1967  0.0339
 3504OCT     C2 7008  12.765  16.984   1.389  0.2417 -0.0463 -0.3672
 3505OCT     C1 7009   9.537  17.427  14.009 -0.2232 -0.4155 -0.1685
 3505OCT     C2 7010   9.498  17.491  14.490  0.0821 -0.2072 -0.1753
 3506OCT     C1 7011   7.581  21.387  10.725 -0.0004  0.3299  0.1030
 3506OCT     C2 7012   7.564  21.401  10.277 -0.3656  0.3318  0.1639
 3507OCT     C1 7013   5.108   5.598  18.682  0.2428 -0.0801 -0.1310
 3507OCT     C2 7014   4.907   5.528  19.032  0.0167 -0.0658 -0.1624
 3508OCT     C1 7015  22.093   4.137  18.231 -0.2166  0.2900  0.0553
 3508OCT     C2 7016  21.839   4.530  18.164  0.0432  0.1362  0.0256
 3509OCT     C1 7017   7.641   9.922   9.735 -0.2535  0.0774  0.1983
 3509OCT     C2 7018   7.554  10.127  10.132  0.2006  0.1270 -0.4017
 3510OCT     C1 7019  15.865  23.229  19.226  0.3877 -0.0991  0.1207
 3510OCT     C2 7020  15.980  22.850  18.934 -0.3742  0.2496  0.0363
 3511OCT     C1 7021  17.990   0.067   6.865 -0.2192 -0.1604  0.4631
 3511OCT     C2 7022  17.571   0.225   6.738 -0.1539 -0.0924  0.0817
 3512OCT     C1 7023   4.420  17.245   9.937  0.2629  0.1127 -0.1611
 3512OCT     C2 7024   4.699  17.126  10.250 -0.3824  0.1150 -0.0368
 3513OCT     C1 7025   3.408   8.940   4.750 -0.2003  0.3188  0.1940
 3513OCT     C2 7026   3.862   8.846   4.747 -0.3577  0.0451 -0.2366
 3514OCT     C1 7027  14.184  19.545   3.702 -0.0903 -0.1958  0.1716
 3514OCT     C2 7028  13.758  19.366   3.757  0.1692  0.0407 -0.1037
 3515OCT     C1 7029  19.547  15.365  13.245 -0.0630 -0.2038  0.1034
 3515OCT     C2 7030  19.671  15.788  13.467 -0.1705 -0.0124 -0.1227
 3516OCT     C1 7031   6.555   1.256   7.936 -0.0965  0.3371  0.3696
 3516OCT     C2 7032   6.594   1.005   8.321  0.0944  0.3117 -0.1529
 3517OCT     C1 7033  18.294   5.820  11.316 -0.2914 -0.1133  0.0906
 3517OCT     C2 7034  18.031   6.172  11.288 -0.5307  0.3661  0.0833
 3518OCT     C1 7035  10.103   1.712  18.291  0.3656 -0.0430 -0.1964
 3518OCT     C2 7036   9.823   1.584  17.892 -0.0029 -0.0299  0.3944
 3519OCT     C1 7037   8.661  16.113  16.974  0.1190  0.2251  0.4214
 3519OCT     C2 7038   8.389  16.482  17.103 -0.4241 -0.0516  0.1296
 3520OCT     C1 7039  21.634  12.978  16.829 -0.0503 -0.1511 -0.1326
 3520OCT     C2 7040  21.525  13.421  17.004  0.0221 -0.0571  0.2438
 3521OCT     C1 7041   4.869   6.654  14.831 -0.0127  0.0427 -0.5324
 3521OCT     C2 7042   4.838   6.762  14.364  0.0638 -0.0150  0.2937
 3522OCT     C1 7043   3.278  20.346   6.218 -0.3343  0.3352 -0.2887
 3522OCT     C2 7044   3.592  20.519   6.440  0.0957  0.0853  0.1134
 3523OCT     C1 7045  19.114  19.198  12.324  0.1225  0.0402 -0.0841
 3523OCT     C2 7046  18.780  19.423  12.592  0.1687  0.0182 -0.0343
 3524OCT     C1 7047  22.112  18.236   1.389  0.2925  0.1118  0.6574
 3524OCT     C2 7048  21.695  18.460   1.354 -0.0027  0.0345 -0.1372
 3525OCT     C1 7049   3.793   0.981  10.541  0.1322 -0.1655 -0.0376
 3525OCT     C2 7050   3.710   0.601  10.788  0.0232 -0.0410  0.1552
 3526OCT     C1 7051   7.867  20.150   4.549  0.1848  0.2799 -0.2996
 3526OCT     C2 7052   7.872  20.265   4.973  0.3195  0.0180  0.2259
 3527OCT     C1 7053  11.914  23.361   3.584 -0.2057  0.2271  0.2581
 3527OCT     C2 7054  11.949  22.870   3.428  0.0905 -0.1547 -0.1056
 3528OCT     C1 7055  23.659  19.210  18.184  0.1814 -0.3460  0.1074
 3528OCT     C2 7056  23.689  18.988  17.771 -0.0226 -0.0268  0.2007
 3529OCT     C1 7057  10.306  15.165   5.026  0.5226  0.2746 -0.0265
 3529OCT     C2 7058   9.994  15.019   4.633  0.1654  0.4692 -0.2209
 3530OCT     C1 7059  18.707  10.282   6.574 -0.0641  0.2143  0.0932
 3530OCT     C2 7060  18.414  10.347   6.234 -0.1269 -0.1502 -0.1302
 3531OCT     C1 7061   1.351   9.714   8.735 -0.0214 -0.2692 -0.1954
 3531OCT     C2 7062   1.577   9.445   8.499  0.0724  0.3488  0.1133
 3532OCT     C1 7063   5.295   0.485  13.521 -0.0333 -0.0812 -0.0327
 3532OCT     C2 7064   5.422   0.062  13.243 -0.4620  0.0704 -0.2689
 3533OCT     C1 7065  23.128  10.171   6.693 -0.1431  0.2429 -0.5596
 3533OCT     C2 7066  23.203   9.849   6.314  0.0912  0.1810 -0.0675
 3534OCT     C1 7067  11.906   6.141   9.969 -0.2216  0.2451 -0.0656
 3534OCT     C2 7068  12.264   6.129  10.164  0.2488  0.0053  0.1671
 3535OCT     C1 7069  11.579   2.162  19.048  0.5367 -0.0464 -0.0925
 3535OCT     C2 7070  11.413   2.456  19.380 -0.0066 -0.1844 -0.1948
 3536OCT     C1 7071  20.144  11.940   6.031 -0.1069 -0.4645  0.3311
 3536OCT     C2 7072  20.455  12.259   6.115  0.1679  0.1334  0.0203
 3537OCT     C1 7073  20.860  12.111  18.146  0.3418  0.2679  0.3228
 3537OCT     C2 7074  20.981  11.746  18.398  0.3833 -0.0160 -0.1215
 3538OCT     C1 7075   0.009  22.603  17.907 -0.1101  0.1896 -0.0177
 3538OCT     C2 7076   0.094  22.171  17.794 -0.0465 -0.2788  0.0354
 3539OCT     C1 7077   1.393  21.770  21.175  0.1032  0.4161 -0.0557
 3539OCT     C2 7078   1.542  22.157  21.382 -0.0646  0.1590 -0.1623
 3540OCT     C1 7079  18.255   0.735   2.756  0.1294  0.1316  0.2717
 3540OCT     C2 7080  18.541   0.373   2.683  0.3687 -0.0409 -0.1147
 3541OCT     C1 7081  20.000   5.543   8.289  0.2663  0.1022  0.1684
 3541OCT     C2 7082  19.757   5.669   7.892  0.1044 -0.0518  0.1208
 3542OCT     C1 7083  10.921  14.802   8.926  0.0324  0.2178  0.2594
 3542OCT     C2 7084  10.577  14.686   8.633  0.1875 -0.0657  0.1393
 3543OCT     C1 7085   1.899  22.060  11.215 -0.3376  0.1333 -0.3551
 3543OCT     C2 7086   1.645  21.923  10.874  0.0471  0.0493  0.2015
 3544OCT     C1 7087   0.188  13.116  15.786 -0.2034  0.1480 -0.0059
 3544OCT     C2 7088   0.621  13.135  15.993  0.0564  0.0737  0.2372
 3545OCT     C1 7089   8.814   3.763  18.384  0.4037  0.1076  0.0000
 3545OCT     C2 7090   8.766   3.278  18.503  0.0971 -0.0799 -0.0743
 3546OCT     C1 7091   8.802   2.186   2.264 -0.0753 -0.0507  0.0145
 3546OCT     C2 7092   8.449   2.287   2.556 -0.0417  0.0129  0.0249
 3547OCT     C1 7093   3.686  12.943   1.924 -0.0027 -0.0015  0.0548
 3547OCT     C2 7094   3.852  13.139   2.360 -0.1037  0.1811  0.2409
 3548OCT     C1 7095  17.289  12.943   3.390  0.0856  0.1441  0.0964
 3548OCT     C2 7096  17.565  12.697   3.679  0.3130 -0.0834 -0.1169
 3549OCT     C1 7097   1.295   0.786   3.403 -0.0323  0.1904  0.1946
 3549OCT     C2 7098   1.433   0.995   2.976  0.0415  0.2213  0.0092
 3550OCT     C1 7099  16.627  23.301   6.862  0.2074  0.1407 -0.0395
 3550OCT     C2 7100  16.767  22.953   6.594 -0.2950  0.0544  0.6162
 3551OCT     C1 7101  20.931  19.745  11.011 -0.0208 -0.3930  0.3259
 3551OCT     C2 7102  20.603  19.943  11.294  0.1923  0.1178  0.0747
 3552OCT     C1 7103  18.457   5.478  15.534  0.5424 -0.1073  0.2394
 3552OCT     C2 7104  18.251   5.452  15.970  0.1437  0.1780 -0.1515
 3553OCT     C1 7105  22.291   2.916   4.556 -0.1139 -0.2002  0.0194
 3553OCT     C2 7106  22.508   3.202   4.287 -0.1502  0.1959 -0.2515
 3554OCT     C1 7107  11.973   4.495  22.239  0.3135 -0.0252  0.2173
 3554OCT     C2 7108  11.740   4.823  22.473  0.2276 -0.0646 -0.4419
 3555OCT     C1 7109  11.177  18.576   4.059 -0.1188 -0.0461 -0.1823
 3555OCT     C2 7110  11.039  19.071   3.929 -0.2642 -0.1213  0.4212
 3556OCT     C1 7111  10.819   8.658   7.487  0.2657  0.1212 -0.4641
 3556OCT     C2 7112  11.249   8.473   7.590  0.2599 -0.0405 -0.1131
 3557OCT     C1 7113  23.621  12.735   5.587  0.0295 -0.0535  0.0427
 3557OCT     C2 7114   0.054  12.361   5.701  0.0688  0.0074 -0.0223
 3558OCT     C1 7115   8.496   4.238   5.346  0.0210  0.3554 -0.0097
 3558OCT     C2 7116   8.955   4.257   5.480  0.0520  0.2099  0.1828
 3559OCT     C1 7117  19.114   5.299   2.010 -0.2228 -0.0096 -0.2350
 3559OCT     C2 7118  18.786   5.421   2.268 -0.0286 -0.0306  0.0215
 3560OCT     C1 7119   8.933   9.066   0.911  0.0408 -0.2356  0.0008
 3560OCT     C2 7120   9.101   8.908   0.539  0.0679  0.1106  0.3285
 3561OCT     C1 7121   7.139   0.035  22.431  0.2783 -0.2040  0.1574
 3561OCT     C2 7122   7.387   0.427  22.226  0.4572  0.1125  0.1269
 3562OCT     C1 7123   5.133  15.030   8.832 -0.0913  0.0130 -0.1297
 3562OCT     C2 7124   5.401  14.903   9.164  0.3160 -0.3589 -0.1196
 3563OCT     C1 7125   6.496  22.689  22.492 -0.2681  0.0168 -0.0827
 3563OCT     C2 7126   6.643  22.453  22.134 -0.1612 -0.2177 -0.4060
 3564OCT     C1 7127  10.670   3.834   5.096 -0.0056 -0.1111  0.1586
 3564OCT     C2 7128  10.241   3.815   5.263 -0.3533 -0.1091  0.2319
 3565OCT     C1 7129  13.167  15.107   4.769 -0.1418  0.2659 -0.1696
 3565OCT     C2 7130  12.940  14.789   5.022 -0.1715  0.0648  0.2251
 3566OCT     C1 7131   5.406   6.475  10.050 -0.0354  0.0555  0.0349
 3566OCT     C2 7132   5.820   6.267  10.201 -0.1271  0.0941  0.3207
 3567OCT     C1 7133   8.500  18.212   0.708  0.1608 -0.2227 -0.1350
 3567OCT     C2 7134   8.116  18.289   0.417 -0.1087  0.0010  0.2254
 3568OCT     C1 7135  17.617   5.399  10.856 -0.1358 -0.1637  0.1856
 3568OCT     C2 7136  17.453   5.621  10.496 -0.0331 -0.0431  0.0984
 3569OCT     C1 7137   0.617  12.264  13.045 -0.1925 -0.4818  0.1932
 3569OCT     C2 7138   0.607  11.816  13.147 -0.3995 -0.1634 -0.4670
 3570OCT     C1 7139   4.978  20.498   8.503  0.2425  0.2603  0.3960
 3570OCT     C2 7140   5.431  20.416   8.635 -0.3318 -0.1428 -0.1568
 3571OCT     C1 7141   1.839  18.805   6.889  0.3075 -0.1653 -0.1330
 3571OCT     C2 7142   1.875  18.425   6.682 -0.1408  0.2259 -0.2615
 3572OCT     C1 7143  10.790  21.579  16.128 -0.2734  0.3164  0.2214
 3572OCT     C2 7144  10.376  21.587  16.268 -0.3126 -0.0454  0.1333
 3573OCT     C1 7145  13.619   8.282   7.109  0.1506 -0.0235  0.2131
 3573OCT     C2 7146  13.541   7.888   6.798 -0.0077 -0.1700  0.1651
 3574OCT     C1 7147   2.067  15.105  19.697  0.0284 -0.0358  0.1694
 3574OCT     C2 7148   1.869  14.737  19.996 -0.1343  0.0173  0.0550
 3575OCT     C1 7149  23.181  13.868  16.948 -0.1507 -0.0719  0.0315
 3575OCT     C2 7150  23.267  13.574  17.320  0.1627  0.0565 -0.1105
 3576OCT     C1 7151   7.388  14.899  23.035 -0.1553 -0.5934  0.1865
 3576OCT     C2 7152   6.894  14.929  23.114  0.3409  0.2854  0.1637
 3577OCT     C1 7153  23.100  19.337   0.846 -0.1795  0.1301 -0.1608
 3577OCT     C2 7154  23.181  19.508   0.433  0.0084  0.1334 -0.0533
 3578OCT     C1 7155   5.099  18.403   5.350 -0.3029 -0.1230  0.3854
 3578OCT     C2 7156   5.222  18.237   5.763  0.2345  0.1155 -0.1463
 3579OCT     C1 7157   8.187  14.155  10.176  0.0568  0.2049 -0.0780
 3579OCT     C2 7158   7.861  14.056  10.489  0.0968 -0.0272 -0.1629
 3580OCT     C1 7159   3.566   4.498   6.979  0.0039 -0.1106  0.0778
 3580OCT     C2 7160   3.171   4.522   7.177 -0.0444  0.1932 -0.3500
 3581OCT     C1 7161   0.247  16.327  10.082 -0.2407  0.3961  0.1768
 3581OCT     C2 7162   0.412  16.680   9.788 -0.2286  0.2990  0.2121
 3582OCT     C1 7163  20.840   6.894  12.270  0.0882 -0.0368  0.0651
 3582OCT     C2 7164  21.213   7.065  12.433  0.1021  0.0423  0.3900
 3583OCT     C1 7165  17.402  19.280  14.923  0.3062  0.2757  0.1077
 3583OCT     C2 7166  17.578  18.880  14.996 -0.1309  0.0873 -0.1645
 3584OCT     C1 7167  16.255   8.058  10.106  0.1350  0.1143  0.0324
 3584OCT     C2 7168  15.887   8.087   9.835 -0.3956  0.2623 -0.0338
 3585OCT     C1 7169  11.182   3.163  16.130 -0.1551  0.0570  0.0150
 3585OCT     C2 7170  11.382   2.848  16.429  0.0930 -0.0644 -0.3344
 3586OCT     C1 7171  18.265   0.588  17.112  0.1552  0.3043  0.3152
 3586OCT     C2 7172  18.283   0.785  16.679  0.1643  0.0208 -0.1500
 3587OCT     C1 7173   6.316  23.334   8.330  0.2477  0.1649  0.0975
 3587OCT     C2 7174   6.653  23.018   8.277 -0.1272  0.0142 -0.2284
 3588OCT     C1 7175  10.475  22.210   9.640  0.0821  0.0742 -0.2848
 3588OCT     C2 7176  10.560  22.049  10.080  0.0853 -0.0133  0.0492
 3589OCT     C1 7177  10.228  21.052  16.733 -0.0999  0.1949  0.2476
 3589OCT     C2 7178  10.455  20.677  16.928 -0.0051  0.1499 -0.3408
 3590OCT     C1 7179   8.525  13.394  23.082  0.0485 -0.1663 -0.2012
 3590OCT     C2 7180   8.320  13.805  23.155  0.1829 -0.2600 -0.1806
 3591OCT     C1 7181  13.373  16.734   9.666 -0.3253  0.3134  0.2140
 3591OCT     C2 7182  13.798  16.629   9.695 -0.2743 -0.2822  0.1069
 3592OCT     C1 7183  15.121   8.798  12.380 -0.2078 -0.0001  0.1761
 3592OCT     C2 7184  14.864   8.364  12.572  0.3505 -0.1191 -0.3522
 3593OCT     C1 7185  12.697  16.041   6.934  0.3410  0.2978 -0.2918
 3593OCT     C2 7186  12.371  16.294   7.108  0.0034 -0.0149 -0.0215
 3594OCT     C1 7187   2.268  21.980   2.327  0.1713 -0.2147 -0.4753
 3594OCT     C2 7188   1.958  22.044   2.644 -0.0599  0.0335 -0.3143
 3595OCT     C1 7189   6.856  23.190  11.156 -0.0386 -0.1361 -0.3297
 3595OCT     C2 7190   7.164  22.853  10.922 -0.1442 -0.1927  0.0362
 3596OCT     C1 7191   1.422  20.552  10.591 -0.1566  0.0801  0.2274
 3596OCT     C2 7192   1.338  20.472  10.129  0.1945 -0.2374  0.0497
 3597OCT     C1 7193  12.965  12.417   6.056 -0.1240  0.1919 -0.1240
 3597OCT     C2 7194  13.343  12.353   5.882 -0.0155 -0.3896  0.2540
 3598OCT     C1 7195  21.643  19.374   3.238 -0.1109  0.0929 -0.1691
 3598OCT     C2 7196  21.700  19.006   3.462  0.0540  0.2132 -0.2818
 3599OCT     C1 7197  22.993   8.611  16.022  0.0881 -0.2031 -0.0218
 3599OCT     C2 7198  22.745   8.819  15.699  0.1212 -0.2600  0.6113
 3600OCT     C1 7199  19.720   2.718   9.506 -0.1186  0.2488  0.2348
 3600OCT     C2 7200  19.926   2.878   9.912  0.2492  0.3438 -0.2507
 3601OCT     C1 7201  20.070   0.211   1.784 -0.0728 -0.0607  0.2684
 3601OCT     C2 7202  19.728   0.427   1.999  0.0533  0.3040 -0.1860
 3602OCT     C1 7203  14.783   7.641   8.281  0.3842  0.1668 -0.0909
 3602OCT     C2 7204  14.639   7.669   7.876  0.0354 -0.0878  0.1640
 3603OCT     C1 7205  19.274  21.846  18.619  0.2730  0.0250 -0.1466
 3603OCT     C2 7206  19.481  21.706  18.967 -0.0704 -0.1512 -0.0748
 3604OCT     C1 7207  18.185  20.030   1.859 -0.4133 -0.0342 -0.3040
 3604OCT     C2 7208  18.395  19.765   2.185  0.0160 -0.2445 -0.2211
 3605OCT     C1 7209   0.670  12.321  10.742  0.1703 -0.1354  0.0887
 3605OCT     C2 7210   0.412  12.329  10.262 -0.1298 -0.0852 -0.0056
 3606OCT     C1 7211  10.241  11.696  11.160  0.1565  0.3742  0.0878
 3606OCT     C2 7212  10.446  12.073  11.330 -0.0974 -0.0869 -0.1036
 3607OCT     C1 7213  20.834   2.431  12.467 -0.0651  0.1136  0.0123
 3607OCT     C2 7214  21.278   2.581  12.532  0.2297  0.0553 -0.1766
 3608OCT     C1 7215  23.077  16.526  10.267 -0.3079  0.0351 -0.4232
 3608OCT     C2 7216  23.093  16.901  10.013  0.1113  0.4567 -0.2290
 3609OCT     C1 7217  21.399  21.686  15.370  0.0776 -0.4542  0.1411
 3609OCT     C2 7218  20.926  21.650  15.474  0.4517  0.2445  0.0536
 3610OCT     C1 7219  17.609  14.108   4.074  0.2046  0.1808  0.1295
 3610OCT     C2 7220  17.249  14.409   4.141 -0.0798  0.0574 -0.0160
 3611OCT     C1 7221   7.840  12.383   0.545  0.3681  0.1711 -0.0047
 3611OCT     C2 7222   7.393  12.426   0.462  0.0312  0.0171 -0.0351
 3612OCT     C1 7223   1.819  18.982   2.700  0.0811 -0.0856  0.0375
 3612OCT     C2 7224   2.082  18.914   3.056  0.1429 -0.2012  0.0347
 3613OCT     C1 7225  18.830  18.477  14.411  0.0799 -0.2296 -0.2675
 3613OCT     C2 7226  19.262  18.759  14.354  0.3733  0.1114  0.0896
 3614OCT     C1 7227  20.195   0.703   5.025 -0.2448 -0.1148 -0.0148
 3614OCT     C2 7228  19.905   0.878   4.723 -0.0619 -0.0620 -0.0786
 3615OCT     C1 7229   2.287  14.318   8.659  0.1502  0.2908 -0.2538
 3615OCT     C2 7230   2.563  14.438   8.257 -0.1143 -0.0173 -0.2102
 3616OCT     C1 7231  11.888  16.241  20.621  0.3590  0.0775  0.3741
 3616OCT     C2 7232  11.605  15.894  20.764  0.1270  0.0293 -0.0732
 3617OCT     C1 7233   3.758  21.539   8.138 -0.1192 -0.2230  0.0156
 3617OCT     C2 7234   3.614  21.948   8.002  0.0892  0.2996  0.0260
 3618OCT     C1 7235  11.488   5.617  11.914 -0.3068  0.5633 -0.5455
 3618OCT     C2 7236  11.149   6.012  11.915 -0.2417  0.2257 -0.0729
 3619OCT     C1 7237  12.585   5.389  15.606 -0.1000 -0.1475  0.0981
 3619OCT     C2 7238  12.838   5.679  15.811 -0.3966  0.4838 -0.3017
 3620OCT     C1 7239  19.041  21.884  22.094  0.2919  0.1807 -0.0373
 3620OCT     C2 7240  18.792  22.275  22.101 -0.1087 -0.2317 -0.0880
 3621OCT     C1 7241   7.538   2.061  12.828 -0.1795  0.4461  0.4057
 3621OCT     C2 7242   7.767   2.447  13.057 -0.1751 -0.1844 -0.0958
 3622OCT     C1 7243  23.081  13.845   1.784  0.3011  0.1429  0.2318
 3622OCT     C2 7244  22.865  14.276   1.707  0.0099 -0.1741  0.3263
 3623OCT     C1 7245  15.790   5.902  15.177  0.2215 -0.0635  0.2238
 3623OCT     C2 7246  15.315   6.130  15.137 -0.1042 -0.5685 -0.0050
 3624OCT     C1 7247  14.233  14.293  15.735 -0.5220  0.4100  0.2881
 3624OCT     C2 7248  14.587  14.345  16.002 -0.4035 -0.2323  0.0484
 3625OCT     C1 7249  23.523  23.394  16.196 -0.1014 -0.1880  0.2459
 3625OCT     C2 7250  23.737  23.062  15.968 -0.1999 -0.2859 -0.0224
 3626OCT     C1 7251   5.057   7.778  10.451  0.2022  0.2138 -0.1203
 3626OCT     C2 7252   5.374   7.575  10.192  0.1559  0.1574 -0.0440
 3627OCT     C1 7253  16.379  23.434  17.118  0.2174  0.1461 -0.2955
 3627OCT     C2 7254  16.540  23.052  16.861 -0.1078  0.0747 -0.0518
 3628OCT     C1 7255  10.845   0.034  11.077  0.0494 -0.2233 -0.3135
 3628OCT     C2 7256  10.738  23.529  10.670 -0.3806 -0.0708  0.1909
 3629OCT     C1 7257   2.312   1.120   7.013 -0.3387  0.0763  0.2784
 3629OCT     C2 7258   2.152   1.593   6.960 -0.1128  0.2567  0.3482
 3630OCT     C1 7259  10.493  23.466   0.806  0.0053  0.2837 -0.0223
 3630OCT     C2 7260  10.748  23.708   0.513  0.0592  0.0644 -0.0861
 3631OCT     C1 7261  15.720  23.611  15.943 -0.2885 -0.0374 -0.2675
 3631OCT     C2 7262  16.084   0.148  15.983 -0.2205  0.2385 -0.0333
 3632OCT     C1 7263   9.672   9.624   3.349  0.1563  0.0279 -0.2223
 3632OCT     C2 7264   9.766   9.889   2.975 -0.0654  0.0611  0.0231
 3633OCT     C1 7265  22.357  11.895  13.147  0.2145 -0.1108  0.1543
 3633OCT     C2 7266  22.396  12.313  12.931  0.0766 -0.2640  0.0578
 3634OCT     C1 7267  19.236  20.529  16.627 -0.2429  0.0978  0.0407
 3634OCT     C2 7268  19.220  20.259  16.181  0.1100  0.5781 -0.2364
 3635OCT     C1 7269   9.863   3.193   6.312 -0.1794  0.4469  0.0964
 3635OCT     C2 7270   9.646   2.983   5.917 -0.0339 -0.0159  0.3778
 3636OCT     C1 7271   4.675  18.233  11.271  0.2090 -0.0577 -0.0487
 3636OCT     C2 7272   4.993  18.178  11.608 -0.0159  0.2265 -0.2957
 3637OCT     C1 7273  19.893  13.698   6.219 -0.1924 -0.1853  0.0919
 3637OCT     C2 7274  20.272  13.630   5.914  0.1203 -0.2770 -0.1509
 3638OCT     C1 7275   2.685  21.133   5.999 -0.1529 -0.1598  0.0167
 3638OCT     C2 7276   2.952  20.794   6.178  0.2106  0.0621 -0.2072
 3639OCT     C1 7277   3.882  10.937   8.989 -0.5022  0.1274 -0.1269
 3639OCT     C2 7278   3.850  11.253   8.598 -0.2861  0.2875 -0.4849
 3640OCT     C1 7279  13.906   5.722  15.841  0.1448  0.0283 -0.1797
 3640OCT     C2 7280  13.813   6.144  15.798 -0.1375  0.0588  0.1209
 3641OCT     C1 7281  21.435  19.716   2.675  0.3741  0.2607  0.0097
 3641OCT     C2 7282  21.823  19.880   2.584 -0.4545 -0.0828  0.0077
 3642OCT     C1 7283  15.588   2.456  19.984  0.5277 -0.2341  0.0660
 3642OCT     C2 7284  15.530   2.133  20.295 -0.0541  0.0686 -0.1927
 3643OCT     C1 7285   8.436  10.667  15.056  0.0502 -0.1407  0.1069
 3643OCT     C2 7286   8.013  10.846  15.067  0.0782 -0.1890  0.0344
 3644OCT     C1 7287   3.200  21.970  12.899  0.0575 -0.1474  0.3278
 3644OCT     C2 7288   2.850  22.331  12.866  0.1648 -0.1122  0.2334
 3645OCT     C1 7289   1.007  12.277  15.777 -0.1474 -0.0922  0.0170
 3645OCT     C2 7290   0.590  12.104  15.754  0.1477  0.1008 -0.0427
 3646OCT     C1 7291   5.508  21.080  21.332 -0.0268 -0.1460 -0.1765
 3646OCT     C2 7292   5.572  20.833  21.734  0.1819  0.1116 -0.1503
 3647OCT     C1 7293   1.292  18.394  16.207 -0.3051 -0.1429 -0.1404
 3647OCT     C2 7294   0.882  18.227  16.042 -0.4701  0.1847  0.4060
 3648OCT     C1 7295  13.928  19.192  14.351 -0.2130 -0.0486  0.0170
 3648OCT     C2 7296  14.237  18.857  14.205  0.1263 -0.1097  0.2596
 3649OCT     C1 7297  18.911   3.202  22.146  0.0014  0.1004  0.1718
 3649OCT     C2 7298  18.840   2.780  21.979  0.1208 -0.1141  0.0671
 3650OCT     C1 7299   0.882  14.972   1.747  0.0945 -0.4070 -0.1594
 3650OCT     C2 7300   0.569  15.200   1.544  0.2843  0.0602 -0.1624
 3651OCT     C1 7301  15.470  21.563  10.880  0.3774 -0.0050  0.0521
 3651OCT     C2 7302  15.305  21.754  11.280  0.1843 -0.1169 -0.0893
 3652OCT     C1 7303  16.774  20.806  15.329 -0.2295 -0.2458 -0.0059
 3652OCT     C2 7304  17.194  20.687  15.527 -0.0396 -0.1423  0.0827
 3653OCT     C1 7305  13.923   9.250   8.678 -0.1515  0.2633  0.0309
 3653OCT     C2 7306  13.687   9.098   9.034 -0.3155  0.2126 -0.1245
 3654OCT     C1 7307  18.672   3.141  23.463 -0.2721 -0.1079  0.1721
 3654OCT     C2 7308  18.677   2.970   0.113 -0.2568  0.1868 -0.0350
 3655OCT     C1 7309   0.631  13.995  14.524 -0.0182 -0.2512 -0.1167
 3655OCT     C2 7310   0.416  13.856  14.107  0.0173  0.2437 -0.1446
 3656OCT     C1 7311   4.966  18.202  13.421  0.3818  0.1250 -0.0642
 3656OCT     C2 7312   5.221  18.465  13.172  0.1354 -0.1889 -0.3117
 3657OCT     C1 7313  14.383   3.860   1.946 -0.1835 -0.1099 -0.0755
 3657OCT     C2 7314  14.654   4.229   2.137 -0.1304  0.2112 -0.1570
 3658OCT     C1 7315   8.444  12.396   1.812 -0.0854  0.1982 -0.4211
 3658OCT     C2 7316   8.317  12.838   1.781  0.4043 -0.2820  0.0599
 3659OCT     C1 7317   9.962  17.624  23.036 -0.1931 -0.0249 -0.3506
 3659OCT     C2 7318  10.183  17.957  23.231  0.0111  0.3193  0.0606
 3660OCT     C1 7319  19.007   9.232  12.707 -0.1197 -0.0491 -0.0017
 3660OCT     C2 7320  18.648   8.971  12.846 -0.2324 -0.0666 -0.1719
 3661OCT     C1 7321  22.180  10.947   2.426 -0.2025 -0.0336 -0.0395
 3661OCT     C2 7322  22.208  10.635   2.084  0.0513  0.2228  0.3141
 3662OCT     C1 7323   8.074  15.789   7.153 -0.1082 -0.0904 -0.0753
 3662OCT     C2 7324   8.067  15.370   7.011  0.1608 -0.1912  0.1985
 3663OCT     C1 7325  14.993  10.032  14.912 -0.1582 -0.0690  0.0763
 3663OCT     C2 7326  14.726  10.393  14.726  0.0638 -0.1950 -0.0478
 3664OCT     C1 7327   3.322  10.874  19.698  0.2451  0.1718 -0.1789
 3664OCT     C2 7328   2.980  11.111  19.604 -0.3441 -0.1452 -0.0358
 3665OCT     C1 7329  13.535   9.454  13.041 -0.0831 -0.0552  0.1949
 3665OCT     C2 7330  13.511   9.378  13.529  0.1891 -0.0388  0.1161
 3666OCT     C1 7331  14.220   9.871   9.232  0.1881 -0.2203  0.0152
 3666OCT     C2 7332  14.554   9.541   9.209 -0.0308 -0.0020  0.1399
 3667OCT     C1 7333  12.411   8.369   9.217 -0.0668  0.2116  0.5165
 3667OCT     C2 7334  12.394   8.832   9.326  0.3614 -0.3130 -0.2804
 3668OCT     C1 7335  19.283  11.025   4.546 -0.2338 -0.3176 -0.1289
 3668OCT     C2 7336  18.855  10.935   4.369 -0.1710 -0.1251  0.0886
 3669OCT     C1 7337  16.743   0.291  14.916 -0.0321 -0.3144  0.0674
 3669OCT     C2 7338  16.887  23.699  14.686 -0.2718  0.0984  0.1558
 3670OCT     C1 7339  20.990   7.042  20.117  0.2249  0.3082  0.1036
 3670OCT     C2 7340  21.448   7.149  20.014  0.1124  0.2357  0.0237
 3671OCT     C1 7341   4.276  15.319  23.389  0.1440  0.3740  0.2152
 3671OCT     C2 7342   4.727  15.374  23.459 -0.0346 -0.1121 -0.0480
 3672OCT     C1 7343  11.728   3.181   0.135 -0.0238 -0.3335  0.1862
 3672OCT     C2 7344  11.327   3.279  23.574  0.2325  0.0054 -0.0788
 3673OCT     C1 7345   2.614  14.844   0.727  0.1320 -0.5985  0.2546
 3673OCT     C2 7346   2.556  14.482   1.035 -0.5844 -0.1099 -0.2020
 3674OCT     C1 7347  15.841  20.497  11.814 -0.3038  0.4838  0.4578
 3674OCT     C2 7348  15.502  20.823  11.691 -0.2354  0.4414  0.0976
 3675OCT     C1 7349  19.040   8.868  11.281  0.0024  0.1265 -0.0998
 3675OCT     C2 7350  18.920   9.290  11.413 -0.1218 -0.1187 -0.1228
 3676OCT     C1 7351  10.666  14.985   0.515  0.2890  0.1760 -0.1801
 3676OCT     C2 7352  10.457  15.178   0.905 -0.0311 -0.6083  0.1549
 3677OCT     C1 7353  16.708  20.228  14.501  0.1487  0.0085 -0.0660
 3677OCT     C2 7354  16.979  20.169  14.081 -0.0150  0.0420 -0.1627
 3678OCT     C1 7355   0.748  17.693  17.389 -0.1596 -0.0129 -0.3004
 3678OCT     C2 7356   1.030  17.472  17.169  0.2614 -0.2668 -0.4902
 3679OCT     C1 7357   8.992   8.473   9.817  0.4872 -0.2948 -0.1031
 3679OCT     C2 7358   9.163   8.067  10.002 -0.1344  0.0057  0.4686
 3680OCT     C1 7359  23.372  23.234   4.378  0.0855 -0.2932 -0.1406
 3680OCT     C2 7360  23.049  22.920   4.544  0.1022 -0.1236 -0.0827
 3681OCT     C1 7361   0.688   8.911  22.703 -0.1045  0.1217 -0.0636
 3681OCT     C2 7362   0.381   8.561  22.595 -0.0963 -0.2708 -0.4196
 3682OCT     C1 7363   8.672  18.181  22.341 -0.0597 -0.2748 -0.0250
 3682OCT     C2 7364   8.476  17.944  22.779  0.1922 -0.0528  0.1319
 3683OCT     C1 7365  23.258   8.140   4.215 -0.2438 -0.0342  0.0765
 3683OCT     C2 7366  23.440   8.110   4.591 -0.4843  0.1752 -0.2211
 3684OCT     C1 7367  20.618  13.587  18.988  0.4321  0.0201 -0.2583
 3684OCT     C2 7368  20.507  13.312  18.599 -0.0818  0.2624 -0.0859
 3685OCT     C1 7369   0.374  14.117  14.921 -0.0367  0.1814 -0.0899
 3685OCT     C2 7370   0.815  13.923  14.968  0.2591 -0.2167 -0.1820
 3686OCT     C1 7371  13.296  11.224  20.527  0.0633 -0.0605  0.1467
 3686OCT     C2 7372  13.436  10.795  20.537  0.1985 -0.3689  0.0101
 3687OCT     C1 7373  12.377  15.457  14.576 -0.0871  0.1349  0.1600
 3687OCT     C2 7374  12.312  15.601  14.107 -0.1174  0.0967 -0.3607
 3688OCT     C1 7375  14.321   4.705  16.461 -0.2016  0.1977  0.0032
 3688OCT     C2 7376  14.029   4.515  16.159 -0.2785  0.0231  0.0736
 3689OCT     C1 7377   6.413   2.053   9.659 -0.0023  0.0001  0.0756
 3689OCT     C2 7378   6.219   2.323   9.923 -0.0237 -0.0367 -0.1530
 3690OCT     C1 7379  20.820  16.605   8.196 -0.1769  0.1948 -0.0611
 3690OCT     C2 7380  20.836  16.434   8.661  0.0019 -0.0799 -0.0067
 3691OCT     C1 7381  11.844   0.032   1.904  0.0961 -0.2402 -0.1788
 3691OCT     C2 7382  12.219   0.296   1.879  0.2011 -0.0176 -0.1753
 3692OCT     C1 7383   2.947  11.600  16.841  0.1475 -0.0490  0.2162
 3692OCT     C2 7384   2.593  11.395  17.027 -0.0486 -0.2596  0.3917
 3693OCT     C1 7385   9.266  12.983  13.608  0.0319 -0.0940 -0.4187
 3693OCT     C2 7386   9.583  12.600  13.518  0.1759 -0.1735  0.0400
 3694OCT     C1 7387   6.302   2.425   7.217 -0.0601  0.1509 -0.3413
 3694OCT     C2 7388   6.640   2.669   7.375 -0.0415  0.3733 -0.1323
 3695OCT     C1 7389  15.707   1.268  13.250 -0.0832  0.1766 -0.2175
 3695OCT     C2 7390  15.999   1.638  13.118  0.0488  0.0722 -0.0520
 3696OCT     C1 7391  13.038  19.330  15.109  0.0164  0.0519 -0.1307
 3696OCT     C2 7392  13.312  19.019  14.940  0.5328  0.1121 -0.2844
 3697OCT     C1 7393   2.682   0.683   4.960 -0.0312 -0.0529 -0.2396
 3697OCT     C2 7394   2.900   0.317   5.051 -0.4118 -0.3863  0.3790
 3698OCT     C1 7395   1.670  16.147   1.538 -0.3187 -0.2826  0.0733
 3698OCT     C2 7396   1.584  15.932   1.125 -0.2655  0.3058  0.1934
 3699OCT     C1 7397   5.225  18.812  22.917  0.1659  0.1616  0.2616
 3699OCT     C2 7398   5.492  18.476  23.121  0.1187 -0.2945  0.2807
 3700OCT     C1 7399   5.485  14.057   3.478 -0.0670 -0.2933 -0.3097
 3700OCT     C2 7400   5.864  14.105   3.206  0.0199 -0.0385 -0.0896
 3701OCT     C1 7401   8.251  13.554   8.982  0.1090  0.0868 -0.0760
 3701OCT     C2 7402   8.002  13.463   9.424 -0.1456  0.1365  0.0813
 3702OCT     C1 7403   3.837  15.824   1.294  0.0905 -0.1912 -0.1081
 3702OCT     C2 7404   4.190  15.732   1.554  0.0502  0.1465  0.0057
 3703OCT     C1 7405  15.255   4.314  13.287 -0.2871 -0.0182 -0.2861
 3703OCT     C2 7406  15.760   4.310  13.258  0.0500  0.2761 -0.2222
 3704OCT     C1 7407   5.799   2.676  23.475  0.0763 -0.1089  0.2233
 3704OCT     C2 7408   5.938   2.273  23.679 -0.3219  0.1763 -0.3602
 3705OCT     C1 7409   8.937  19.339   2.591  0.1675 -0.0622  0.0990
 3705OCT     C2 7410   8.504  19.486   2.693 -0.0644  0.1053  0.4263
 3706OCT     C1 7411   0.304   0.640  11.011  0.4016  0.0032  0.0033
 3706OCT     C2 7412  23.594   0.552  11.039  0.3989 -0.2006 -0.2649
 3707OCT     C1 7413  19.275   9.248   1.158 -0.1614  0.5365 -0.3429
 3707OCT     C2 7414  19.219   9.457   1.564  0.1392 -0.1097 -0.1133
 3708OCT     C1 7415  19.643  10.862   4.926  0.1932  0.1156  0.3453
 3708OCT     C2 7416  19.823  10.986   4.500  0.0110  0.2488 -0.1180
 3709OCT     C1 7417   9.181   9.656  21.565  0.1739  0.0089  0.0542
 3709OCT     C2 7418   8.954   9.787  21.176 -0.0963  0.1225 -0.0015
 3710OCT     C1 7419   1.972   5.698   6.892 -0.1121 -0.0550  0.0960
 3710OCT     C2 7420   2.446   5.812   6.891 -0.0992 -0.0282  0.2887
 3711OCT     C1 7421  15.947   1.018  17.244  0.0678 -0.0577 -0.0212
 3711OCT     C2 7422  16.343   1.051  17.414  0.5071  0.2156 -0.1173
 3712OCT     C1 7423  17.425   8.795   5.818 -0.3001 -0.3851 -0.0584
 3712OCT     C2 7424  17.645   8.767   5.447 -0.0301 -0.0533  0.3860
 3713OCT     C1 7425   9.917   7.475  15.431  0.2774  0.1964  0.1025
 3713OCT     C2 7426  10.263   7.648  15.141  0.2457 -0.1077  0.0717
 3714OCT     C1 7427  12.876   8.153  21.744  0.1992  0.2740  0.2710
 3714OCT     C2 7428  12.507   8.303  21.441  0.1689  0.0428  0.1139
 3715OCT     C1 7429   5.747   2.929  20.245 -0.0718  0.0884 -0.1612
 3715OCT     C2 7430   5.453   3.230  20.540  0.4959  0.4164  0.1095
 3716OCT     C1 7431  12.713  21.696  17.928 -0.2157  0.0715  0.2279
 3716OCT     C2 7432  12.830  21.330  18.086  0.2040 -0.3646  0.0659
 3717OCT     C1 7433  15.988  10.294  22.041 -0.0833  0.2327  0.1035
 3717OCT     C2 7434  15.856  10.667  22.275 -0.1483 -0.0541  0.1864
 3718OCT     C1 7435   4.630   4.716  15.898  0.2694 -0.0625  0.2262
 3718OCT     C2 7436   4.835   4.310  15.865 -0.1494  0.1639 -0.6732
 3719OCT     C1 7437   9.485   1.641   8.805  0.0298  0.2088 -0.1830
 3719OCT     C2 7438   9.424   2.021   9.115 -0.1940 -0.2757 -0.1978
 3720OCT     C1 7439  15.100  19.542  10.613  0.0776 -0.0250  0.1800
 3720OCT     C2 7440  15.259  19.397  11.061 -0.2112  0.1665 -0.2060
 3721OCT     C1 7441   0.769  10.505   6.809  0.1653  0.0518 -0.0454
 3721OCT     C2 7442   0.724  10.797   7.185  0.2704 -0.1982  0.1334
 3722OCT     C1 7443  10.916   3.392  21.451 -0.1240 -0.0444 -0.4629
 3722OCT     C2 7444  11.402   3.421  21.309 -0.0092 -0.3375 -0.3146
 3723OCT     C1 7445   0.785  12.383  20.458 -0.3594 -0.0192  0.0234
 3723OCT     C2 7446   0.463  12.112  20.699 -0.0615 -0.1181  0.0074
 3724OCT     C1 7447   9.891   9.361   9.671 -0.1745 -0.2047  0.0773
 3724OCT     C2 7448   9.456   9.394   9.894 -0.3575  0.0192  0.2179
 3725OCT     C1 7449  12.642  18.615  18.719  0.2601 -0.2890  0.2092
 3725OCT     C2 7450  12.207  18.457  18.847  0.1288  0.2256 -0.1196
 3726OCT     C1 7451  17.870  12.822   0.491 -0.2261 -0.0184 -0.3710
 3726OCT     C2 7452  17.846  12.511   0.117 -0.0824  0.0410  0.5254
 3727OCT     C1 7453  11.819  19.339  12.845 -0.0727 -0.1560  0.1085
 3727OCT     C2 7454  11.762  19.012  12.469 -0.5192  0.0053  0.1095
 3728OCT     C1 7455   9.575  12.254  22.097 -0.0766  0.2429 -0.0513
 3728OCT     C2 7456   9.836  12.554  21.899 -0.0514  0.0017  0.0573
 3729OCT     C1 7457   7.695   8.029  16.461 -0.1307 -0.0815  0.2213
 3729OCT     C2 7458   7.870   8.310  16.125  0.2844  0.2127 -0.2112
 3730OCT     C1 7459   3.293  10.347   1.199 -0.0733 -0.1585 -0.0994
 3730OCT     C2 7460   2.925  10.610   1.286 -0.4112 -0.3720 -0.1177
 3731OCT     C1 7461  17.833  18.390  19.689  0.1309  0.1731 -0.2098
 3731OCT     C2 7462  18.070  18.692  19.953 -0.3091  0.0575  0.3634
 3732OCT     C1 7463   4.541   8.614  16.968  0.1015 -0.1278 -0.0963
 3732OCT     C2 7464   4.755   8.199  17.154 -0.1148  0.1836 -0.0265
 3733OCT     C1 7465   7.768   6.659  19.708 -0.3367  0.0141  0.1553
 3733OCT     C2 7466   8.015   6.579  19.280 -0.2497  0.2778  0.2032
 3734OCT     C1 7467   3.575  14.233  14.370  0.1717  0.0219 -0.1006
 3734OCT     C2 7468   3.377  13.962  13.996  0.0832 -0.1086  0.2608
 3735OCT     C1 7469   5.754  14.077   1.436 -0.0287 -0.3059 -0.0396
 3735OCT     C2 7470   5.530  14.470   1.428 -0.2668  0.0469  0.2329
 3736OCT     C1 7471  19.950  19.865   4.231  0.2579  0.1433  0.1718
 3736OCT     C2 7472  20.240  20.227   4.319 -0.3188  0.1093 -0.1632
 3737OCT     C1 7473  16.654  10.089   9.567  0.3592 -0.2691 -0.0204
 3737OCT     C2 7474  16.365  10.085   9.193 -0.0982  0.2483 -0.0675
 3738OCT     C1 7475  21.211   4.662  22.687 -0.4001  0.2068  0.1834
 3738OCT     C2 7476  21.174   4.945  23.057 -0.0833 -0.1841  0.1186
 3739OCT     C1 7477  11.747  19.789   9.478 -0.1271 -0.1191 -0.0686
 3739OCT     C2 7478  11.568  20.204   9.355  0.0527 -0.2446 -0.1953
 3740OCT     C1 7479  16.590   8.114  22.702  0.1022 -0.2564  0.1469
 3740OCT     C2 7480  16.668   8.545  22.941 -0.0665 -0.2508  0.1338
 3741OCT     C1 7481  15.712  17.782   4.167 -0.3435 -0.1223  0.4810
 3741OCT     C2 7482  16.068  17.858   4.434 -0.1617 -0.1775 -0.1359
 3742OCT     C1 7483   7.858  12.435  20.594 -0.0504  0.0298 -0.1893
 3742OCT     C2 7484   7.763  12.402  21.043 -0.0773  0.1063  0.1491
 3743OCT     C1 7485   6.353  10.974  23.482 -0.0175 -0.2737 -0.1938
 3743OCT     C2 7486   6.218  10.894   0.196 -0.0437  0.1701 -0.0921
 3744OCT     C1 7487  11.822   9.597  21.827 -0.0688  0.3033  0.0383
 3744OCT     C2 7488  11.616   9.674  22.262 -0.2390  0.0476  0.4029
 3745OCT     C1 7489   2.994  22.369  11.261  0.0149  0.0544  0.2684
 3745OCT     C2 7490   2.723  22.304  10.895 -0.0068  0.1406 -0.2177
 3746OCT     C1 7491  21.589  23.070  22.558  0.2573  0.1395 -0.0723
 3746OCT     C2 7492  21.825  23.488  22.782 -0.3747 -0.3001  0.3049
 3747OCT     C1 7493  18.961  20.862   0.614  0.1779  0.1680  0.1799
 3747OCT     C2 7494  19.318  20.641   0.724 -0.1346  0.3032  0.3885
 3748OCT     C1 7495  18.601  21.752  13.215  0.2331  0.0334 -0.1998
 3748OCT     C2 7496  18.332  21.361  13.073  0.0131 -0.3737 -0.0949
 3749OCT     C1 7497  14.567   7.415   7.365 -0.1244  0.2313 -0.2898
 3749OCT     C2 7498  14.180   7.360   7.078  0.0176  0.2317 -0.0965
 3750OCT     C1 7499  17.094   1.754  12.057  0.1313  0.1411 -0.0269
 3750OCT     C2 7500  16.614   1.893  12.195  0.0926 -0.0306  0.0050
 3751OCT     C1 7501  19.184  18.555  14.831 -0.3611 -0.0215 -0.1209
 3751OCT     C2 7502  19.302  18.139  14.642  0.2193 -0.2245  0.3309
 3752OCT     C1 7503  13.185  18.085  18.209  0.3893 -0.3319 -0.4758
 3752OCT     C2 7504  12.880  17.854  17.942 -0.0532 -0.2541  0.1433
 3753OCT     C1 7505  20.981  10.822  19.495  0.0154  0.0438  0.0242
 3753OCT     C2 7506  20.659  11.166  19.538  0.2225 -0.4238  0.0127
 3754OCT     C1 7507   8.217   4.169  19.297  0.0450  0.5717  0.2900
 3754OCT     C2 7508   8.693   4.253  19.275  0.2637  0.1844  0.0343
 3755OCT     C1 7509   6.810  12.951  11.404  0.1984 -0.0806  0.3888
 3755OCT     C2 7510   6.656  12.612  11.709  0.0173  0.5111 -0.2607
 3756OCT     C1 7511   4.366   4.166   5.926 -0.1517  0.1088 -0.1815
 3756OCT     C2 7512   4.600   4.575   5.777 -0.2014 -0.1008  0.0024
 3757OCT     C1 7513  12.112  23.637   7.891  0.1847 -0.3018 -0.0910
 3757OCT     C2 7514  12.333   0.369   7.881 -0.1092  0.0112  0.3110
 3758OCT     C1 7515  20.475  18.321   8.431 -0.1655  0.1565  0.1189
 3758OCT     C2 7516  20.944  18.456   8.501  0.0138 -0.1297  0.1463
 3759OCT     C1 7517  20.622  14.756  18.335  0.1566  0.3524  0.4347
 3759OCT     C2 7518  20.508  14.500  17.891  0.2033  0.0227  0.1388
 3760OCT     C1 7519  11.657  13.142  12.648 -0.3404 -0.0217 -0.4535
 3760OCT     C2 7520  11.288  13.040  12.985 -0.1142 -0.0261 -0.0655
 3761OCT     C1 7521  13.301  22.694   5.633 -0.3619 -0.0199  0.4218
 3761OCT     C2 7522  13.307  22.603   5.145  0.2158  0.0363 -0.0003
 3762OCT     C1 7523   8.788  11.944   0.627  0.1100 -0.0092  0.0374
 3762OCT     C2 7524   8.530  11.822   0.973  0.2256 -0.0336  0.2352
 3763OCT     C1 7525  16.508  11.327  11.468  0.0059 -0.0448  0.3042
 3763OCT     C2 7526  16.895  11.105  11.497 -0.1663  0.0854  0.1670
 3764OCT     C1 7527   9.806  20.217  10.216 -0.0417  0.0148  0.0758
 3764OCT     C2 7528   9.368  20.069  10.085 -0.1205  0.2809  0.0847
 3765OCT     C1 7529   9.307  20.081   1.915 -0.1930 -0.4163 -0.1400
 3765OCT     C2 7530   9.757  20.120   2.004 -0.2184 -0.4074  0.1797
 3766OCT     C1 7531   9.089  16.307   9.669 -0.3593 -0.1045  0.1236
 3766OCT     C2 7532   9.454  16.030   9.571 -0.2172 -0.2972 -0.1511
 3767OCT     C1 7533  15.663   5.983   2.557  0.2914 -0.4450 -0.1286
 3767OCT     C2 7534  15.946   6.321   2.636  0.2585  0.0568 -0.0748
 3768OCT     C1 7535   9.416   8.542  10.025 -0.1756  0.3764  0.0734
 3768OCT     C2 7536   9.515   8.306   9.613  0.1307 -0.1990  0.2608
 3769OCT     C1 7537  20.424  17.347  20.827 -0.5636  0.2210  0.4476
 3769OCT     C2 7538  20.292  16.921  20.584  0.2241  0.1884  0.2472
 3770OCT     C1 7539   1.910  19.021   3.966 -0.2938 -0.2764 -0.0661
 3770OCT     C2 7540   1.907  19.220   3.522  0.2947  0.1845 -0.0265
 3771OCT     C1 7541  12.062   7.292   7.891 -0.5838  0.4835 -0.4840
 3771OCT     C2 7542  11.960   7.661   8.100 -0.2157 -0.0416 -0.2107
 3772OCT     C1 7543  23.575  19.024   0.899  0.3453 -0.0711 -0.0597
 3772OCT     C2 7544   0.097  18.720   1.179 -0.0223 -0.0431  0.2549
 3773OCT     C1 7545  20.780  14.939  17.468  0.1846  0.3138  0.2144
 3773OCT     C2 7546  20.784  15.046  17.020  0.2893  0.0174 -0.3210
 3774OCT     C1 7547  18.455  10.509   1.650 -0.0514  0.0529  0.1645
 3774OCT     C2 7548  18.396  10.677   1.276  0.2232  0.1753 -0.0350
 3775OCT     C1 7549  15.041  20.603   0.055 -0.2729 -0.0474 -0.0121
 3775OCT     C2 7550  15.248  21.023   0.116  0.2036  0.0066 -0.0859
 3776OCT     C1 7551  10.637   1.596  23.069  0.0144  0.1776 -0.2295
 3776OCT     C2 7552  10.895   1.817  22.771 -0.2184 -0.0034 -0.0011
 3777OCT     C1 7553   4.158   9.907   8.109  0.0064 -0.0068 -0.2714
 3777OCT     C2 7554   3.832   9.819   8.424  0.0995  0.0962  0.0654
 3778OCT     C1 7555   2.841   3.621  16.631 -0.2401 -0.5427 -0.1739
 3778OCT     C2 7556   2.670   3.489  16.233  0.1044 -0.2835 -0.2157
 3779OCT     C1 7557  17.852  19.221   5.413  0.2622  0.2283 -0.2925
 3779OCT     C2 7558  17.756  18.780   5.561  0.1267  0.1215 -0.2997
 3780OCT     C1 7559  16.371  16.904  20.747 -0.1804 -0.0557  0.2366
 3780OCT     C2 7560  16.709  16.922  20.415 -0.0069 -0.1943  0.5530
 3781OCT     C1 7561   2.385  15.150  21.936 -0.0634 -0.1028 -0.2511
 3781OCT     C2 7562   1.998  15.422  22.098 -0.4008  0.2473  0.0543
 3782OCT     C1 7563  23.286  19.917  22.494 -0.1833  0.6408  0.3420
 3782OCT     C2 7564  23.257  19.539  22.751  0.1367  0.2457 -0.0751
 3783OCT     C1 7565  17.970  19.099  22.994 -0.2117  0.0693  0.0899
 3783OCT     C2 7566  18.158  19.299  22.648 -0.2317 -0.0373  0.2591
 3784OCT     C1 7567   0.082   8.803   7.336  0.1187  0.0915 -0.1614
 3784OCT     C2 7568   0.310   8.614   6.907 -0.1314 -0.2963  0.1635
 3785OCT     C1 7569  23.716  12.751   9.751 -0.0350  0.3194  0.0943
 3785OCT     C2 7570   0.175  12.867  10.126  0.3987 -0.0888  0.0869
 3786OCT     C1 7571  13.978  10.533   0.912  0.0218  0.1440  0.0456
 3786OCT     C2 7572  13.618  10.831   1.034  0.2903  0.1877  0.0541
 3787OCT     C1 7573   1.693  23.718  12.812 -0.3142  0.0029 -0.0295
 3787OCT     C2 7574   1.453  23.682  12.412  0.0860  0.0306 -0.2921
 3788OCT     C1 7575  20.496  14.078   5.250  0.2772 -0.0684  0.1480
 3788OCT     C2 7576  20.823  14.176   4.933  0.0495  0.1217  0.0479
 3789OCT     C1 7577  15.910   4.016  16.852  0.2959 -0.2489 -0.1856
 3789OCT     C2 7578  16.167   4.378  16.909  0.2625 -0.0130 -0.2871
 3790OCT     C1 7579   7.022  22.603   2.484  0.0886 -0.0093 -0.0715
 3790OCT     C2 7580   7.307  22.478   2.078 -0.2556  0.2472 -0.0778
 3791OCT     C1 7581   6.859  16.886  21.464  0.1211 -0.0121 -0.4339
 3791OCT     C2 7582   6.654  16.630  21.800  0.2482  0.3107  0.0547
 3792OCT     C1 7583  13.566  10.115  10.401 -0.0170  0.0974  0.1250
 3792OCT     C2 7584  13.192  10.288  10.667 -0.1191 -0.1871  0.1230
 3793OCT     C1 7585  16.236  23.364  20.160 -0.0256  0.0533 -0.0261
 3793OCT     C2 7586  16.213  22.864  20.297 -0.1668 -0.3385 -0.0005
 3794OCT     C1 7587   3.274   5.662  11.393  0.1713  0.1800 -0.2869
 3794OCT     C2 7588   3.122   5.833  10.945 -0.2135 -0.0131  0.0792
 3795OCT     C1 7589  10.268  14.460   8.981 -0.3275  0.0983 -0.1166
 3795OCT     C2 7590   9.872  14.704   9.080  0.0663  0.5672 -0.0367
 3796OCT     C1 7591   0.396  15.068  21.064 -0.0897 -0.5320 -0.2841
 3796OCT     C2 7592   0.396  15.358  20.667  0.3632  0.0487 -0.1995
 3797OCT     C1 7593  13.357  19.691   3.509  0.1182  0.0558  0.1379
 3797OCT     C2 7594  13.112  20.011   3.265  0.1407  0.3512  0.2922
 3798OCT     C1 7595  23.198  17.938  18.596 -0.0142  0.2378 -0.4279
 3798OCT     C2 7596  22.790  17.861  18.912 -0.1410 -0.1574  0.1770
 3799OCT     C1 7597   2.487   9.551  13.201 -0.1213 -0.1421  0.4141
 3799OCT     C2 7598   2.916   9.515  13.028  0.0059 -0.1675 -0.0843
 3800OCT     C1 7599  16.026   2.714  15.273  0.2459  0.2261 -0.2035
 3800OCT     C2 7600  16.465   2.523  15.204  0.5871  0.0960  0.1832
 3801OCT     C1 7601  22.512   5.300   5.527  0.2210  0.4338 -0.2848
 3801OCT     C2 7602  22.761   5.699   5.417 -0.1729 -0.2619  0.1352
 3802OCT     C1 7603   0.433   8.168  17.270  0.0213  0.0936  0.0074
 3802OCT     C2 7604   0.572   8.157  17.688 -0.1451  0.1297 -0.2009
 3803OCT     C1 7605  11.738  18.857   1.404  0.0910 -0.0648  0.1437
 3803OCT     C2 7606  11.338  18.590   1.514 -0.2308  0.2920  0.0311
 3804OCT     C1 7607   9.244   8.924  16.262 -0.2075 -0.2123 -0.2061
 3804OCT     C2 7608   9.667   9.009  16.315 -0.3723  0.0295  0.5101
 3805OCT     C1 7609  20.662   0.402  17.055  0.0337  0.2684  0.0360
 3805OCT     C2 7610  21.026   0.420  16.743 -0.1646  0.0194  0.0087
 3806OCT     C1 7611  16.642   0.813  22.744 -0.0337  0.0258  0.0668
 3806OCT     C2 7612  16.534   0.373  22.571 -0.0024  0.1603 -0.2018
 3807OCT     C1 7613  15.083   3.898   6.830  0.0550  0.4145  0.0617
 3807OCT     C2 7614  15.096   4.018   7.257  0.0671  0.2005  0.2196
 3808OCT     C1 7615  22.408  18.237  22.885  0.0100 -0.1897  0.0199
 3808OCT     C2 7616  22.232  17.838  22.677 -0.3203 -0.0561 -0.2154
 3809OCT     C1 7617   1.623  11.110  14.985  0.1253  0.1672  0.2837
 3809OCT     C2 7618   1.221  11.176  15.258 -0.2126  0.1770  0.2289
 3810OCT     C1 7619  17.189   5.436  12.842  0.4137  0.0459 -0.1256
 3810OCT     C2 7620  16.892   5.504  12.499 -0.0742 -0.0279 -0.1272
 3811OCT     C1 7621  11.901  16.860  15.581  0.1129 -0.0532  0.3026
 3811OCT     C2 7622  12.396  16.913  15.633 -0.2657  0.1517  0.2207
 3812OCT     C1 7623   0.262  20.345  10.618  0.0784 -0.0973  0.4072
 3812OCT     C2 7624  23.702  20.718  10.704  0.0921  0.1505  0.0024
 3813OCT     C1 7625  17.751  17.417  17.148 -0.1970 -0.2498 -0.0035
 3813OCT     C2 7626  17.490  17.166  16.913  0.2453  0.2735  0.1083
 3814OCT     C1 7627   9.308  20.553  14.347 -0.1460 -0.1200 -0.1320
 3814OCT     C2 7628   9.149  20.918  14.645  0.0980  0.0724  0.1011
 3815OCT     C1 7629   0.310  13.436   6.350  0.1864  0.1556  0.5517
 3815OCT     C2 7630   0.688  13.766   6.401  0.0285 -0.0660 -0.0319
 3816OCT     C1 7631   0.321  13.182   3.848  0.2999 -0.0477  0.1817
 3816OCT     C2 7632   0.323  12.706   3.920 -0.1425  0.2696  0.0387
 3817OCT     C1 7633   3.163  14.490   6.670 -0.1616 -0.1893 -0.4582
 3817OCT     C2 7634   3.153  14.657   6.262 -0.0833  0.0963  0.0396
 3818OCT     C1 7635   6.688  17.670  18.676 -0.1953  0.1379 -0.1000
 3818OCT     C2 7636   6.853  18.079  18.788  0.0986 -0.1122  0.0142
 3819OCT     C1 7637  23.144   1.575  16.663 -0.2051 -0.0769  0.1143
 3819OCT     C2 7638  23.137   1.240  16.382  0.1530 -0.1423  0.1790
 3820OCT     C1 7639  21.665  15.553   9.499 -0.1350 -0.2354  0.0013
 3820OCT     C2 7640  22.086  15.760   9.329 -0.0547  0.1260 -0.1593
 3821OCT     C1 7641  17.972  15.711  23.386  0.0513  0.4198  0.0811
 3821OCT     C2 7642  17.920  15.836   0.091 -0.1121  0.2717  0.0666
 3822OCT     C1 7643  21.752  14.419  13.847  0.1536 -0.0505 -0.0580
 3822OCT     C2 7644  22.054  14.592  13.550  0.1452  0.0373 -0.0557
 3823OCT     C1 7645  17.066   6.053  12.527 -0.0514 -0.1605 -0.0079
 3823OCT     C2 7646  16.608   6.172  12.445 -0.3008  0.2253 -0.1292
 3824OCT     C1 7647   5.260  16.214  14.298  0.4050  0.3188 -0.3022
 3824OCT     C2 7648   5.018  16.636  14.332 -0.1275  0.2847  0.1978
 3825OCT     C1 7649   8.615  19.718   3.115  0.0116  0.1519  0.0081
 3825OCT     C2 7650   8.749  19.307   3.133  0.0388 -0.1094 -0.0558
 3826OCT     C1 7651  13.650   9.972   1.467  0.1221  0.2093 -0.1955
 3826OCT     C2 7652  13.387   9.601   1.405 -0.3856 -0.3366 -0.2213
 3827OCT     C1 7653   3.001  20.212  20.184 -0.0213  0.1529 -0.2952
 3827OCT     C2 7654   3.155  19.933  20.531 -0.1694  0.4425  0.0137
 3828OCT     C1 7655  17.973   4.546   7.747  0.3814 -0.0841 -0.1935
 3828OCT     C2 7656  18.038   4.514   7.289  0.0452  0.1273 -0.0749
 3829OCT     C1 7657  17.514  20.929  14.383 -0.1011  0.0819 -0.0402
 3829OCT     C2 7658  17.877  20.882  14.093  0.2800 -0.0352 -0.2636
 3830OCT     C1 7659   2.629   6.997   1.819  0.2144  0.2195  0.0845
 3830OCT     C2 7660   2.260   6.746   1.995 -0.1058  0.2057 -0.1046
 3831OCT     C1 7661  13.056  22.232   6.199 -0.0201  0.1068 -0.0826
 3831OCT     C2 7662  13.165  22.182   6.651  0.1182 -0.4784  0.0026
 3832OCT     C1 7663   6.381   8.033   3.795  0.1941 -0.0303  0.0168
 3832OCT     C2 7664   6.229   8.485   3.754  0.0342  0.1595 -0.4294
 3833OCT     C1 7665   2.457  17.105  11.298  0.2862 -0.1020 -0.1013
 3833OCT     C2 7666   2.817  17.242  11.514  0.1626 -0.2143  0.0933
 3834OCT     C1 7667  12.917  22.031  13.008 -0.0553  0.1216  0.1558
 3834OCT     C2 7668  12.898  21.905  12.517 -0.2794  0.1146 -0.0537
 3835OCT     C1 7669  22.836   2.340   0.321 -0.2744  0.1431 -0.3409
 3835OCT     C2 7670  23.121   2.735   0.263 -0.1169 -0.1527  0.3424
 3836OCT     C1 7671  17.603  20.584   0.352 -0.0310 -0.0629  0.0606
 3836OCT     C2 7672  17.244  20.322   0.223 -0.0828  0.0648  0.2104
 3837OCT     C1 7673  14.948   7.780   7.057  0.2856  0.3928  0.1758
 3837OCT     C2 7674  14.821   8.252   7.232 -0.2012 -0.2150  0.3378
 3838OCT     C1 7675  21.098  11.776  13.455 -0.3563 -0.2762  0.0405
 3838OCT     C2 7676  21.145  11.828  12.973  0.0978  0.0092  0.0990
 3839OCT     C1 7677  12.111   5.431  18.584 -0.3327  0.0024 -0.2952
 3839OCT     C2 7678  12.262   5.757  18.314 -0.0456 -0.1761 -0.0991
 3840OCT     C1 7679  12.986   7.911  18.737  0.0525  0.1087  0.0976
 3840OCT     C2 7680  12.994   7.635  18.315  0.0201 -0.1854  0.2407
 3841OCT     C1 7681  18.575  17.256  13.472  0.0519 -0.0448  0.1745
 3841OCT     C2 7682  18.426  17.352  13.864  0.2395  0.0958  0.1368
 3842OCT     C1 7683   2.350  21.303  13.675 -0.0560  0.0247  0.1712
 3842OCT     C2 7684   2.762  21.183  13.896  0.1353 -0.1708 -0.1649
 3843OCT     C1 7685  21.113   9.353  23.482 -0.0005 -0.0096 -0.3713
 3843OCT     C2 7686  20.726   9.714  23.561  0.1945  0.2093  0.1798
 3844OCT     C1 7687  16.689  19.111  10.762  0.0674  0.1097 -0.2457
 3844OCT     C2 7688  16.641  18.651  10.845 -0.1846 -0.1960  0.2355
 3845OCT     C1 7689   9.996  20.357  15.070 -0.1796 -0.1951  0.1729
 3845OCT     C2 7690   9.970  20.646  15.492  0.1684 -0.1652  0.0852
 3846OCT     C1 7691  12.885  17.768  19.113 -0.0738  0.2325 -0.1313
 3846OCT     C2 7692  12.660  17.932  19.482 -0.1155  0.0911  0.3720
 3847OCT     C1 7693  15.988  11.014  17.730 -0.5987 -0.2577 -0.0216
 3847OCT     C2 7694  15.946  10.565  17.605 -0.0573 -0.0947  0.0199
 3848OCT     C1 7695  19.796  18.758  14.941 -0.0677  0.0730 -0.1599
 3848OCT     C2 7696  20.210  19.041  15.047 -0.2609  0.0145  0.1147
 3849OCT     C1 7697  22.117  15.348   1.142  0.3352  0.0203  0.0769
 3849OCT     C2 7698  21.762  15.523   1.367 -0.0145  0.1204 -0.3310
 3850OCT     C1 7699   5.358   0.168  22.171 -0.3111 -0.1063  0.0929
 3850OCT     C2 7700   5.117   0.265  22.579  0.0812 -0.1119 -0.1448
 3851OCT     C1 7701   4.677   0.556   4.288  0.0217 -0.1319 -0.1217
 3851OCT     C2 7702   4.673   0.469   3.848  0.0072 -0.0205  0.2356
 3852OCT     C1 7703   8.998  15.069  23.369 -0.1331 -0.1195  0.2603
 3852OCT     C2 7704   8.693  15.286  23.054 -0.2253  0.0917  0.0916
 3853OCT     C1 7705   0.020   2.162   6.189 -0.0107 -0.0643 -0.4552
 3853OCT     C2 7706  23.363   1.960   6.065  0.1747 -0.2173 -0.3585
 3854OCT     C1 7707   6.280  21.524  14.836  0.1668 -0.0126  0.3802
 3854OCT     C2 7708   5.816  21.368  14.747 -0.3078  0.4693  0.3165
 3855OCT     C1 7709  20.748  17.395  19.125  0.0098 -0.2888  0.4208
 3855OCT     C2 7710  20.480  17.006  19.054  0.0936 -0.1688  0.0982
 3856OCT     C1 7711   9.692  18.418  22.146  0.2413  0.1335 -0.1258
 3856OCT     C2 7712   9.646  18.872  22.258  0.4605 -0.0948  0.1852
 3857OCT     C1 7713   3.488  14.787  12.967 -0.2159 -0.1529  0.3693
 3857OCT     C2 7714   3.777  15.200  13.014  0.3241  0.0504 -0.5065
 3858OCT     C1 7715  23.575  17.934   8.611 -0.2920 -0.0758  0.0524
 3858OCT     C2 7716  23.348  18.372   8.669 -0.0568  0.1680 -0.0200
 3859OCT     C1 7717  16.078  13.303  17.934  0.2060  0.0824  0.0996
 3859OCT     C2 7718  15.699  13.046  18.078 -0.1373  0.3776 -0.0259
 3860OCT     C1 7719  13.270  13.733  10.074  0.2196 -0.0193  0.2807
 3860OCT     C2 7720  13.461  14.034  10.450  0.0946 -0.0708 -0.1339
 3861OCT     C1 7721  18.589   9.081   8.604 -0.1736 -0.0313 -0.0234
 3861OCT     C2 7722  18.261   9.044   8.965  0.2063  0.2052  0.1776
 3862OCT     C1 7723  13.838   0.315  17.390  0.4799 -0.5018  0.3840
 3862OCT     C2 7724  14.217   0.574  17.473 -0.4354  0.2415 -0.0167
 3863OCT     C1 7725  20.598  12.346  14.775  0.1352  0.3069 -0.2303
 3863OCT     C2 7726  20.691  12.773  14.686 -0.1721 -0.2654  0.1885
 3864OCT     C1 7727  11.504  19.184  22.091  0.0826 -0.0787 -0.2793
 3864OCT     C2 7728  11.439  19.152  22.522  0.4536 -0.0548 -0.1119
 3865OCT     C1 7729   1.720  18.868  17.194 -0.2932 -0.2575  0.0396
 3865OCT     C2 7730   1.306  18.572  17.215  0.0758  0.0699 -0.0143
 3866OCT     C1 7731  22.294   8.562  17.497 -0.2420 -0.0933  0.3066
 3866OCT     C2 7732  22.161   8.656  17.935 -0.0203  0.1956 -0.4317
 3867OCT     C1 7733   7.425  19.510  22.976 -0.1219  0.2163  0.2993
 3867OCT     C2 7734   7.661  19.188  22.665  0.0517  0.1301 -0.0714
 3868OCT     C1 7735  17.236  16.140   7.743 -0.2831 -0.0952  0.3140
 3868OCT     C2 7736  17.418  16.274   8.121  0.2657 -0.1546  0.3537
 3869OCT     C1 7737  22.363   9.153  15.454 -0.0811 -0.0714 -0.2998
 3869OCT     C2 7738  22.251   8.809  15.778 -0.1889 -0.3681 -0.2279
 3870OCT     C1 7739  19.006  18.403  11.753  0.4174  0.6215  0.2537
 3870OCT     C2 7740  18.662  18.479  11.384 -0.2974 -0.1657  0.0144
 3871OCT     C1 7741  21.904  16.568   1.016 -0.2250 -0.0608 -0.0845
 3871OCT     C2 7742  22.142  16.264   0.760 -0.0876 -0.1335  0.0661
 3872OCT     C1 7743   5.431  17.982   5.301  0.0153  0.0839 -0.0609
 3872OCT     C2 7744   4.990  17.862   5.463  0.2138  0.0589 -0.1277
 3873OCT     C1 7745  14.479  16.810  16.057  0.3630  0.2367 -0.0995
 3873OCT     C2 7746  14.383  16.310  16.013  0.0323 -0.0801  0.1219
 3874OCT     C1 7747   0.735   5.403   7.651  0.3108 -0.0647 -0.0733
 3874OCT     C2 7748   1.183   5.350   7.639  0.0373 -0.4920  0.3769
 3875OCT     C1 7749   5.987   5.485   3.696  0.3575  0.0341 -0.0142
 3875OCT     C2 7750   6.193   5.841   3.893  0.0109  0.1207 -0.2675
 3876OCT     C1 7751  11.394  15.994  23.673  0.3579 -0.0433  0.1289
 3876OCT     C2 7752  11.004  16.164  23.452  0.0169  0.2260  0.0800
 3877OCT     C1 7753  12.230  15.187   1.544 -0.3447 -0.0017 -0.1312
 3877OCT     C2 7754  12.143  15.628   1.623  0.2240 -0.1061 -0.0560
 3878OCT     C1 7755  10.480  19.143  18.252  0.1215  0.3312  0.4567
 3878OCT     C2 7756  10.711  19.195  17.804 -0.1899  0.0922  0.0345
 3879OCT     C1 7757  13.317  14.643   5.310  0.2801  0.2421  0.2775
 3879OCT     C2 7758  12.965  14.920   5.488  0.2247 -0.5282  0.1609
 3880OCT     C1 7759   0.928  15.914   4.376 -0.0820  0.4379 -0.0034
 3880OCT     C2 7760   1.166  15.559   4.138 -0.0716  0.1214 -0.1734
 3881OCT     C1 7761  22.576  10.106  13.152 -0.0004 -0.2025 -0.0278
 3881OCT     C2 7762  22.842  10.369  12.873  0.1459  0.3080  0.0993
 3882OCT     C1 7763  21.382   0.282  18.708 -0.1559 -0.0155  0.1041
 3882OCT     C2 7764  21.481   0.361  19.115  0.0200  0.0020 -0.1868
 3883OCT     C1 7765  15.791  13.785   0.705  0.4567  0.3593  0.2427
 3883OCT     C2 7766  16.136  13.576   0.533 -0.0447  0.0577 -0.2832
 3884OCT     C1 7767  12.362  11.021  11.889 -0.2012 -0.1772  0.1611
 3884OCT     C2 7768  11.943  10.742  11.894  0.1643  0.1587  0.1837
 3885OCT     C1 7769  15.519  16.148  22.471 -0.1195  0.0785 -0.3441
 3885OCT     C2 7770  15.585  16.483  22.785  0.2469 -0.2974  0.0164
 3886OCT     C1 7771   6.260   9.171  19.042 -0.0059  0.1049 -0.1453
 3886OCT     C2 7772   5.952   9.164  19.446 -0.2724  0.3454 -0.2243
 3887OCT     C1 7773   0.603  13.355   6.740 -0.0706  0.3463  0.1809
 3887OCT     C2 7774   0.611  12.935   6.985  0.3680 -0.0246  0.1308
 3888OCT     C1 7775   3.801  22.682   6.520  0.2153  0.0057  0.1613
 3888OCT     C2 7776   4.010  22.898   6.185  0.2389  0.1703 -0.0163
 3889OCT     C1 7777  20.881  17.637  10.913 -0.1647 -0.1708 -0.0061
 3889OCT     C2 7778  20.997  17.514  11.347  0.1808  0.3060  0.1194
 3890OCT     C1 7779  16.736  23.402   4.802 -0.3652  0.2633 -0.1658
 3890OCT     C2 7780  16.546   0.007   5.058  0.1283  0.4370 -0.5125
 3891OCT     C1 7781   4.242  21.983   8.753  0.1215  0.2273 -0.0435
 3891OCT     C2 7782   3.887  22.200   9.033 -0.1280 -0.1273 -0.1268
 3892OCT     C1 7783   9.944   5.817   7.407 -0.1022 -0.0748  0.0485
 3892OCT     C2 7784   9.549   5.949   7.602 -0.0747  0.3264  0.1066
 3893OCT     C1 7785   3.215  18.205   8.840  0.0163 -0.2988 -0.0844
 3893OCT     C2 7786   3.471  17.854   8.753  0.1437 -0.0892  0.2224
 3894OCT     C1 7787  15.170   9.701  18.802  0.1610 -0.0217 -0.2424
 3894OCT     C2 7788  15.466   9.341  18.859 -0.2407  0.0136  0.0957
 3895OCT     C1 7789   6.817  19.685  11.324  0.2558  0.1275 -0.2811
 3895OCT     C2 7790   6.500  19.446  11.635 -0.0042  0.1709  0.5758
 3896OCT     C1 7791  10.350   5.777  13.948 -0.0755 -0.1837  0.1452
 3896OCT     C2 7792   9.974   6.036  14.093 -0.1389 -0.1311  0.3705
 3897OCT     C1 7793  21.289  19.448   3.613  0.1651  0.0636  0.0191
 3897OCT     C2 7794  21.236  19.027   3.543  0.0694  0.0390  0.1028
 3898OCT     C1 7795  12.682   2.053   0.756  0.0369  0.3127 -0.3898
 3898OCT     C2 7796  12.530   2.003   1.201 -0.2357  0.1016 -0.0798
 3899OCT     C1 7797  19.991   1.185   2.272  0.2496  0.1178 -0.0834
 3899OCT     C2 7798  19.693   1.550   2.235  0.1845  0.0427 -0.2978
 3900OCT     C1 7799  10.360  15.160   6.893  0.0226  0.1166 -0.1960
 3900OCT     C2 7800  10.231  14.751   7.084 -0.1258 -0.2292 -0.2088
 3901OCT     C1 7801   5.228   6.119   1.919  0.1064  0.0521  0.2326
 3901OCT     C2 7802   5.637   6.246   2.132  0.1539  0.2237  0.0305
 3902OCT     C1 7803  14.471  21.370   9.936  0.0040  0.2125  0.0149
 3902OCT     C2 7804  14.275  21.073  10.209 -0.0817  0.0520  0.1383
 3903OCT     C1 7805  17.160  18.058  10.104 -0.0368 -0.2129  0.2004
 3903OCT     C2 7806  16.932  17.725  10.192  0.1747 -0.0889  0.1323
 3904OCT     C1 7807  16.559  18.833   1.897  0.0583 -0.0100  0.2839
 3904OCT     C2 7808  16.877  18.848   1.519 -0.0242  0.0464  0.0268
 3905OCT     C1 7809   3.617   0.266  19.564 -0.3969 -0.2510 -0.1446
 3905OCT     C2 7810   3.259   0.539  19.427  0.0518 -0.1435  0.2582
 3906OCT     C1 7811   8.108   7.144  10.687 -0.4995 -0.0664  0.2461
 3906OCT     C2 7812   8.291   7.238  11.110  0.2687 -0.1420 -0.0692
 3907OCT     C1 7813  10.828  10.216   6.923 -0.0749  0.0553 -0.1072
 3907OCT     C2 7814  10.514  10.291   6.642  0.1083 -0.2517  0.2689
 3908OCT     C1 7815   9.028   4.560  11.378 -0.0039 -0.0212  0.0173
 3908OCT     C2 7816   9.054   4.553  11.903 -0.2955 -0.1955 -0.1915
 3909OCT     C1 7817  13.775   0.789  19.894 -0.0513  0.2711  0.0632
 3909OCT     C2 7818  13.455   0.467  19.945 -0.0682 -0.1136 -0.4832
 3910OCT     C1 7819  23.591   5.924  21.333 -0.0971 -0.5574 -0.2377
 3910OCT     C2 7820   0.039   5.672  21.032 -0.0128 -0.1554  0.0027
 3911OCT     C1 7821  12.468   9.911   3.284  0.0477  0.8535  0.2438
 3911OCT     C2 7822  12.206   9.498   3.329  0.1906  0.1029 -0.1034
 3912OCT     C1 7823   5.835   5.890   8.454  0.1250 -0.0761 -0.2611
 3912OCT     C2 7824   5.740   5.594   8.813 -0.4620  0.1433  0.2722
 3913OCT     C1 7825  14.824   2.150   5.519  0.0273  0.0075 -0.3111
 3913OCT     C2 7826  14.936   2.573   5.341  0.2082 -0.0436 -0.0905
 3914OCT     C1 7827  19.271  16.324  22.622  0.1932 -0.2127  0.3627
 3914OCT     C2 7828  19.013  16.006  22.359  0.0919 -0.2974 -0.1087
 3915OCT     C1 7829   9.577  21.973   5.390  0.3054  0.1872  0.1079
 3915OCT     C2 7830   9.175  22.233   5.466 -0.2236  0.1127 -0.1465
 3916OCT     C1 7831  16.012  22.034  15.304 -0.0624 -0.0748  0.1079
 3916OCT     C2 7832  16.175  21.712  15.003 -0.2487  0.2375 -0.2946
 3917OCT     C1 7833   1.062  13.073   2.795 -0.2130 -0.0303 -0.0147
 3917OCT     C2 7834   1.339  12.909   3.077 -0.2967  0.0481  0.1156
 3918OCT     C1 7835   2.627  20.093   5.226 -0.0137 -0.1761  0.0497
 3918OCT     C2 7836   2.347  19.821   5.504  0.1252 -0.1190 -0.1950
 3919OCT     C1 7837  10.960   3.698   8.178  0.0031 -0.0925 -0.0819
 3919OCT     C2 7838  11.330   3.440   8.410 -0.0318 -0.4453 -0.0278
 3920OCT     C1 7839   4.133  13.862   7.459 -0.3675 -0.1899  0.3502
 3920OCT     C2 7840   3.886  14.167   7.711 -0.4841  0.0832  0.1997
 3921OCT     C1 7841   2.644  17.365  16.398 -0.2235 -0.0106 -0.1386
 3921OCT     C2 7842   2.518  17.154  16.835 -0.1960 -0.0756 -0.0368
 3922OCT     C1 7843  20.464   1.244  17.214  0.0136  0.0277 -0.0694
 3922OCT     C2 7844  20.462   1.538  16.850 -0.1921  0.0378  0.1084
 3923OCT     C1 7845   3.747  15.552  23.103  0.1335  0.2066 -0.2485
 3923OCT     C2 7846   3.298  15.608  22.985 -0.2097  0.0282  0.0505
 3924OCT     C1 7847  20.282  16.077  13.957 -0.0616 -0.2176 -0.2580
 3924OCT     C2 7848  20.450  15.753  13.657 -0.0043  0.4897  0.1389
 3925OCT     C1 7849   9.267  18.817   1.559  0.0161  0.0926 -0.3710
 3925OCT     C2 7850   9.420  19.079   1.215  0.3051 -0.2308 -0.3040
 3926OCT     C1 7851   0.702  10.713   3.072 -0.0345 -0.1878  0.0717
 3926OCT     C2 7852   0.645  10.741   3.517 -0.1647  0.1462  0.0855
 3927OCT     C1 7853  15.426  20.001  20.173  0.1021 -0.1283  0.1768
 3927OCT     C2 7854  15.835  20.200  20.353 -0.0703 -0.1987  0.2518
 3928OCT     C1 7855  20.465   2.183   1.162 -0.2287  0.0015  0.1749
 3928OCT     C2 7856  20.417   2.454   1.543  0.0093 -0.1318 -0.0334
 3929OCT     C1 7857   7.482   3.809   3.316 -0.0721 -0.1602  0.0773
 3929OCT     C2 7858   7.894   3.758   3.084 -0.1665 -0.0067  0.0363
 3930OCT     C1 7859  19.543  20.248   7.394 -0.3516 -0.0619  0.2514
 3930OCT     C2 7860  19.289  20.390   7.099 -0.1170 -0.1782  0.3135
 3931OCT     C1 7861   4.611  15.653   6.014  0.2038 -0.0687 -0.3826
 3931OCT     C2 7862   4.517  15.239   5.779  0.2184 -0.0103 -0.1121
 3932OCT     C1 7863   7.801  10.231  12.132  0.2974 -0.1376 -0.0843
 3932OCT     C2 7864   8.185  10.342  11.923 -0.1348 -0.4355  0.1288
 3933OCT     C1 7865   5.092  17.660  11.413 -0.1701 -0.0356 -0.4781
 3933OCT     C2 7866   5.385  17.289  11.329 -0.2422 -0.1789  0.0952
 3934OCT     C1 7867   5.833  22.258  23.463  0.2828  0.0913 -0.1540
 3934OCT     C2 7868   5.887  22.324  23.049  0.2756  0.0479  0.0882
 3935OCT     C1 7869   8.180  10.491   0.312  0.2479  0.3213  0.0696
 3935OCT     C2 7870   7.718  10.543   0.272 -0.1629 -0.0635 -0.0561
 3936OCT     C1 7871   0.653  20.653  13.384 -0.0402 -0.2520  0.1815
 3936OCT     C2 7872   0.392  20.680  12.954 -0.0507 -0.2360  0.0642
 3937OCT     C1 7873  13.158   0.744  10.518 -0.1735 -0.3770  0.2811
 3937OCT     C2 7874  12.699   0.729  10.523 -0.2849  0.1198  0.2919
 3938OCT     C1 7875  20.563   2.801  23.037 -0.2193 -0.1482 -0.1143
 3938OCT     C2 7876  20.535   2.348  23.140  0.2277  0.0070  0.5905
 3939OCT     C1 7877   7.994  23.683  15.096 -0.2397  0.0958 -0.0595
 3939OCT     C2 7878   7.992   0.420  14.974 -0.0558  0.3985  0.0115
 3940OCT     C1 7879  21.661  10.354   2.293  0.1838 -0.2439 -0.1030
 3940OCT     C2 7880  21.585  10.233   2.748  0.0223 -0.2776 -0.3787
 3941OCT     C1 7881   4.416  18.189  14.117  0.2716 -0.1286  0.3120
 3941OCT     C2 7882   4.043  18.018  14.361 -0.0829  0.3663 -0.0147
 3942OCT     C1 7883   8.023  13.396   1.916 -0.6199 -0.1811  0.1897
 3942OCT     C2 7884   8.452  13.467   1.792  0.3375 -0.1422 -0.0223
 3943OCT     C1 7885   2.873  11.541   4.329  0.0136  0.1623  0.1091
 3943OCT     C2 7886   2.706  12.000   4.368 -0.0617  0.0778  0.3084
 3944OCT     C1 7887  18.568  11.331  19.361 -0.1663  0.3979  0.1541
 3944OCT     C2 7888  18.705  11.098  19.728 -0.1044 -0.1469 -0.0294
 3945OCT     C1 7889  22.999  22.495  17.181  0.0574 -0.0207  0.0527
 3945OCT     C2 7890  23.366  22.729  17.039 -0.1070  0.2219  0.1674
 3946OCT     C1 7891  21.061  21.437  19.015 -0.3127  0.2972  0.2785
 3946OCT     C2 7892  20.749  21.752  18.748 -0.0028 -0.0263  0.0428
 3947OCT     C1 7893  22.274  21.209  13.388 -0.2351 -0.3288 -0.1291
 3947OCT     C2 7894  22.743  21.275  13.511  0.2398  0.5081 -0.2464
 3948OCT     C1 7895  21.378  14.730   0.944 -0.2345 -0.3314  0.1321
 3948OCT     C2 7896  21.369  14.931   0.483 -0.0831 -0.2150  0.0800
 3949OCT     C1 7897  15.145  12.341  16.529  0.1585  0.0976  0.0162
 3949OCT     C2 7898  15.373  11.951  16.526  0.1989  0.3711 -0.2048
 3950OCT     C1 7899   4.456   5.261   3.504  0.2507 -0.2397  0.0897
 3950OCT     C2 7900   4.262   4.811   3.377 -0.5099 -0.1449 -0.1493
 3951OCT     C1 7901   0.673   1.605  16.647 -0.1310 -0.1668 -0.2570
 3951OCT     C2 7902   0.235   1.595  16.443  0.1352 -0.3511  0.0514
 3952OCT     C1 7903   0.049  15.538  22.351 -0.0737 -0.1793  0.1121
 3952OCT     C2 7904   0.493  15.552  22.327  0.4587 -0.1500 -0.0135
 3953OCT     C1 7905  20.152  20.745  22.162 -0.0587 -0.0145  0.0289
 3953OCT     C2 7906  20.529  21.050  22.070 -0.1087 -0.1060  0.2222
 3954OCT     C1 7907   5.403  14.805   0.969  0.1051 -0.0576 -0.1117
 3954OCT     C2 7908   5.531  14.662   0.564 -0.0912  0.1058  0.1715
 3955OCT     C1 7909   0.295   6.611  11.686  0.3653  0.1996  0.0139
 3955OCT     C2 7910  23.651   6.415  11.979  0.1162 -0.0196  0.4027
 3956OCT     C1 7911  16.473  22.615   9.148  0.0291 -0.0036 -0.0966
 3956OCT     C2 7912  16.061  22.546   8.963 -0.3091 -0.0747  0.0165
 3957OCT     C1 7913   9.172  11.697  19.758 -0.0785 -0.0328 -0.1541
 3957OCT     C2 7914   9.558  11.622  19.429  0.1571  0.0350  0.0469
 3958OCT     C1 7915   3.160  20.867  16.693 -0.2333  0.4876  0.1851
 3958OCT     C2 7916   3.550  20.731  16.420 -0.2366 -0.0117  0.3814
 3959OCT     C1 7917   2.874   8.592  10.626  0.2054  0.1432 -0.1635
 3959OCT     C2 7918   3.094   8.347  10.975  0.0230  0.1838  0.0480
 3960OCT     C1 7919  22.381  11.900  16.156  0.2137 -0.3285 -0.1329
 3960OCT     C2 7920  22.429  11.642  15.772 -0.0129 -0.1825  0.2360
 3961OCT     C1 7921  21.509  18.999   2.955 -0.4013  0.3229 -0.0577
 3961OCT     C2 7922  21.086  18.933   2.713  0.0511 -0.1573 -0.1616
 3962OCT     C1 7923  22.748  22.818  15.850 -0.2042  0.0902 -0.0890
 3962OCT     C2 7924  22.950  23.213  15.893 -0.2432  0.1148 -0.1867
 3963OCT     C1 7925   7.426  15.464  13.725  0.0283  0.0738  0.0549
 3963OCT     C2 7926   7.490  15.504  14.194  0.0529  0.0027  0.4346
 3964OCT     C1 7927   9.690   0.721   6.917  0.3900 -0.0478 -0.2682
 3964OCT     C2 7928   9.456   0.811   6.462  0.0988 -0.1364  0.2041
 3965OCT     C1 7929   2.606  10.247  14.704  0.2094  0.1522  0.0606
 3965OCT     C2 7930   2.472  10.664  14.922 -0.1543  0.0088  0.0191
 3966OCT     C1 7931  22.959   6.909   1.705  0.0808  0.0687  0.2844
 3966OCT     C2 7932  22.814   6.812   1.258 -0.3429  0.1592  0.0327
 3967OCT     C1 7933  11.089  22.274  15.019  0.0521  0.0152 -0.3622
 3967OCT     C2 7934  11.122  22.514  15.397 -0.0836 -0.0747 -0.2928
 3968OCT     C1 7935   3.843  21.676  16.994  0.2479 -0.3562  0.0995
 3968OCT     C2 7936   4.310  21.685  16.989  0.1432  0.1341  0.1794
 3969OCT     C1 7937  20.748   3.778   7.493  0.2615 -0.2601  0.3372
 3969OCT     C2 7938  20.474   3.974   7.119  0.1634  0.1084 -0.0486
 3970OCT     C1 7939  16.793  15.449   5.912 -0.1496  0.2035 -0.1605
 3970OCT     C2 7940  17.007  15.019   6.031 -0.2118  0.0258 -0.2982
 3971OCT     C1 7941   7.304   2.413  21.367  0.1661 -0.4169 -0.0306
 3971OCT     C2 7942   7.511   2.029  21.420  0.0028 -0.0834  0.1693
 3972OCT     C1 7943   2.330  18.198  14.168  0.2021  0.2038 -0.1233
 3972OCT     C2 7944   2.684  17.929  14.150 -0.0012  0.2477  0.1504
 3973OCT     C1 7945  20.202  20.151  17.573 -0.0508 -0.0806 -0.0216
 3973OCT     C2 7946  20.596  20.160  17.735 -0.2956 -0.3031  0.1225
 3974OCT     C1 7947  21.584   7.145  15.179 -0.1561  0.1053 -0.0686
 3974OCT     C2 7948  21.925   6.881  15.052  0.2255 -0.0939 -0.0070
 3975OCT     C1 7949  16.515   2.234  18.649  0.1711 -0.0929  0.3647
 3975OCT     C2 7950  16.406   2.692  18.702 -0.1534 -0.1402 -0.0407
 3976OCT     C1 7951  21.767  10.445  11.228 -0.2275 -0.4512  0.0191
 3976OCT     C2 7952  21.634  10.699  11.562 -0.2062  0.1534  0.2144
 3977OCT     C1 7953   8.311   4.804   1.715 -0.0694  0.1166 -0.3824
 3977OCT     C2 7954   8.061   4.910   1.358 -0.3898  0.1011  0.0371
 3978OCT     C1 7955   9.931  14.308   1.543  0.3707  0.0861 -0.3362
 3978OCT     C2 7956   9.698  14.626   1.877  0.0829  0.2337 -0.0738
 3979OCT     C1 7957  11.836  17.137  10.447 -0.1619  0.2065  0.0339
 3979OCT     C2 7958  11.355  17.101  10.452 -0.1672 -0.0927  0.1735
 3980OCT     C1 7959   8.874  19.168   1.948 -0.0797  0.1426 -0.1797
 3980OCT     C2 7960   8.861  18.746   1.810  0.3131 -0.0555  0.0364
 3981OCT     C1 7961  18.513   3.267  23.007 -0.3902  0.3869  0.0990
 3981OCT     C2 7962  18.404   3.411  22.564  0.0536 -0.0117  0.3032
 3982OCT     C1 7963   1.619   6.396   9.271  0.0890 -0.2357  0.3462
 3982OCT     C2 7964   1.594   6.102   8.937  0.1667 -0.1670  0.1529
 3983OCT     C1 7965  10.197  11.620  18.594 -0.0235 -0.1514 -0.5931
 3983OCT     C2 7966  10.640  11.530  18.745  0.3948  0.0494  0.2444
 3984OCT     C1 7967  21.451  22.475   3.828 -0.0520 -0.0006  0.3193
 3984OCT     C2 7968  21.487  22.867   4.052 -0.1776 -0.2393  0.0756
 3985OCT     C1 7969  20.964   9.050  14.627 -0.4215  0.2488  0.3447
 3985OCT     C2 7970  20.650   9.062  14.932 -0.0744 -0.0176 -0.1767
 3986OCT     C1 7971   8.245   1.126   0.781 -0.6557 -0.4148  0.1074
 3986OCT     C2 7972   8.636   1.347   0.839 -0.2190  0.1829 -0.0587
 3987OCT     C1 7973  10.603  20.562  19.064 -0.0135  0.4468 -0.0792
 3987OCT     C2 7974  10.364  20.984  18.994 -0.1527 -0.1814 -0.3672
 3988OCT     C1 7975  23.157   3.270   5.126 -0.1073  0.2432  0.2805
 3988OCT     C2 7976  23.445   3.025   5.392  0.1226  0.0775  0.0426
 3989OCT     C1 7977  13.958  22.634  16.238 -0.2113 -0.0035 -0.1683
 3989OCT     C2 7978  13.532  22.845  16.072 -0.0511 -0.0980 -0.5714
 3990OCT     C1 7979  18.336   1.658   0.349 -0.1852  0.1805  0.0718
 3990OCT     C2 7980  18.076   1.663   0.710 -0.0876  0.3589 -0.5455
 3991OCT     C1 7981   5.606   4.590  20.870  0.1346 -0.1202  0.0884
 3991OCT     C2 7982   5.738   4.196  20.642  0.0642  0.1398 -0.1686
 3992OCT     C1 7983   6.546   6.777   4.630  0.1378  0.0139 -0.0100
 3992OCT     C2 7984   6.997   6.684   4.563 -0.3590 -0.1342  0.4606
 3993OCT     C1 7985   0.966  10.829  17.798  0.1610  0.0479 -0.0324
 3993OCT     C2 7986   0.610  10.557  17.688 -0.4154  0.2103 -0.3142
 3994OCT     C1 7987   0.580  10.976  17.336  0.3005  0.0536 -0.1992
 3994OCT     C2 7988   0.543  11.459  17.324  0.0016 -0.0166  0.0206
 3995OCT     C1 7989  12.741  11.133  12.272  0.0123 -0.3703  0.1926
 3995OCT     C2 7990  12.951  11.101  12.734  0.0499 -0.2053 -0.1234
 3996OCT     C1 7991  23.712  11.557  17.212  0.1759 -0.1721  0.2762
 3996OCT     C2 7992   0.264  11.887  17.067  0.3713 -0.0853 -0.0818
 3997OCT     C1 7993  10.758  14.029  12.488  0.1967 -0.0653  0.0956
 3997OCT     C2 7994  10.591  13.865  12.909 -0.0707 -0.0129  0.0460
 3998OCT     C1 7995  11.032   4.160  21.490 -0.0098  0.0145  0.1041
 3998OCT     C2 7996  10.804   4.485  21.685  0.0434 -0.4186 -0.0134
 3999OCT     C1 7997  21.468   7.497   9.324  0.1293 -0.1562  0.0764
 3999OCT     C2 7998  21.218   7.330   8.959 -0.0068 -0.1524  0.2574
 4000OCT     C1 7999  14.733   0.903  18.605 -0.0608  0.0010 -0.0976
 4000OCT     C2 8000  14.618   1.336  18.521  0.1099  0.0415 -0.0339
 4001OCT     C1 8001  20.651  13.272  21.634 -0.1859  0.0028  0.2099
 4001OCT     C2 8002  21.059  13.343  21.767  0.1394 -0.0919  0.0344
 4002OCT     C1 8003  11.018   6.777   8.230  0.2442  0.0679 -0.0241
 4002OCT     C2 8004  11.341   6.474   8.091  0.1607 -0.2856  0.1070
 4003OCT     C1 8005   4.093   9.053   0.975  0.1347  0.2801  0.0150
 4003OCT     C2 8006   3.844   9.086   1.405  0.1087 -0.0258  0.1763
 4004OCT     C1 8007   6.080   9.558  22.154  0.1463  0.0025 -0.3960
 4004OCT     C2 8008   6.222   9.577  22.556 -0.0314  0.3795 -0.1957
 4005OCT     C1 8009  12.443  20.662  18.567 -0.1000 -0.4237  0.0390
 4005OCT     C2 8010  12.443  20.733  19.050 -0.1956 -0.0964  0.1930
 4006OCT     C1 8011  11.337  12.472   5.642  0.0553  0.0325 -0.0441
 4006OCT     C2 8012  11.741  12.599   5.731 -0.0306  0.2328 -0.1875
 4007OCT     C1 8013  10.836  13.002   8.850 -0.0270 -0.4288 -0.1783
 4007OCT     C2 8014  11.032  13.385   8.696 -0.0912 -0.1303 -0.0406
 4008OCT     C1 8015  22.841  16.695  14.207 -0.1931  0.0248 -0.0662
 4008OCT     C2 8016  22.561  16.437  13.938  0.4151  0.1551 -0.3161
 4009OCT     C1 8017   8.309  20.967  23.607  0.0005 -0.3024 -0.1220
 4009OCT     C2 8018   7.942  20.718  23.513 -0.1662  0.3496  0.1057
 4010OCT     C1 8019  10.125  14.758   9.462 -0.1729 -0.1729 -0.2996
 4010OCT     C2 8020  10.562  14.659   9.327  0.1731  0.2403  0.0074
 4011OCT     C1 8021   4.217   3.411  23.390 -0.0016 -0.0307 -0.5926
 4011OCT     C2 8022   4.030   3.705  23.093  0.0042 -0.1055 -0.0014
 4012OCT     C1 8023  19.586   6.828  13.948 -0.0957  0.0851  0.1529
 4012OCT     C2 8024  19.511   6.774  13.481  0.1231  0.2778 -0.1086
 4013OCT     C1 8025  12.094  16.794  14.009 -0.4278  0.3370 -0.3977
 4013OCT     C2 8026  11.674  16.643  14.051  0.2170  0.2557  0.3439
 4014OCT     C1 8027  16.389  12.381  17.836 -0.0090 -0.0973 -0.0856
 4014OCT     C2 8028  16.270  12.307  18.287  0.1236  0.2024 -0.1377
 4015OCT     C1 8029  12.872  15.534  19.235 -0.2612 -0.1424  0.1990
 4015OCT     C2 8030  12.769  15.784  19.574  0.0108 -0.0655  0.1156
 4016OCT     C1 8031  10.272  17.716  17.004  0.0701  0.2282 -0.2554
 4016OCT     C2 8032  10.237  17.360  17.315 -0.3194  0.0282  0.3134
 4017OCT     C1 8033   1.270  14.316   6.177  0.2014 -0.0339  0.0670
 4017OCT     C2 8034   1.009  14.103   6.451  0.2449 -0.1693  0.1170
 4018OCT     C1 8035   4.293   7.840  22.574 -0.1097  0.1608  0.0692
 4018OCT     C2 8036   4.287   7.459  22.800 -0.0489  0.2136  0.1422
 4019OCT     C1 8037  17.420   3.205   4.284  0.0894  0.0572 -0.1498
 4019OCT     C2 8038  17.746   2.970   4.077  0.0539  0.2720  0.3659
 4020OCT     C1 8039  13.270  22.919   1.036 -0.1988  0.0227  0.4171
 4020OCT     C2 8040  12.894  23.215   0.882  0.1080  0.0366  0.1048
 4021OCT     C1 8041  13.862  18.377   4.668 -0.3974 -0.0419 -0.3468
 4021OCT     C2 8042  13.469  18.336   4.377 -0.3816 -0.3030  0.3660
 4022OCT     C1 8043   5.239   3.046  18.501  0.2091 -0.1844  0.0598
 4022OCT     C2 8044   4.967   3.432  18.521 -0.2325  0.1317  0.1367
 4023OCT     C1 8045   7.968   1.060  13.953  0.1342  0.2548 -0.3191
 4023OCT     C2 8046   7.729   1.015  14.326 -0.5271  0.0529  0.1178
 4024OCT     C1 8047  19.199  11.357   6.197 -0.2216  0.5617  0.1503
 4024OCT     C2 8048  19.318  11.158   6.605  0.0181  0.1178 -0.4202
 4025OCT     C1 8049   5.837   6.514  20.149  0.3532 -0.1320 -0.1458
 4025OCT     C2 8050   6.209   6.618  20.380  0.2685 -0.1389  0.1809
 4026OCT     C1 8051  19.627   3.826  13.817 -0.0143  0.0642 -0.1101
 4026OCT     C2 8052  19.435   3.402  13.765 -0.1868 -0.0678 -0.0549
 4027OCT     C1 8053  15.990  10.064   5.089 -0.4085 -0.3471  0.1814
 4027OCT     C2 8054  15.601  10.194   5.294  0.1308 -0.2322  0.1229
 4028OCT     C1 8055  19.574  12.761  18.080 -0.2114 -0.1166 -0.0704
 4028OCT     C2 8056  19.657  12.455  17.735  0.1830 -0.0531  0.0721
 4029OCT     C1 8057  18.979   0.518  16.156  0.0399  0.2069  0.0080
 4029OCT     C2 8058  19.434   0.623  16.189  0.0646 -0.1065  0.4023
 4030OCT     C1 8059   0.995  21.512   1.161 -0.2437 -0.1427  0.2509
 4030OCT     C2 8060   0.968  21.053   0.959  0.1569 -0.1648 -0.0179
 4031OCT     C1 8061   3.266   4.745   5.407  0.0036  0.2945  0.1453
 4031OCT     C2 8062   3.663   4.763   5.721 -0.0139  0.1279 -0.0155
 4032OCT     C1 8063  13.342   0.494  19.434  0.0619  0.2187 -0.1077
 4032OCT     C2 8064  13.084   0.824  19.266  0.1285 -0.3315  0.0280
 4033OCT     C1 8065  14.504   4.513  23.603  0.0084  0.1408 -0.2518
 4033OCT     C2 8066  14.243   4.595   0.193 -0.0875  0.1475  0.1257
 4034OCT     C1 8067  16.292   4.944  22.974 -0.2275  0.0635 -0.1126
 4034OCT     C2 8068  16.069   4.553  23.026  0.2210  0.1754  0.1045
 4035OCT     C1 8069   4.293  23.167  22.768 -0.0333 -0.1512 -0.5646
 4035OCT     C2 8070   4.526  23.553  22.692 -0.1128 -0.1770 -0.2916
 4036OCT     C1 8071  15.206  23.059   1.149 -0.2440 -0.1875  0.0254
 4036OCT     C2 8072  14.918  22.709   0.987  0.2458 -0.5048  0.0563
 4037OCT     C1 8073   6.316   0.705  17.953  0.4185  0.0932 -0.1531
 4037OCT     C2 8074   6.527   0.526  17.555  0.2931  0.2463  0.0684
 4038OCT     C1 8075  23.437   9.023  20.637  0.3357  0.0806  0.1829
 4038OCT     C2 8076  22.972   9.169  20.624  0.1022 -0.0045 -0.2207
 4039OCT     C1 8077   1.675  11.608   6.688  0.3096 -0.1613  0.2086
 4039OCT     C2 8078   2.067  11.810   6.661 -0.1699 -0.3161 -0.0708
 4040OCT     C1 8079  21.713   9.390  22.358 -0.0527  0.3007 -0.0368
 4040OCT     C2 8080  21.575   9.761  22.185 -0.1849  0.0552 -0.1530
 4041OCT     C1 8081  22.828   2.535  21.985 -0.0544 -0.1563 -0.0735
 4041OCT     C2 8082  22.883   2.625  21.526 -0.0093  0.0690  0.2876
 4042OCT     C1 8083   5.459  19.320  12.436  0.0802  0.1630 -0.1364
 4042OCT     C2 8084   5.658  18.931  12.376 -0.2190  0.2011 -0.0452
 4043OCT     C1 8085   5.424   7.350  18.072 -0.0484 -0.1323 -0.3073
 4043OCT     C2 8086   5.238   7.502  17.673 -0.2596  0.0140  0.3270
 4044OCT     C1 8087  12.057   3.376  10.682 -0.2958  0.1279 -0.1515
 4044OCT     C2 8088  12.349   3.603  10.998 -0.0253  0.0447  0.0655
 4045OCT     C1 8089  13.944  11.890  16.510 -0.2548  0.0353  0.0048
 4045OCT     C2 8090  13.594  11.648  16.476  0.2225  0.3861  0.2925
 4046OCT     C1 8091  17.979  22.084   8.133  0.1339 -0.0757 -0.0972
 4046OCT     C2 8092  17.748  22.140   7.770 -0.0936 -0.0194  0.0033
 4047OCT     C1 8093  23.646  15.474   8.733 -0.2359  0.3392  0.0150
 4047OCT     C2 8094  23.597  15.058   8.561  0.0752 -0.4630  0.0273
 4048OCT     C1 8095   3.346  17.013  20.654  0.0455  0.2209  0.0591
 4048OCT     C2 8096   3.086  17.155  20.286  0.3193  0.2141 -0.1969
 4049OCT     C1 8097   4.227  16.101  13.367  0.0759  0.2286  0.1318
 4049OCT     C2 8098   4.121  16.533  13.233 -0.1542 -0.1126 -0.1048
 4050OCT     C1 8099   6.183   7.800   2.374  0.0893 -0.2287  0.0065
 4050OCT     C2 8100   6.625   7.856   2.617  0.0559  0.0444  0.4369
 4051OCT     C1 8101   7.913   2.247  21.227  0.1685 -0.0986  0.5492
 4051OCT     C2 8102   8.245   1.983  21.055  0.0498  0.1306  0.0957
 4052OCT     C1 8103  15.456  13.810   7.287 -0.2441  0.1646  0.0888
 4052OCT     C2 8104  15.315  14.032   6.914  0.3501 -0.1380 -0.0128
 4053OCT     C1 8105   0.072   8.748  13.759  0.0081  0.2872 -0.0886
 4053OCT     C2 8106  23.391   8.812  14.018 -0.2504  0.1109  0.2501
 4054OCT     C1 8107  18.446  22.976  19.023  0.0326 -0.0481  0.1413
 4054OCT     C2 8108  18.697  22.998  19.432 -0.3021 -0.0339  0.2651
 4055OCT     C1 8109  17.838   7.472  18.401  0.0661 -0.0448  0.1625
 4055OCT     C2 8110  17.787   7.919  18.499  0.4116  0.0329  0.2677
 4056OCT     C1 8111   0.595  20.381   3.261 -0.1086 -0.1609  0.0612
 4056OCT     C2 8112   0.903  20.530   3.580  0.0958 -0.1138 -0.3053
 4057OCT     C1 8113  22.230  13.426  12.757  0.0579 -0.0687 -0.1704
 4057OCT     C2 8114  22.394  13.158  13.113  0.6233 -0.2311  0.0832
 4058OCT     C1 8115   5.842   4.224  20.041 -0.4019  0.1273 -0.0024
 4058OCT     C2 8116   5.677   4.635  19.876 -0.3045 -0.0472 -0.0978
 4059OCT     C1 8117   4.995   0.487  10.190  0.2087  0.0747 -0.0748
 4059OCT     C2 8118   5.182   0.862  10.442  0.0648  0.3011  0.0172
 4060OCT     C1 8119  16.425  18.158  15.653 -0.2679  0.0019 -0.0138
 4060OCT     C2 8120  16.502  17.810  15.347 -0.0248 -0.0677 -0.2087
 4061OCT     C1 8121   8.554   2.170   5.585  0.2044 -0.0164  0.1192
 4061OCT     C2 8122   8.205   1.938   5.335  0.0225  0.2917  0.1708
 4062OCT     C1 8123  14.271  19.568  20.131  0.2905 -0.2853 -0.1664
 4062OCT     C2 8124  13.893  19.449  20.407  0.0242 -0.0933 -0.0807
 4063OCT     C1 8125  10.548  15.458   5.635 -0.3158  0.0697 -0.3318
 4063OCT     C2 8126  10.118  15.428   5.647 -0.0737 -0.0503 -0.2277
 4064OCT     C1 8127   8.909  13.711  21.167 -0.0632  0.1300  0.2183
 4064OCT     C2 8128   8.897  13.249  20.992 -0.3228 -0.0545  0.1699
 4065OCT     C1 8129  10.657  12.340  21.034  0.2126 -0.2226 -0.0106
 4065OCT     C2 8130  10.185  12.225  21.037 -0.2266  0.1007 -0.2232
 4066OCT     C1 8131  20.607   6.320  21.316  0.1703  0.0760  0.3544
 4066OCT     C2 8132  20.811   5.930  21.478  0.4032  0.1893 -0.3926
 4067OCT     C1 8133  20.048  12.240  20.601 -0.3213 -0.3661  0.1115
 4067OCT     C2 8134  20.494  12.181  20.793 -0.0235 -0.0903 -0.1862
 4068OCT     C1 8135  10.711  12.003  21.848  0.0167  0.0450 -0.1643
 4068OCT     C2 8136  10.514  11.959  22.274 -0.0973 -0.3745  0.0908
 4069OCT     C1 8137   5.200   9.292  12.753 -0.2513  0.2488 -0.1856
 4069OCT     C2 8138   5.269   8.852  12.693  0.1629 -0.1175  0.1042
 4070OCT     C1 8139  10.947   3.893   0.652  0.2402 -0.0201  0.2240
 4070OCT     C2 8140  10.773   3.977   1.067 -0.1506 -0.3003  0.2935
 4071OCT     C1 8141  21.137   9.420  17.145 -0.0324  0.1084 -0.1528
 4071OCT     C2 8142  20.931   9.650  16.777 -0.1242  0.1393  0.0872
 4072OCT     C1 8143   1.254  20.129   1.288 -0.2314  0.2033  0.1189
 4072OCT     C2 8144   1.231  19.822   0.877  0.3843  0.1534 -0.1834
 4073OCT     C1 8145   2.498   5.867   7.401  0.1964 -0.4002 -0.1541
 4073OCT     C2 8146   2.625   6.311   7.254  0.5271 -0.1167  0.0294
 4074OCT     C1 8147   0.249   4.564   7.598 -0.1872  0.0556 -0.1088
 4074OCT     C2 8148   0.270   4.088   7.528 -0.1638  0.3971 -0.1950
 4075OCT     C1 8149   1.802   7.758   9.647  0.0981 -0.0575  0.5783
 4075OCT     C2 8150   1.989   8.090   9.865  0.3647 -0.0277 -0.0193
 4076OCT     C1 8151  11.782   7.492  18.227 -0.0596 -0.1126  0.0637
 4076OCT     C2 8152  11.611   7.824  18.407  0.3089  0.1771  0.0946
 4077OCT     C1 8153   2.032  11.087  10.941  0.1911  0.3662  0.0453
 4077OCT     C2 8154   2.048  10.639  11.000  0.0716  0.2505 -0.0495
 4078OCT     C1 8155  17.046  16.719  15.493  0.1224  0.0387  0.1065
 4078OCT     C2 8156  17.022  16.581  15.064 -0.1690 -0.0722  0.0503
 4079OCT     C1 8157  10.483   2.759   5.438  0.3369 -0.0589  0.0716
 4079OCT     C2 8158  10.066   2.524   5.426  0.1198 -0.0745  0.3989
 4080OCT     C1 8159  19.621   9.986   8.388  0.0221 -0.2855  0.1316
 4080OCT     C2 8160  19.786   9.678   8.081 -0.1947  0.3470  0.4261
 4081OCT     C1 8161   3.032  18.779  10.522 -0.3269 -0.1456  0.1134
 4081OCT     C2 8162   3.353  19.078  10.741 -0.4112  0.0575 -0.3963
 4082OCT     C1 8163  22.855  17.784  20.071  0.0190  0.1321 -0.1675
 4082OCT     C2 8164  22.609  17.380  20.179 -0.1697 -0.3805 -0.2109
 4083OCT     C1 8165  12.866   7.656   8.670 -0.1331  0.2256 -0.0278
 4083OCT     C2 8166  12.945   7.772   9.082  0.3114 -0.1986  0.0890
 4084OCT     C1 8167  10.093  16.954  20.562 -0.1224 -0.0276 -0.2480
 4084OCT     C2 8168   9.801  17.061  20.152  0.4880  0.3749 -0.2294
 4085OCT     C1 8169  10.657   7.418  10.405 -0.1947  0.3055 -0.1496
 4085OCT     C2 8170  11.046   7.294  10.667 -0.1338  0.3414  0.2277
 4086OCT     C1 8171  11.441  16.544  11.406  0.2144 -0.0977  0.4719
 4086OCT     C2 8172  11.670  16.389  10.988  0.3528 -0.1447 -0.1955
 4087OCT     C1 8173  16.930   6.988  16.367 -0.1755  0.1454  0.2319
 4087OCT     C2 8174  17.061   6.583  16.584 -0.0439  0.2478  0.1993
 4088OCT     C1 8175   9.346  20.418  12.648 -0.0837  0.1792 -0.1590
 4088OCT     C2 8176   9.105  20.111  12.951 -0.3116  0.0698  0.1311
 4089OCT     C1 8177  23.064   4.852  10.658 -0.0862  0.2721 -0.3622
 4089OCT     C2 8178  23.283   4.466  10.742  0.0605  0.2112 -0.0554
 4090OCT     C1 8179   5.924  22.765  23.437 -0.1380 -0.0796  0.0327
 4090OCT     C2 8180   6.287  22.469  23.371  0.1434 -0.0021 -0.0818
 4091OCT     C1 8181   4.639   1.368   9.737  0.2347  0.0252  0.2697
 4091OCT     C2 8182   4.740   1.718   9.979  0.2468  0.4128 -0.0696
 4092OCT     C1 8183  10.529  10.498  18.228 -0.0326 -0.0735  0.1640
 4092OCT     C2 8184  10.183  10.796  18.313 -0.1762 -0.0070 -0.0657
 4093OCT     C1 8185  10.301   4.386   0.273 -0.2695 -0.0645  0.1270
 4093OCT     C2 8186   9.973   4.408   0.618  0.0533 -0.0333 -0.0096
 4094OCT     C1 8187  11.814  14.315  19.649  0.0080  0.0406 -0.2864
 4094OCT     C2 8188  12.221  14.197  19.775  0.0978  0.0713  0.3445
 4095OCT     C1 8189   7.769   8.242  19.559  0.1474 -0.2606  0.1680
 4095OCT     C2 8190   7.561   8.657  19.634  0.0750  0.0410 -0.2832
 4096OCT     C1 8191  17.596   4.770   8.788 -0.0855  0.3212  0.1229
 4096OCT     C2 8192  17.776   4.492   9.112 -0.1710  0.0661 -0.1691
 4097OCT     C1 8193   4.169   8.667   4.069  0.2115  0.2389  0.0155
 4097OCT     C2 8194   4.426   9.068   4.009  0.1225 -0.0517  0.0576
 4098OCT     C1 8195   5.276  21.436   6.987  0.0726 -0.1541 -0.2343
 4098OCT     C2 8196   4.820  21.598   7.080 -0.4271  0.4445  0.0197
 4099OCT     C1 8197  20.606  18.955  16.924 -0.0732 -0.0430  0.2918
 4099OCT     C2 8198  21.084  18.844  16.986  0.1862 -0.0026  0.2190
 4100OCT     C1 8199  19.871   6.417   1.277  0.4955  0.0977  0.0929
 4100OCT     C2 8200  19.707   6.312   1.696  0.3442 -0.1430  0.0660
 4101OCT     C1 8201  13.845  21.328   5.676  0.0195  0.0913 -0.1733
 4101OCT     C2 8202  13.428  21.563   5.573 -0.2963  0.2235 -0.1723
 4102OCT     C1 8203   5.695  18.580  14.514 -0.4572 -0.5844 -0.0592
 4102OCT     C2 8204   5.549  18.131  14.652  0.1540  0.3882  0.0167
 4103OCT     C1 8205   2.712  21.688  15.936 -0.0730 -0.1627 -0.1142
 4103OCT     C2 8206   2.998  21.407  15.760 -0.0380  0.2064 -0.0863
 4104OCT     C1 8207  14.017   5.943   1.597 -0.0201 -0.2945 -0.2259
 4104OCT     C2 8208  13.996   5.548   1.901  0.0445  0.0754  0.0641
 4105OCT     C1 8209   6.322  10.958  13.467  0.2981 -0.1386  0.1410
 4105OCT     C2 8210   6.606  10.723  13.812  0.3584  0.3418  0.3300
 4106OCT     C1 8211  21.128  12.205   1.353  0.2702  0.1303  0.2788
 4106OCT     C2 8212  21.107  11.777   1.542  0.1797  0.0288  0.0273
 4107OCT     C1 8213   5.856  17.407  13.001 -0.0812 -0.0471  0.1153
 4107OCT     C2 8214   5.676  16.999  12.920 -0.1793  0.1079 -0.0163
 4108OCT     C1 8215  19.805  11.281   2.286 -0.1591  0.2628  0.0470
 4108OCT     C2 8216  19.977  11.063   1.869 -0.1022  0.2502 -0.0564
 4109OCT     C1 8217  18.410  21.006   2.890 -0.0918  0.4011  0.0781
 4109OCT     C2 8218  18.225  21.015   2.435 -0.1625  0.1476  0.0760
 4110OCT     C1 8219   0.568   8.963   5.463 -0.6236 -0.3376  0.2212
 4110OCT     C2 8220   0.591   9.124   5.032 -0.1323 -0.0602 -0.1573
 4111OCT     C1 8221  16.183   8.434  18.158  0.1679  0.2232  0.2885
 4111OCT     C2 8222  15.859   8.177  18.057 -0.1241 -0.2125  0.0527
 4112OCT     C1 8223   6.181   1.825   8.968 -0.0859 -0.2343  0.3173
 4112OCT     C2 8224   6.126   1.603   9.379 -0.2019  0.2197  0.2739
 4113OCT     C1 8225   1.975   9.554  10.971 -0.2402 -0.0096 -0.0321
 4113OCT     C2 8226   2.133   9.189  11.260 -0.0726 -0.2392  0.1287
 4114OCT     C1 8227   9.523  22.506   6.346 -0.0050 -0.1059 -0.0065
 4114OCT     C2 8228   9.453  22.651   5.880  0.2520  0.0197 -0.0828
 4115OCT     C1 8229   7.896   0.905  10.969  0.0887  0.2793  0.1867
 4115OCT     C2 8230   7.658   1.276  11.012  0.1412  0.0997  0.2475
 4116OCT     C1 8231  14.435  10.758  11.953 -0.0976  0.1724  0.1522
 4116OCT     C2 8232  14.121  10.454  12.126 -0.1891  0.1750 -0.2118
 4117OCT     C1 8233  14.044  17.757   1.029 -0.2005  0.1981 -0.3142
 4117OCT     C2 8234  13.907  17.957   0.652  0.1068 -0.0325  0.4546
 4118OCT     C1 8235  11.347  20.658  22.678 -0.3659 -0.0407  0.0275
 4118OCT     C2 8236  11.351  20.987  22.290 -0.2610 -0.4038  0.0339
 4119OCT     C1 8237   7.549  16.555  19.098 -0.0863  0.0140  0.1579
 4119OCT     C2 8238   7.795  16.332  19.410 -0.0057  0.1369  0.0798
 4120OCT     C1 8239  18.072   2.109   3.086 -0.0708  0.0785 -0.4219
 4120OCT     C2 8240  17.963   2.576   3.034  0.0216 -0.0899  0.2546
 4121OCT     C1 8241   0.549  20.177  16.816  0.6765  0.2143 -0.1137
 4121OCT     C2 8242   0.534  19.977  16.356  0.1768 -0.0466 -0.0639
 4122OCT     C1 8243  12.887  17.777  13.197  0.1918  0.3579  0.3615
 4122OCT     C2 8244  12.548  17.941  12.946 -0.0589  0.1905  0.1790
 4123OCT     C1 8245   8.406  19.432  15.878  0.0515  0.1402  0.3638
 4123OCT     C2 8246   8.467  19.889  16.112  0.0621 -0.1363 -0.3380
 4124OCT     C1 8247  12.857  19.728   4.665 -0.2613 -0.1285 -0.1889
 4124OCT     C2 8248  12.472  19.520   4.888 -0.0954  0.1928  0.0824
 4125OCT     C1 8249  13.296  12.561  18.086  0.0320 -0.4454  0.0240
 4125OCT     C2 8250  13.352  12.174  17.856 -0.3580 -0.1482 -0.1836
 4126OCT     C1 8251   8.869   1.889  15.848 -0.2276 -0.0889 -0.0632
 4126OCT     C2 8252   9.295   1.757  15.650 -0.3286 -0.2618 -0.0517
 4127OCT     C1 8253  14.278   0.516  13.948  0.0705  0.1484  0.3265
 4127OCT     C2 8254  14.484   0.087  13.844  0.1999 -0.0167 -0.1797
 4128OCT     C1 8255  14.146  10.247  17.206  0.0871 -0.3225 -0.4303
 4128OCT     C2 8256  13.961   9.847  17.046 -0.1106 -0.3389 -0.3149
 4129OCT     C1 8257   0.188  22.336   3.592  0.3658  0.1585  0.3001
 4129OCT     C2 8258   0.302  21.897   3.430 -0.2933  0.3431  0.3151
 4130OCT     C1 8259  12.639   4.448   3.051 -0.0902 -0.1709 -0.3868
 4130OCT     C2 8260  12.300   4.620   3.418  0.2956  0.1332 -0.1905
 4131OCT     C1 8261   6.997   2.409  22.826  0.0029  0.2887  0.0906
 4131OCT     C2 8262   6.640   2.678  22.668  0.2525  0.0363 -0.3740
 4132OCT     C1 8263  18.668   5.542  20.381  0.1413 -0.4045  0.0579
 4132OCT     C2 8264  18.778   5.046  20.323 -0.0057 -0.1986 -0.2698
 4133OCT     C1 8265  14.765  13.372  11.615  0.1697  0.0659  0.0817
 4133OCT     C2 8266  14.326  13.458  11.764 -0.1196 -0.2637  0.6172
 4134OCT     C1 8267   2.232   5.667   0.877  0.2456  0.1888  0.0276
 4134OCT     C2 8268   2.618   5.904   1.059 -0.1733  0.0153 -0.3209
 4135OCT     C1 8269  10.521   8.657  15.743  0.1457 -0.0206 -0.3304
 4135OCT     C2 8270  10.284   9.031  15.979 -0.0737  0.0091  0.0750
 4136OCT     C1 8271   4.044  22.076  20.930  0.0193 -0.4985  0.1359
 4136OCT     C2 8272   3.710  22.143  21.132  0.1913 -0.1674  0.0299
 4137OCT     C1 8273   6.828  16.027   8.531  0.1381  0.0023  0.6037
 4137OCT     C2 8274   6.443  16.029   8.234 -0.1703  0.0184 -0.3212
 4138OCT     C1 8275   3.989   0.418  17.053 -0.0939  0.0953  0.4435
 4138OCT     C2 8276   4.051   0.170  16.688  0.5401  0.2041 -0.0955
 4139OCT     C1 8277   2.753  18.170  16.254  0.1364  0.0295 -0.1539
 4139OCT     C2 8278   2.442  17.846  16.326  0.2471 -0.1194 -0.1567
 4140OCT     C1 8279   5.812  21.305   1.800  0.0618  0.1391  0.4357
 4140OCT     C2 8280   5.680  21.548   2.207 -0.1058  0.3345  0.1522
 4141OCT     C1 8281   7.431  11.942  23.234  0.1175 -0.1863 -0.3150
 4141OCT     C2 8282   7.654  12.279  23.509  0.0846  0.2353 -0.2049
 4142OCT     C1 8283  12.453   2.531  11.057 -0.1588 -0.2250  0.0669
 4142OCT     C2 8284  12.628   2.824  10.718 -0.0783 -0.2315  0.2199
 4143OCT     C1 8285  17.050  14.874  13.458  0.1149  0.0721 -0.3642
 4143OCT     C2 8286  17.025  14.450  13.552  0.3185 -0.0971  0.1911
 4144OCT     C1 8287  11.452  10.037  18.790  0.4782 -0.0872 -0.1252
 4144OCT     C2 8288  11.164   9.685  18.522 -0.0965  0.3409  0.1112
 4145OCT     C1 8289  15.760  17.101  17.206  0.3039  0.2027 -0.2477
 4145OCT     C2 8290  15.782  17.061  16.750 -0.0055 -0.2737  0.1905
 4146OCT     C1 8291   7.695   0.746   4.911 -0.1212 -0.2056 -0.0569
 4146OCT     C2 8292   7.683   1.109   5.129 -0.2728  0.1238  0.3554
 4147OCT     C1 8293  12.812  21.117  22.008  0.1219  0.0436  0.4402
 4147OCT     C2 8294  12.862  20.640  22.021 -0.1989  0.2315 -0.0336
 4148OCT     C1 8295  18.726  21.868  10.651  0.2415 -0.2815 -0.0748
 4148OCT     C2 8296  18.769  22.172  11.013  0.1530  0.3305  0.0773
 4149OCT     C1 8297  18.884  10.207   1.525 -0.2117  0.0018  0.1155
 4149OCT     C2 8298  19.309  10.304   1.392 -0.4301  0.2783  0.1550
 4150OCT     C1 8299  11.124  19.275  13.459  0.2011  0.0292 -0.5815
 4150OCT     C2 8300  11.383  18.882  13.657  0.1088  0.0024  0.0973
 4151OCT     C1 8301  22.539   8.349   0.624 -0.0360 -0.0672  0.5032
 4151OCT     C2 8302  22.087   8.232   0.739  0.4997 -0.2934  0.1265
 4152OCT     C1 8303   3.816   0.064  13.012 -0.0829 -0.1240 -0.0666
 4152OCT     C2 8304   3.545   0.042  13.373 -0.1875  0.2717 -0.0152
 4153OCT     C1 8305  16.254  19.148   4.490  0.4773 -0.2598 -0.2709
 4153OCT     C2 8306  15.903  18.897   4.284  0.0809  0.0222  0.1095
 4154OCT     C1 8307   1.663   3.709  10.736  0.2078  0.1617  0.2030
 4154OCT     C2 8308   1.141   3.776  10.663 -0.3975 -0.1402 -0.2300
 4155OCT     C1 8309   1.592   2.340   6.312 -0.0264  0.2414  0.1804
 4155OCT     C2 8310   2.001   2.416   6.578  0.3643 -0.1165  0.0863
 4156OCT     C1 8311   2.359   9.424   0.666  0.3128 -0.0803  0.0062
 4156OCT     C2 8312   2.012   9.177   0.874  0.0686 -0.0460 -0.0617
 4157OCT     C1 8313  19.541  23.697  21.637 -0.2761 -0.0205  0.3436
 4157OCT     C2 8314  19.105   0.074  21.480 -0.0858  0.0259 -0.1671
 4158OCT     C1 8315   7.366   8.570  13.706 -0.1073  0.1498  0.1404
 4158OCT     C2 8316   7.491   8.995  13.773 -0.1779  0.0681  0.1628
 4159OCT     C1 8317   9.701  22.228  11.767  0.3183  0.2167 -0.0483
 4159OCT     C2 8318   9.926  21.803  11.810 -0.1896 -0.0132  0.1392
 4160OCT     C1 8319   1.593  19.294   3.106  0.1557  0.1687 -0.2943
 4160OCT     C2 8320   1.256  19.700   3.086 -0.3830 -0.1170  0.0783
 4161OCT     C1 8321  18.369   1.194   6.668 -0.0368 -0.1519  0.0962
 4161OCT     C2 8322  18.587   1.538   6.789 -0.2087  0.3002 -0.0554
 4162OCT     C1 8323  11.425   1.718  11.622  0.0233  0.1131 -0.0493
 4162OCT     C2 8324  11.088   1.825  11.336  0.1041 -0.0766  0.0709
 4163OCT     C1 8325   3.342  10.835   4.946 -0.1438 -0.3758 -0.1744
 4163OCT     C2 8326   3.076  11.029   5.292  0.0208 -0.4240  0.1207
 4164OCT     C1 8327   6.011  20.993  11.584 -0.3638  0.1917 -0.1495
 4164OCT     C2 8328   5.627  21.179  11.705  0.2286  0.3776 -0.0825
 4165OCT     C1 8329   3.413   3.080  13.106 -0.1316  0.0693  0.1835
 4165OCT     C2 8330   3.823   2.916  13.086  0.1950  0.0228 -0.1015
 4166OCT     C1 8331  22.834  19.600  20.796 -0.0758  0.3186 -0.0530
 4166OCT     C2 8332  22.628  19.541  21.229 -0.3398  0.0577 -0.0127
 4167OCT     C1 8333   2.133   3.099  18.561  0.1958  0.0262 -0.2483
 4167OCT     C2 8334   1.737   3.221  18.791 -0.5185 -0.0862 -0.1713
 4168OCT     C1 8335   2.990  22.287  15.080  0.1258 -0.1622  0.0629
 4168OCT     C2 8336   3.406  22.115  15.139  0.4737  0.1879 -0.0133
 4169OCT     C1 8337  20.269  21.118  20.279 -0.2134 -0.1398 -0.3403
 4169OCT     C2 8338  20.352  21.544  20.481  0.6342 -0.0324 -0.3532
 4170OCT     C1 8339  10.590  18.325   4.381  0.0532  0.0693  0.3868
 4170OCT     C2 8340  10.232  18.000   4.431 -0.2799  0.2560 -0.1025
 4171OCT     C1 8341   9.427   1.637   1.251 -0.2450  0.2272  0.0074
 4171OCT     C2 8342   9.160   1.405   0.950 -0.4160 -0.7098 -0.1920
 4172OCT     C1 8343  18.686  13.431   6.397 -0.2649  0.2031 -0.0161
 4172OCT     C2 8344  19.056  13.776   6.446 -0.0086  0.1158  0.0722
 4173OCT     C1 8345   7.644  16.536  17.074 -0.2039 -0.1510  0.1577
 4173OCT     C2 8346   7.985  16.202  16.997  0.1055 -0.2769  0.3415
 4174OCT     C1 8347  10.017  19.556   1.878  0.1855 -0.0184 -0.1514
 4174OCT     C2 8348  10.381  19.486   2.140  0.1819  0.3178 -0.0995
 4175OCT     C1 8349  12.490  11.182   4.927 -0.0779 -0.0656 -0.1360
 4175OCT     C2 8350  12.884  11.302   4.679  0.2519  0.1251  0.0934
 4176OCT     C1 8351   5.379  18.493  10.702 -0.0229  0.1850  0.0915
 4176OCT     C2 8352   4.948  18.651  10.721  0.2502 -0.2537 -0.1545
 4177OCT     C1 8353   5.209  14.957  10.466  0.2110  0.0114  0.4065
 4177OCT     C2 8354   5.026  14.878  10.912  0.1813  0.1360  0.1143
 4178OCT     C1 8355   5.793   6.118  22.882 -0.1132  0.1716  0.1707
 4178OCT     C2 8356   6.037   6.236  22.445 -0.1255  0.1276 -0.4586
 4179OCT     C1 8357  10.405   8.029   4.929 -0.0381 -0.0856 -0.0730
 4179OCT     C2 8358  10.342   7.834   4.508 -0.1532 -0.0138  0.0534
 4180OCT     C1 8359   7.496   4.741  15.946 -0.4324  0.1741  0.0603
 4180OCT     C2 8360   7.574   4.593  15.487 -0.4616 -0.1689 -0.1311
 4181OCT     C1 8361  22.949  16.728  20.137  0.0965  0.0345 -0.0672
 4181OCT     C2 8362  23.328  16.985  20.064  0.2037  0.2158  0.2317
 4182OCT     C1 8363  19.714   1.937   7.155 -0.0793 -0.0512  0.1904
 4182OCT     C2 8364  19.662   2.024   6.703  0.2621  0.2641 -0.0187
 4183OCT     C1 8365  11.973  11.266  18.860  0.1045  0.3111 -0.0644
 4183OCT     C2 8366  12.095  11.415  18.403  0.0791  0.0291 -0.1573
 4184OCT     C1 8367  14.389   8.363  22.650 -0.5666 -0.0441 -0.0782
 4184OCT     C2 8368  14.759   7.992  22.750 -0.0559 -0.0091 -0.0958
 4185OCT     C1 8369  22.591  17.164  11.318 -0.3738  0.0725 -0.0899
 4185OCT     C2 8370  22.182  17.281  11.347  0.0938  0.1450 -0.6385
 4186OCT     C1 8371   4.797  16.082  19.036  0.0274 -0.2884  0.1380
 4186OCT     C2 8372   4.359  16.014  19.103  0.2289  0.0574  0.2516
 4187OCT     C1 8373  22.516   4.891  18.628 -0.3265 -0.0646  0.3569
 4187OCT     C2 8374  22.087   4.608  18.607  0.3253  0.0333 -0.0675
 4188OCT     C1 8375  16.362   3.744  17.398 -0.1329 -0.1922  0.0065
 4188OCT     C2 8376  15.925   3.669  17.477 -0.0596 -0.1518 -0.1460
 4189OCT     C1 8377  17.844  20.510   0.782  0.0004  0.1011  0.2336
 4189OCT     C2 8378  18.208  20.393   1.073 -0.0665 -0.0298  0.0800
 4190OCT     C1 8379  16.481   8.539   2.637 -0.1607  0.3068  0.1137
 4190OCT     C2 8380  16.302   8.397   3.044  0.2331 -0.0543  0.0363
 4191OCT     C1 8381  11.549  10.454  21.409 -0.0247  0.1912  0.2855
 4191OCT     C2 8382  11.830  10.460  21.742  0.2560 -0.1689  0.0133
 4192OCT     C1 8383   9.647  11.997  21.147 -0.4913  0.1179  0.0406
 4192OCT     C2 8384   9.500  11.586  20.972  0.4031  0.2507  0.0294
 4193OCT     C1 8385  20.756  21.507  21.473  0.2889 -0.0548  0.1486
 4193OCT     C2 8386  21.050  21.298  21.813  0.2166  0.1303 -0.2033
 4194OCT     C1 8387  16.969  10.871   9.939  0.2077 -0.2566 -0.1462
 4194OCT     C2 8388  16.839  11.274  10.181  0.2117  0.1797  0.2866
 4195OCT     C1 8389  16.139   0.971   1.849 -0.2196  0.2301  0.1279
 4195OCT     C2 8390  16.214   0.633   2.208 -0.2446  0.1989  0.1797
 4196OCT     C1 8391   9.061   5.796   9.075 -0.1577  0.0329 -0.0180
 4196OCT     C2 8392   8.805   5.490   9.430 -0.4271  0.2292 -0.3103
 4197OCT     C1 8393   1.684  18.886  22.208  0.0797 -0.0417 -0.1742
 4197OCT     C2 8394   1.301  18.738  22.468  0.1796  0.0800  0.0668
 4198OCT     C1 8395   4.758  11.810  14.130 -0.2103 -0.4061  0.2648
 4198OCT     C2 8396   4.893  11.979  13.739 -0.1094  0.0929 -0.0966
 4199OCT     C1 8397  22.479   8.329   2.564 -0.2773  0.1991  0.2291
 4199OCT     C2 8398  22.904   8.534   2.470 -0.4542  0.1786 -0.2068
 4200OCT     C1 8399   6.580   2.880  20.028 -0.0499  0.1965 -0.0795
 4200OCT     C2 8400   6.212   3.109  19.836  0.1692 -0.1144 -0.0684
 4201OCT     C1 8401   6.752  16.267   5.958  0.2172  0.1101  0.0820
 4201OCT     C2 8402   6.866  16.526   5.644 -0.0421 -0.2394 -0.4531
 4202OCT     C1 8403   5.436   6.542   5.742 -0.1877 -0.3044  0.1115
 4202OCT     C2 8404   5.102   6.220   5.559  0.3130  0.3257  0.1512
 4203OCT     C1 8405   3.411  19.668   7.336 -0.0360  0.1623 -0.3363
 4203OCT     C2 8406   3.885  19.633   7.323 -0.0141 -0.4515 -0.0692
 4204OCT     C1 8407   6.581  12.604   8.632 -0.0389 -0.1772 -0.0023
 4204OCT     C2 8408   6.642  12.748   8.140 -0.2630  0.2468 -0.2363
 4205OCT     C1 8409   9.794   3.366  18.770 -0.2229  0.0997  0.3973
 4205OCT     C2 8410  10.220   3.570  18.844  0.0252  0.2987 -0.1536
 4206OCT     C1 8411  16.443  11.153  14.941 -0.3670 -0.4242 -0.1745
 4206OCT     C2 8412  16.427  10.679  14.888 -0.2381 -0.0247  0.0125
 4207OCT     C1 8413  14.443   5.830   3.829  0.2393  0.0598  0.3160
 4207OCT     C2 8414  14.163   6.160   3.814 -0.2992  0.1594 -0.1265
 4208OCT     C1 8415  19.899  15.445   8.548 -0.0261  0.0406  0.3753
 4208OCT     C2 8416  19.729  15.569   8.965  0.1870 -0.0949 -0.3476
 4209OCT     C1 8417   6.882   6.407  10.354  0.2631  0.0092 -0.0532
 4209OCT     C2 8418   7.333   6.366  10.522 -0.3868 -0.1646  0.0598
 4210OCT     C1 8419   5.116  21.948  11.891  0.1249 -0.1870  0.1350
 4210OCT     C2 8420   4.879  21.707  12.158 -0.1666  0.1531 -0.0367
 4211OCT     C1 8421   0.404  17.838  13.334 -0.0296 -0.0471  0.0184
 4211OCT     C2 8422   0.823  17.995  13.434 -0.0532  0.0414  0.3135
 4212OCT     C1 8423  20.425   4.636  17.574  0.3338 -0.1164  0.0174
 4212OCT     C2 8424  20.658   5.087  17.689  0.2036  0.0433  0.1837
 4213OCT     C1 8425  20.376   5.407   6.570 -0.2802  0.1182  0.1093
 4213OCT     C2 8426  20.672   5.204   6.848 -0.1387  0.0258  0.1679
 4214OCT     C1 8427  19.822   7.460   9.609  0.2446  0.4369 -0.2099
 4214OCT     C2 8428  19.920   7.406   9.186  0.2416  0.1548  0.1249
 4215OCT     C1 8429  12.789  10.625  10.782 -0.0674  0.0270 -0.2442
 4215OCT     C2 8430  12.750  10.284  10.511  0.0974  0.3412  0.1831
 4216OCT     C1 8431  12.970  13.961   8.226 -0.4025 -0.1331 -0.2165
 4216OCT     C2 8432  12.906  14.373   8.376  0.0210  0.0170  0.0899
 4217OCT     C1 8433  14.946   2.617   1.932  0.3831  0.0152  0.3408
 4217OCT     C2 8434  15.238   2.925   1.668  0.0308  0.0918  0.1336
 4218OCT     C1 8435   6.664   1.912  16.102  0.2375  0.0406  0.2308
 4218OCT     C2 8436   6.252   1.809  15.839 -0.1210  0.2365 -0.0385
 4219OCT     C1 8437  20.740   0.062  15.055 -0.0534 -0.1106  0.3281
 4219OCT     C2 8438  20.731  23.603  15.491 -0.0799 -0.0081  0.0854
 4220OCT     C1 8439  20.965  21.877   6.748 -0.0929  0.0514 -0.1987
 4220OCT     C2 8440  20.794  22.290   6.812  0.2207 -0.0108  0.2752
 4221OCT     C1 8441   4.523  19.253  21.045  0.1821 -0.0479 -0.0134
 4221OCT     C2 8442   4.868  19.517  20.929 -0.2351 -0.0304 -0.0568
 4222OCT     C1 8443   0.894   0.670  18.900  0.0540  0.7570 -0.1029
 4222OCT     C2 8444   0.543   0.835  19.170  0.0912  0.1450  0.1184
 4223OCT     C1 8445   0.154   7.446   8.989 -0.2158 -0.2036 -0.0044
 4223OCT     C2 8446   0.306   7.738   9.356 -0.0971  0.3497 -0.1994
 4224OCT     C1 8447  22.419   6.728  14.843 -0.0946  0.0880  0.0961
 4224OCT     C2 8448  22.353   6.614  14.396  0.1609 -0.2076  0.3300
 4225OCT     C1 8449  22.675  16.338  17.827  0.3342 -0.1168  0.1786
 4225OCT     C2 8450  23.169  16.363  17.810  0.4490  0.4269 -0.3451
 4226OCT     C1 8451   9.117   2.617   6.403  0.1140  0.3233  0.0283
 4226OCT     C2 8452   9.495   2.469   6.139  0.2014  0.0562 -0.3781
 4227OCT     C1 8453  15.801  16.291   9.515  0.2573 -0.0574 -0.1169
 4227OCT     C2 8454  15.478  16.410   9.865 -0.1301  0.1021  0.0896
 4228OCT     C1 8455   1.790  11.661  18.893  0.1625  0.2413 -0.0522
 4228OCT     C2 8456   1.472  11.953  18.587 -0.1653 -0.0255 -0.1006
 4229OCT     C1 8457  17.145   3.294  20.849 -0.1801  0.0269  0.0443
 4229OCT     C2 8458  17.451   3.669  20.823 -0.1714  0.0628 -0.2551
 4230OCT     C1 8459  18.158   1.801  21.392 -0.1904  0.0319  0.0305
 4230OCT     C2 8460  18.457   1.459  21.539  0.2403 -0.1978 -0.0230
 4231OCT     C1 8461  12.193  18.272  11.054  0.1852 -0.0092  0.0222
 4231OCT     C2 8462  12.368  18.050  10.692  0.0718  0.0064  0.1279
 4232OCT     C1 8463   4.667  23.644   6.237  0.2492  0.1293  0.0001
 4232OCT     C2 8464   4.289   0.022   6.448 -0.0712  0.1522 -0.2663
 4233OCT     C1 8465   1.271   2.537  23.224 -0.1144 -0.0540  0.0780
 4233OCT     C2 8466   0.878   2.606  23.533 -0.4483 -0.1586  0.1059
 4234OCT     C1 8467   3.830  13.488  11.505  0.5009 -0.1537 -0.2924
 4234OCT     C2 8468   4.112  13.470  11.865 -0.1501  0.0588 -0.0123
 4235OCT     C1 8469  14.833   1.763  17.339 -0.0161  0.1793  0.3176
 4235OCT     C2 8470  14.536   1.501  17.142  0.2961 -0.0832 -0.3202
 4236OCT     C1 8471  13.275  10.365  13.087 -0.0326  0.3871 -0.2673
 4236OCT     C2 8472  13.078  10.361  13.489 -0.2645  0.4264 -0.0620
 4237OCT     C1 8473  11.756  10.085   4.998  0.2897 -0.0976  0.0301
 4237OCT     C2 8474  11.521  10.132   5.382  0.1168  0.1791 -0.0044
 4238OCT     C1 8475   6.009  19.683  11.593 -0.0669 -0.1977 -0.1782
 4238OCT     C2 8476   6.098  19.753  12.040 -0.0841 -0.0879  0.1955
 4239OCT     C1 8477   5.199   6.099  23.340  0.0592  0.0872 -0.2435
 4239OCT     C2 8478   5.057   6.007   0.059 -0.2321 -0.0970  0.1697
 4240OCT     C1 8479  19.993   8.795  22.853  0.1133  0.1054 -0.1469
 4240OCT     C2 8480  20.051   9.240  23.074 -0.3252  0.1481 -0.1277
 4241OCT     C1 8481  23.400  11.834  20.653 -0.2515  0.6706 -0.1782
 4241OCT     C2 8482  23.274  11.842  20.161 -0.0843  0.1602 -0.1104
 4242OCT     C1 8483  18.618   5.025  12.365 -0.0737  0.1436  0.0104
 4242OCT     C2 8484  18.483   5.083  11.915 -0.1616 -0.0462  0.2499
 4243OCT     C1 8485   0.199  17.378  14.799 -0.0150  0.1036 -0.0202
 4243OCT     C2 8486   0.470  17.736  14.747  0.2443 -0.0085  0.0034
 4244OCT     C1 8487   1.374  14.880   1.614 -0.1839 -0.2590  0.0006
 4244OCT     C2 8488   1.193  14.613   1.981 -0.0155 -0.2789 -0.0818
 4245OCT     C1 8489   5.723  16.186  10.809  0.2279 -0.0385  0.0194
 4245OCT     C2 8490   5.544  16.602  10.723 -0.0418 -0.1547 -0.0626
 4246OCT     C1 8491  18.266  19.969   3.340 -0.1267 -0.0989  0.5138
 4246OCT     C2 8492  17.897  20.251   3.455 -0.0365 -0.4337 -0.3104
 4247OCT     C1 8493  16.470   9.206   8.012  0.2037  0.1046 -0.0519
 4247OCT     C2 8494  16.376   8.877   8.355 -0.2529 -0.1432 -0.2627
 4248OCT     C1 8495  20.203   4.201   4.699  0.1986 -0.1118  0.0921
 4248OCT     C2 8496  20.177   4.284   4.238  0.1963 -0.4423  0.1563
 4249OCT     C1 8497  16.567   9.729   8.266  0.2790  0.0854 -0.2612
 4249OCT     C2 8498  16.499   9.327   8.503 -0.1446  0.2241  0.5195
 4250OCT     C1 8499   3.506  10.889   1.983  0.5683  0.1203 -0.1253
 4250OCT     C2 8500   3.903  10.965   2.221  0.1610 -0.3620 -0.1571
 4251OCT     C1 8501  13.168   8.813   2.821  0.2650 -0.2543  0.0198
 4251OCT     C2 8502  13.000   9.219   2.800 -0.2212  0.1959 -0.2062
 4252OCT     C1 8503   7.020  16.240   3.931 -0.1025  0.1317  0.1134
 4252OCT     C2 8504   6.632  16.426   4.049 -0.0816 -0.1303 -0.0235
 4253OCT     C1 8505  17.720   4.515   3.975 -0.1523 -0.0568 -0.1904
 4253OCT     C2 8506  17.561   4.985   3.946 -0.1340  0.1101 -0.4222
 4254OCT     C1 8507   1.496  13.386  22.754  0.0098  0.3036  0.0547
 4254OCT     C2 8508   1.191  13.173  23.047  0.0849 -0.0270  0.3001
 4255OCT     C1 8509   7.635  14.093  16.273 -0.1282 -0.0524  0.2505
 4255OCT     C2 8510   8.061  14.351  16.357 -0.1842  0.4572  0.0279
 4256OCT     C1 8511   6.690  21.659  16.509  0.1260  0.0609  0.0642
 4256OCT     C2 8512   6.819  21.819  16.942  0.0017  0.1346 -0.0021
 4257OCT     C1 8513  22.083  23.427  12.166  0.0746 -0.1410 -0.2248
 4257OCT     C2 8514  22.160  22.978  12.278 -0.0969 -0.2991  0.2734
 4258OCT     C1 8515   8.069  20.423  18.569 -0.8564 -0.2748  0.3355
 4258OCT     C2 8516   8.275  20.551  19.010 -0.2446 -0.3299  0.1909
 4259OCT     C1 8517  11.354  16.248  23.088 -0.1019 -0.0712 -0.2226
 4259OCT     C2 8518  10.945  16.475  23.022 -0.2200  0.0855 -0.1800
 4260OCT     C1 8519   6.833   9.383  21.047 -0.0052  0.0982  0.0361
 4260OCT     C2 8520   6.732   9.009  20.840 -0.0577 -0.0338  0.1422
 4261OCT     C1 8521  16.217  10.636  11.999  0.1264  0.3887  0.2940
 4261OCT     C2 8522  15.941  10.576  11.609  0.1721 -0.3186  0.0726
 4262OCT     C1 8523  11.806   2.328   0.950  0.0850  0.3983  0.0465
 4262OCT     C2 8524  12.028   2.034   1.143  0.0787 -0.1160 -0.0658
 4263OCT     C1 8525   1.156  12.941   8.371  0.0245 -0.0940  0.1072
 4263OCT     C2 8526   0.840  12.764   8.636  0.0116 -0.0615 -0.1668
 4264OCT     C1 8527  17.426  21.844  19.990 -0.2804  0.0052 -0.2145
 4264OCT     C2 8528  17.654  21.761  19.589 -0.3180 -0.0636  0.0817
 4265OCT     C1 8529   7.372  23.473   3.954  0.0307 -0.0942  0.0515
 4265OCT     C2 8530   7.781  23.508   3.684  0.1911  0.0480 -0.2392
 4266OCT     C1 8531   5.402   4.463   0.868  0.1350  0.1159  0.1669
 4266OCT     C2 8532   5.845   4.398   0.738  0.1166  0.1728 -0.2029
 4267OCT     C1 8533   6.856  12.183  21.839  0.1200 -0.7467  0.2672
 4267OCT     C2 8534   6.824  12.365  21.426  0.0254 -0.3656 -0.3026
 4268OCT     C1 8535   8.975   3.120  19.914  0.0909 -0.1751  0.0971
 4268OCT     C2 8536   9.034   2.870  20.277  0.3661  0.1809  0.2530
 4269OCT     C1 8537   9.851   9.595  22.009 -0.0351 -0.0584  0.2352
 4269OCT     C2 8538   9.653   9.869  22.397  0.0982 -0.0220  0.1465
 4270OCT     C1 8539  14.026  14.317  14.800  0.1113  0.1675 -0.1532
 4270OCT     C2 8540  14.326  13.988  14.634  0.1101 -0.2295  0.1505
 4271OCT     C1 8541   7.534   1.797  14.299  0.1874 -0.2392 -0.1310
 4271OCT     C2 8542   7.816   1.960  14.011 -0.0586  0.0043 -0.1922
 4272OCT     C1 8543  13.142  12.824  20.435 -0.1646 -0.2622  0.1882
 4272OCT     C2 8544  13.603  12.806  20.396  0.2838 -0.3192  0.3094
 4273OCT     C1 8545  19.995   9.031  20.445 -0.0502 -0.1604 -0.0035
 4273OCT     C2 8546  19.880   9.093  19.991 -0.2704  0.0525 -0.2664
 4274OCT     C1 8547  11.958  18.423  19.917 -0.1743  0.2073 -0.2406
 4274OCT     C2 8548  12.050  18.786  20.222  0.2005 -0.0502 -0.0884
 4275OCT     C1 8549   9.020   9.663   6.272  0.0719  0.1045  0.1098
 4275OCT     C2 8550   9.419   9.430   6.030 -0.5061  0.3505  0.1736
 4276OCT     C1 8551   9.796  20.411   2.843 -0.0884 -0.0805  0.1782
 4276OCT     C2 8552  10.119  20.738   2.795  0.0379 -0.2398 -0.1841
 4277OCT     C1 8553  19.107  16.287   2.192 -0.3146  0.2140 -0.0166
 4277OCT     C2 8554  19.293  15.882   2.321  0.1477  0.0506  0.3803
 4278OCT     C1 8555   3.392   9.060   8.011 -0.2621  0.4008 -0.0926
 4278OCT     C2 8556   3.663   8.683   8.118 -0.1754 -0.1097 -0.3092
 4279OCT     C1 8557  10.406   2.576   7.002 -0.0077 -0.1947  0.3169
 4279OCT     C2 8558  10.357   2.231   7.330  0.3342 -0.2376 -0.5186
 4280OCT     C1 8559  15.961   2.279  16.486  0.2991 -0.1318 -0.1130
 4280OCT     C2 8560  15.533   2.317  16.322  0.2018  0.2857 -0.3043
 4281OCT     C1 8561  17.996  21.777  21.154  0.1643  0.0644 -0.1697
 4281OCT     C2 8562  18.078  21.323  21.261  0.0952 -0.0118 -0.1291
 4282OCT     C1 8563   0.252  23.598  16.331  0.1740 -0.0550 -0.2618
 4282OCT     C2 8564   0.450   0.300  16.288  0.0039 -0.0056  0.2455
 4283OCT     C1 8565  17.014  16.686  12.070  0.2473  0.2976 -0.2578
 4283OCT     C2 8566  16.738  16.427  11.787 -0.3227 -0.0064  0.0898
 4284OCT     C1 8567   9.753  23.032  14.338  0.0818 -0.0010 -0.2890
 4284OCT     C2 8568   9.690  23.405  14.102 -0.0997  0.1682 -0.0067
 4285OCT     C1 8569  12.107  10.366   5.351 -0.1693 -0.0063  0.3910
 4285OCT     C2 8570  11.925  10.012   5.626 -0.0857 -0.2473  0.1646
 4286OCT     C1 8571  21.828   0.516   0.471 -0.0148 -0.0200 -0.6403
 4286OCT     C2 8572  22.066   0.898   0.338 -0.4454 -0.2131 -0.3637
 4287OCT     C1 8573   7.393  21.021  13.362  0.0835  0.0269 -0.3156
 4287OCT     C2 8574   7.621  20.890  13.775 -0.0971  0.1498 -0.2346
 4288OCT     C1 8575   5.217  17.093   9.081  0.0016  0.1959  0.1586
 4288OCT     C2 8576   5.545  16.787   9.065  0.0814 -0.0550 -0.3885
 4289OCT     C1 8577  14.242  14.596  10.481  0.1707  0.1508 -0.1354
 4289OCT     C2 8578  14.557  14.592  10.803  0.0562 -0.0510 -0.1184
 4290OCT     C1 8579  22.897  11.328  10.713  0.0921 -0.0925  0.0891
 4290OCT     C2 8580  23.238  11.139  10.451 -0.1185 -0.4031  0.0164
 4291OCT     C1 8581  19.269   6.653   3.348  0.1060  0.1112 -0.0618
 4291OCT     C2 8582  18.998   6.503   2.980  0.1460  0.0559 -0.2937
 4292OCT     C1 8583   8.527  11.507  12.411 -0.2290 -0.3363  0.2341
 4292OCT     C2 8584   8.172  11.177  12.313 -0.2483 -0.0815  0.0252
 4293OCT     C1 8585  13.789   8.998  17.262  0.3032  0.0713 -0.3290
 4293OCT     C2 8586  13.731   8.812  16.833  0.1765  0.3609 -0.0181
 4294OCT     C1 8587  18.517   6.525   4.352  0.0115 -0.2063 -0.0409
 4294OCT     C2 8588  18.796   6.327   4.721  0.2894 -0.1850  0.3979
 4295OCT     C1 8589  22.011   1.741  22.104 -0.0567  0.3882  0.4567
 4295OCT     C2 8590  22.135   2.178  21.913 -0.2317  0.2985 -0.1695
 4296OCT     C1 8591   6.004  12.946   6.534  0.1827 -0.2107  0.0662
 4296OCT     C2 8592   6.426  13.004   6.703  0.0782 -0.0860 -0.1971
 4297OCT     C1 8593  12.643   4.956  23.529  0.1746  0.2207  0.0592
 4297OCT     C2 8594  12.366   4.762  23.197 -0.3532  0.2113 -0.0817
 4298OCT     C1 8595  15.587  16.693   9.171  0.3183 -0.2238 -0.0814
 4298OCT     C2 8596  15.567  16.959   9.540  0.0666 -0.2406 -0.3502
 4299OCT     C1 8597   6.862   6.756  11.768  0.1263 -0.0968  0.2041
 4299OCT     C2 8598   6.977   6.714  11.245  0.3396 -0.1390  0.1618
 4300OCT     C1 8599  22.707   2.331  13.830  0.0617 -0.1581  0.2165
 4300OCT     C2 8600  23.152   2.105  13.859  0.1005 -0.0571  0.0236
 4301OCT     C1 8601   2.656  20.759   4.189 -0.1993  0.1828 -0.2351
 4301OCT     C2 8602   2.398  20.997   3.895  0.5862 -0.0490 -0.0668
 4302OCT     C1 8603  22.678  16.227   1.658  0.1827  0.0879  0.3082
 4302OCT     C2 8604  22.325  16.306   1.307  0.0985 -0.2885 -0.2161
 4303OCT     C1 8605  23.598   4.855  14.182 -0.2242  0.0347 -0.3168
 4303OCT     C2 8606  23.183   4.646  14.162  0.1915 -0.1443  0.2955
 4304OCT     C1 8607  14.764   4.601  16.489  0.0436 -0.3235  0.1475
 4304OCT     C2 8608  14.869   4.142  16.671 -0.0425 -0.4699  0.3738
 4305OCT     C1 8609  18.459  21.429  17.149  0.0599  0.1260  0.0322
 4305OCT     C2 8610  18.398  20.998  16.942 -0.2046  0.1244  0.2487
 4306OCT     C1 8611  12.412   4.957   4.444  0.0516 -0.1398 -0.4010
 4306OCT     C2 8612  12.591   5.349   4.490  0.1605 -0.1463  0.2061
 4307OCT     C1 8613   1.748  18.182  12.968 -0.2093 -0.0108  0.1159
 4307OCT     C2 8614   1.842  17.720  12.901 -0.2341  0.3933 -0.0608
 4308OCT     C1 8615   4.442  12.971  10.399  0.1777  0.0081  0.2369
 4308OCT     C2 8616   4.016  12.900  10.204 -0.1987 -0.0989 -0.1790
 4309OCT     C1 8617   1.184   0.791  11.995 -0.1488 -0.1179 -0.2374
 4309OCT     C2 8618   0.999   0.810  12.416  0.1289 -0.3055  0.3127
 4310OCT     C1 8619   1.478  15.559  18.089  0.3204 -0.1733  0.1560
 4310OCT     C2 8620   1.366  15.141  18.282 -0.1288 -0.0414  0.1580
 4311OCT     C1 8621   5.058  12.898   3.005  0.2182  0.0198  0.1750
 4311OCT     C2 8622   5.223  12.508   2.840 -0.2076  0.0613 -0.1613
 4312OCT     C1 8623   8.445   4.160  16.599 -0.2005  0.1919 -0.0117
 4312OCT     C2 8624   8.463   3.850  16.964  0.0253  0.0036  0.6462
 4313OCT     C1 8625  23.475   1.905  18.786  0.3855 -0.2472 -0.0786
 4313OCT     C2 8626   0.137   1.730  18.716 -0.1524  0.2472 -0.3143
 4314OCT     C1 8627  20.830  18.798   4.166  0.1021 -0.0624  0.0608
 4314OCT     C2 8628  20.754  18.306   4.261 -0.0085 -0.2684  0.0671
 4315OCT     C1 8629  20.183   8.916   8.939 -0.0099 -0.1606  0.0931
 4315OCT     C2 8630  20.223   9.014   8.501 -0.1083 -0.3815 -0.3415
 4316OCT     C1 8631   3.965   7.798  21.240 -0.0493 -0.1004  0.0047
 4316OCT     C2 8632   4.159   7.810  20.821 -0.2298 -0.2573  0.1431
 4317OCT     C1 8633  19.519   1.129  10.415  0.1648 -0.4085  0.3529
 4317OCT     C2 8634  19.255   1.211  10.103  0.0576 -0.1667  0.0657
 4318OCT     C1 8635   8.096   8.829   5.055 -0.0313 -0.0893  0.0573
 4318OCT     C2 8636   8.109   8.715   5.546  0.2998  0.0997  0.1047
 4319OCT     C1 8637   4.003  18.442   2.860  0.1969  0.3967 -0.1601
 4319OCT     C2 8638   3.968  17.993   2.722  0.1004 -0.1810  0.0225
 4320OCT     C1 8639   4.168   7.509  16.630  0.0353  0.0341 -0.1280
 4320OCT     C2 8640   4.302   7.255  16.212  0.0420  0.1747 -0.0294
 4321OCT     C1 8641  10.812   9.327   1.670  0.0288  0.2441 -0.2039
 4321OCT     C2 8642  10.380   9.290   1.429 -0.0194  0.0409  0.3235
 4322OCT     C1 8643   6.875   1.248   3.244 -0.1731  0.3484 -0.0922
 4322OCT     C2 8644   6.633   0.907   3.458 -0.0347 -0.0870 -0.2133
 4323OCT     C1 8645   3.921  21.957  20.465  0.4156  0.1038 -0.2685
 4323OCT     C2 8646   3.592  21.691  20.426  0.0987 -0.0657  0.1900
 4324OCT     C1 8647  14.455  11.086   8.259  0.4557 -0.0318  0.2848
 4324OCT     C2 8648  14.431  11.284   8.664 -0.4531  0.3351 -0.2240
 4325OCT     C1 8649  16.322  12.929  17.634 -0.0072  0.1571 -0.0997
 4325OCT     C2 8650  16.683  12.732  17.359  0.2208  0.0481  0.1835
 4326OCT     C1 8651  19.687  10.880  14.192  0.1893  0.1309 -0.1044
 4326OCT     C2 8652  19.933  10.499  14.230 -0.3942 -0.0907 -0.2644
 4327OCT     C1 8653   9.124   4.484   0.637 -0.1477 -0.1270 -0.0215
 4327OCT     C2 8654   9.466   4.758   0.700  0.2248 -0.0133  0.1638
 4328OCT     C1 8655  18.480   1.838  11.335  0.0178  0.2961  0.1905
 4328OCT     C2 8656  18.117   1.923  11.084 -0.0575 -0.0812 -0.0753
 4329OCT     C1 8657  12.524  17.123  19.768  0.2233  0.4090  0.0733
 4329OCT     C2 8658  12.549  17.426  19.440 -0.3376 -0.1433  0.0283
 4330OCT     C1 8659   0.285  14.867  14.072  0.3478 -0.0183 -0.0430
 4330OCT     C2 8660   0.436  15.124  13.678  0.3693 -0.3145 -0.3374
 4331OCT     C1 8661   4.177   3.699   4.598 -0.1946  0.1429 -0.1667
 4331OCT     C2 8662   3.925   3.692   4.222 -0.1240 -0.0377  0.2580
 4332OCT     C1 8663  10.536  17.440   7.812  0.2946 -0.1286 -0.0236
 4332OCT     C2 8664  10.228  17.074   7.684 -0.1936 -0.2017  0.1291
 4333OCT     C1 8665   6.570  17.201  17.893 -0.0429  0.1454  0.0212
 4333OCT     C2 8666   6.777  16.767  17.847 -0.0840 -0.3961  0.1708
 4334OCT     C1 8667   0.129   3.667   3.961 -0.0100  0.0944 -0.2505
 4334OCT     C2 8668  23.513   3.883   3.923  0.3717 -0.6964  0.1860
 4335OCT     C1 8669   5.354  18.976  18.449 -0.0465  0.1304  0.1437
 4335OCT     C2 8670   5.324  18.537  18.238 -0.1678 -0.2120  0.3320
 4336OCT     C1 8671   8.471  21.443   9.100 -0.4957  0.3455 -0.1375
 4336OCT     C2 8672   8.186  21.416   9.467 -0.1514  0.0843 -0.3074
 4337OCT     C1 8673  14.672  10.773   9.557 -0.1472 -0.3457 -0.2337
 4337OCT     C2 8674  14.622  10.960   9.194 -0.4104 -0.3696  0.1864
 4338OCT     C1 8675  18.755  17.669  17.119 -0.1821 -0.1044 -0.0053
 4338OCT     C2 8676  18.848  17.235  17.210 -0.0528  0.2289 -0.3671
 4339OCT     C1 8677   2.936  11.619   3.308  0.2202  0.2773  0.1457
 4339OCT     C2 8678   3.251  11.492   3.632  0.1430  0.0828 -0.1130
 4340OCT     C1 8679  12.192  19.053   8.546  0.1839 -0.3219 -0.1814
 4340OCT     C2 8680  12.195  19.175   8.091  0.0269  0.1009 -0.0596
 4341OCT     C1 8681  21.867   3.295  11.952  0.0506  0.1055 -0.3357
 4341OCT     C2 8682  21.719   3.657  12.210 -0.1418  0.0356 -0.0353
 4342OCT     C1 8683   4.599  16.730  12.960 -0.0051 -0.0429 -0.2960
 4342OCT     C2 8684   4.566  16.310  13.148 -0.2202 -0.0297  0.1099
 4343OCT     C1 8685  18.791   0.712   1.349  0.0163 -0.0667 -0.0320
 4343OCT     C2 8686  19.071   1.036   1.451 -0.0396  0.1221 -0.0198
 4344OCT     C1 8687   3.917  13.873   1.070 -0.4808  0.0453 -0.4120
 4344OCT     C2 8688   3.998  13.460   1.333 -0.2051  0.1673  0.3595
 4345OCT     C1 8689  16.900   4.245   7.242 -0.0100  0.1421  0.0073
 4345OCT     C2 8690  16.928   4.687   7.050 -0.1276 -0.1008  0.2932
 4346OCT     C1 8691   0.682  13.495  17.370 -0.2064 -0.2628  0.4265
 4346OCT     C2 8692   0.439  13.531  17.774 -0.0942 -0.0262  0.0760
 4347OCT     C1 8693  23.192   0.542   3.504 -0.2247  0.0696  0.3141
 4347OCT     C2 8694  23.415   0.655   3.073  0.0256 -0.3858 -0.3752
 4348OCT     C1 8695   8.639  21.677  13.289 -0.1699 -0.0209 -0.0598
 4348OCT     C2 8696   8.513  21.385  13.611 -0.4121  0.0583 -0.2248
 4349OCT     C1 8697  18.662  14.336   4.789 -0.1459 -0.4127  0.3380
 4349OCT     C2 8698  18.374  14.005   4.644 -0.0965  0.0658  0.0320
 4350OCT     C1 8699   9.433  19.518  23.568  0.2408  0.0642 -0.0705
 4350OCT     C2 8700   9.111  19.551  23.229 -0.1027 -0.0627 -0.1835
 4351OCT     C1 8701  12.448  14.287  22.589  0.0499 -0.0938  0.1730
 4351OCT     C2 8702  11.997  14.211  22.371 -0.3085  0.0829  0.3549
 4352OCT     C1 8703   4.423  10.915   5.145  0.0672  0.0900  0.0631
 4352OCT     C2 8704   4.094  11.158   5.370 -0.3152  0.0172 -0.2313
 4353OCT     C1 8705   1.461  22.911   8.913 -0.2557 -0.1360 -0.1053
 4353OCT     C2 8706   1.183  23.255   9.157 -0.1036  0.1988  0.2275
 4354OCT     C1 8707  20.142  19.327   9.587 -0.2027 -0.1507 -0.0915
 4354OCT     C2 8708  19.769  19.359   9.925  0.0934 -0.0298 -0.3429
 4355OCT     C1 8709  12.897  21.119  11.223 -0.0151  0.3198  0.3309
 4355OCT     C2 8710  13.277  20.825  11.309  0.1785 -0.6127  0.2940
 4356OCT     C1 8711  16.010  20.112   2.497  0.1432  0.1862  0.2126
 4356OCT     C2 8712  16.268  19.886   2.765 -0.1876  0.0643 -0.4187
 4357OCT     C1 8713   5.630  15.862   7.862  0.0974  0.1823  0.0520
 4357OCT     C2 8714   5.564  16.342   7.838  0.1986  0.1017 -0.1859
 4358OCT     C1 8715  14.766  17.866  15.874  0.2216 -0.0783 -0.0537
 4358OCT     C2 8716  14.920  18.235  15.668 -0.3280  0.0560  0.0964
 4359OCT     C1 8717   6.423   9.940   1.340 -0.3467 -0.1963  0.3476
 4359OCT     C2 8718   6.545  10.360   1.575  0.4045 -0.2656  0.1850
 4360OCT     C1 8719   4.149   2.622  11.381  0.1775 -0.2996 -0.1234
 4360OCT     C2 8720   4.483   2.873  11.204 -0.1728 -0.2151  0.2961
 4361OCT     C1 8721  13.802   2.081   6.121  0.2075 -0.1749 -0.2104
 4361OCT     C2 8722  14.015   2.506   6.263 -0.2395  0.0945  0.1993
 4362OCT     C1 8723  15.419   5.583   2.312 -0.1319  0.0402 -0.1750
 4362OCT     C2 8724  15.305   5.923   2.008  0.2576 -0.2537  0.0990
 4363OCT     C1 8725  19.430  12.000  22.991 -0.1092 -0.0328  0.1312
 4363OCT     C2 8726  19.561  11.808  22.546 -0.2287 -0.0333 -0.1076
 4364OCT     C1 8727  19.619  22.350  17.462  0.0994 -0.2497  0.0147
 4364OCT     C2 8728  19.247  22.622  17.274  0.4541 -0.0574  0.0706
 4365OCT     C1 8729   8.056   8.358   1.731  0.0351 -0.3563 -0.1850
 4365OCT     C2 8730   8.400   8.253   1.418  0.1748  0.2789  0.2472
 4366OCT     C1 8731  14.851  14.063   1.160 -0.1656  0.2982  0.0198
 4366OCT     C2 8732  14.586  14.100   0.771 -0.1462  0.3135 -0.0091
 4367OCT     C1 8733  14.305  23.425   9.399 -0.0261  0.2690  0.2057
 4367OCT     C2 8734  14.160  23.226   9.821  0.0074  0.1884  0.2118
 4368OCT     C1 8735  16.353   6.770  11.051  0.6223  0.0101  0.1506
 4368OCT     C2 8736  15.907   6.642  10.939  0.0136 -0.1326 -0.1670
 4369OCT     C1 8737  20.491  14.334   7.405 -0.0531 -0.3655  0.0786
 4369OCT     C2 8738  20.742  14.308   7.051 -0.0941  0.1359  0.1598
 4370OCT     C1 8739   2.037  23.608   6.266  0.3321  0.3998  0.0201
 4370OCT     C2 8740   1.687  23.721   6.541  0.2943 -0.0644  0.0306
 4371OCT     C1 8741   9.833   0.291   4.002 -0.1085 -0.0755  0.0280
 4371OCT     C2 8742   9.532   0.365   3.635  0.1375 -0.4977 -0.4029
 4372OCT     C1 8743   9.444   5.833   4.235 -0.1109 -0.2175 -0.0130
 4372OCT     C2 8744   9.593   5.608   4.647 -0.2613 -0.0078 -0.2756
 4373OCT     C1 8745  22.147   3.199   9.008 -0.0311  0.1572  0.1210
 4373OCT     C2 8746  22.263   2.753   8.795 -0.1858 -0.0301 -0.6187
 4374OCT     C1 8747  11.352  12.271  15.328 -0.2124  0.2148 -0.0836
 4374OCT     C2 8748  11.131  12.690  15.085 -0.1049  0.2366 -0.1529
 4375OCT     C1 8749   8.625  16.813   9.851  0.1945  0.2803  0.0354
 4375OCT     C2 8750   8.761  16.967  10.292 -0.1483  0.2975 -0.1825
 4376OCT     C1 8751   7.177  11.838  12.475  0.1985  0.0556  0.1210
 4376OCT     C2 8752   6.889  11.572  12.233  0.0926 -0.1046  0.1327
 4377OCT     C1 8753  12.528  18.122   3.172 -0.0463  0.0200  0.5852
 4377OCT     C2 8754  12.349  18.537   3.348 -0.1236  0.2718 -0.2965
 4378OCT     C1 8755  20.089   8.441  20.935  0.1203  0.2053  0.1774
 4378OCT     C2 8756  19.979   8.444  20.451  0.1433 -0.0562  0.3070
 4379OCT     C1 8757  14.510  21.235   0.098  0.4496 -0.3639 -0.0522
 4379OCT     C2 8758  14.398  21.494  23.468  0.1237 -0.2492  0.2465
 4380OCT     C1 8759   9.514  13.055   0.244 -0.0092 -0.2473  0.1593
 4380OCT     C2 8760   9.743  13.058   0.658  0.0585 -0.0219 -0.1105
 4381OCT     C1 8761  16.572   0.216  10.822  0.1601  0.1538  0.0717
 4381OCT     C2 8762  16.814  23.675  10.569  0.3471 -0.0000  0.3719
 4382OCT     C1 8763  22.229  10.064  18.745  0.1183 -0.1064  0.1446
 4382OCT     C2 8764  22.102   9.846  19.091 -0.1026  0.1163 -0.2117
 4383OCT     C1 8765  11.974  12.804  19.131  0.1389  0.1876 -0.3570
 4383OCT     C2 8766  11.748  12.694  19.432 -0.0873 -0.1649  0.0909
 4384OCT     C1 8767   5.100  16.107   0.286 -0.4835 -0.2648  0.0037
 4384OCT     C2 8768   5.108  15.695   0.563 -0.2266 -0.2340 -0.1764
 4385OCT     C1 8769  21.783   0.751  11.887  0.1174  0.1249  0.1285
 4385OCT     C2 8770  21.412   0.461  11.950 -0.0751 -0.1757  0.1156
 4386OCT     C1 8771   4.260   7.657  14.361  0.0443 -0.0768  0.0497
 4386OCT     C2 8772   4.400   8.066  14.217 -0.1732  0.3015  0.0300
 4387OCT     C1 8773  22.332   1.835  17.148 -0.1933 -0.0928  0.1903
 4387OCT     C2 8774  21.957   2.048  17.172  0.0269 -0.0532  0.1483
 4388OCT     C1 8775  23.038  21.750   6.512 -0.1628  0.3193  0.2619
 4388OCT     C2 8776  22.855  21.397   6.693  0.3367  0.0915  0.2042
 4389OCT     C1 8777   8.341  19.041   9.588 -0.0403  0.3978 -0.3346
 4389OCT     C2 8778   8.114  18.807   9.278 -0.2899 -0.0594  0.0257
 4390OCT     C1 8779  10.820  16.820  21.959  0.0683 -0.0565 -0.1556
 4390OCT     C2 8780  10.494  17.082  22.146  0.0643 -0.2870 -0.2515
 4391OCT     C1 8781  17.941  18.527   8.920 -0.4939  0.2565 -0.3927
 4391OCT     C2 8782  17.971  18.743   8.513 -0.0655  0.1831  0.1622
 4392OCT     C1 8783   5.939  19.386  15.262  0.2012 -0.1435 -0.2073
 4392OCT     C2 8784   5.764  19.154  15.665  0.2490 -0.2723  0.3068
 4393OCT     C1 8785  10.004  11.800  13.496 -0.0365 -0.0167  0.1371
 4393OCT     C2 8786   9.646  11.570  13.721 -0.0219  0.0905  0.0557
 4394OCT     C1 8787   0.179  23.474  21.617 -0.1559  0.0321  0.0365
 4394OCT     C2 8788   0.474  23.280  21.933 -0.0421  0.2879  0.2144
 4395OCT     C1 8789   7.053  12.135   2.974 -0.0319  0.0931 -0.0879
 4395OCT     C2 8790   6.921  12.332   3.369 -0.2158  0.1246 -0.1119
 4396OCT     C1 8791  20.958   1.952   7.850  0.0579 -0.1877 -0.1274
 4396OCT     C2 8792  21.029   2.325   7.650  0.0379 -0.0601  0.2908
 4397OCT     C1 8793  17.248  16.633   2.224  0.3176 -0.1549 -0.1285
 4397OCT     C2 8794  17.253  17.110   2.365  0.1026 -0.1182 -0.1118
 4398OCT     C1 8795   7.231   6.917  23.527  0.2570 -0.1615  0.0606
 4398OCT     C2 8796   6.842   7.141  23.486  0.3462  0.0364 -0.0944
 4399OCT     C1 8797  11.136  16.688  20.011 -0.3465  0.1997  0.0906
 4399OCT     C2 8798  11.222  16.442  19.640 -0.0736  0.2843  0.0500
 4400OCT     C1 8799   8.636  10.260  23.076 -0.2327 -0.1059  0.3028
 4400OCT     C2 8800   9.082  10.184  23.220 -0.2589  0.0861 -0.0668
 4401OCT     C1 8801   4.785   6.018  20.828  0.0400 -0.1913 -0.2034
 4401OCT     C2 8802   5.111   6.324  20.856 -0.1393  0.5385  0.6633
 4402OCT     C1 8803   8.369   9.921   7.790  0.0566 -0.4430  0.2397
 4402OCT     C2 8804   8.613  10.031   7.385 -0.2462 -0.1496 -0.0754
 4403OCT     C1 8805  22.763  12.060   4.874  0.3032  0.0277 -0.0657
 4403OCT     C2 8806  22.607  11.972   5.251 -0.2852 -0.2360 -0.1874
 4404OCT     C1 8807  23.650  15.260   0.834 -0.1100 -0.5146  0.0415
 4404OCT     C2 8808  23.313  15.409   0.511  0.0266  0.1547 -0.0160
 4405OCT     C1 8809  16.212   6.680  19.082  0.1990 -0.1852  0.1326
 4405OCT     C2 8810  16.422   6.307  19.386  0.0413  0.1504  0.1201
 4406OCT     C1 8811  18.878   3.292   7.903 -0.2483  0.3136 -0.1084
 4406OCT     C2 8812  19.346   3.412   8.000  0.0182 -0.0277 -0.2464
 4407OCT     C1 8813  21.779   3.973  16.265 -0.2830 -0.1210 -0.0114
 4407OCT     C2 8814  21.321   3.934  16.113 -0.1922 -0.1008 -0.2058
 4408OCT     C1 8815  19.269  14.898   0.818 -0.0625 -0.1148  0.1497
 4408OCT     C2 8816  19.504  14.966   0.383  0.0903 -0.1402  0.1311
 4409OCT     C1 8817  23.369   9.196  18.016  0.1691 -0.1349  0.0343
 4409OCT     C2 8818  23.601   8.905  18.298  0.1784 -0.3558 -0.1555
 4410OCT     C1 8819   8.111   2.399  15.090 -0.1023  0.0954 -0.2553
 4410OCT     C2 8820   8.269   2.025  15.135 -0.3157 -0.1297  0.0495
 4411OCT     C1 8821   5.321  12.786  10.308 -0.2271  0.1144 -0.3195
 4411OCT     C2 8822   5.191  13.212  10.155  0.2714  0.0142 -0.4886
 4412OCT     C1 8823  22.168   4.286  12.561 -0.0057  0.2394  0.2370
 4412OCT     C2 8824  21.934   4.416  12.971 -0.0598  0.3273 -0.2070
 4413OCT     C1 8825   9.244  11.663   4.460  0.1191 -0.1169  0.1525
 4413OCT     C2 8826   9.528  12.023   4.595 -0.3576 -0.0663  0.3714
 4414OCT     C1 8827  13.437   3.492  22.503  0.1496  0.1136  0.0589
 4414OCT     C2 8828  13.316   3.455  22.082 -0.4452 -0.0052 -0.0686
 4415OCT     C1 8829   3.328   4.483  16.200  0.1989 -0.1607  0.1663
 4415OCT     C2 8830   3.341   4.874  16.402 -0.2387  0.0086 -0.2518
 4416OCT     C1 8831   0.446  14.209  19.284  0.1094 -0.0822 -0.0835
 4416OCT     C2 8832   0.089  14.430  19.512  0.0435  0.2192  0.2389
 4417OCT     C1 8833   5.387  22.811   5.323 -0.0203 -0.2842  0.3473
 4417OCT     C2 8834   5.493  22.898   4.855 -0.0492  0.0467  0.0335
 4418OCT     C1 8835  17.570  13.796  16.824 -0.1190  0.2741  0.1576
 4418OCT     C2 8836  17.952  13.485  16.770  0.0410  0.0382 -0.1231
 4419OCT     C1 8837  15.505  17.545  14.435 -0.2302  0.0321  0.0806
 4419OCT     C2 8838  15.084  17.806  14.474 -0.0985 -0.0979 -0.3622
 4420OCT     C1 8839  15.733   4.147  21.939 -0.0646  0.1321  0.4446
 4420OCT     C2 8840  16.182   4.301  21.927  0.1501 -0.0615 -0.0271
 4421OCT     C1 8841  11.369  10.156  23.405 -0.2489 -0.4439  0.2338
 4421OCT     C2 8842  11.777  10.091  23.564 -0.3087  0.0461 -0.2668
 4422OCT     C1 8843  16.323  14.846  22.556  0.1938 -0.0056  0.1803
 4422OCT     C2 8844  16.128  14.405  22.478  0.1160  0.5097 -0.2765
 4423OCT     C1 8845  19.284   9.435  22.747  0.0619  0.1270  0.0564
 4423OCT     C2 8846  18.843   9.590  22.627 -0.3772  0.3459 -0.2402
 4424OCT     C1 8847  14.866  18.117  13.334  0.0048  0.1413  0.0517
 4424OCT     C2 8848  14.882  17.655  13.542  0.2228 -0.1530  0.1717
 4425OCT     C1 8849  18.752  19.984   9.453  0.2526  0.1234 -0.1537
 4425OCT     C2 8850  18.294  20.063   9.324 -0.3570 -0.3441  0.0359
 4426OCT     C1 8851   5.266   7.660   1.936  0.2789 -0.0976  0.0942
 4426OCT     C2 8852   5.575   7.573   1.557 -0.0951 -0.1058 -0.0404
 4427OCT     C1 8853  14.630  17.625  20.059  0.2018  0.1765 -0.1069
 4427OCT     C2 8854  14.279  17.333  19.842  0.4044  0.1407 -0.5692
 4428OCT     C1 8855  18.947   1.136   9.733  0.0454 -0.0249 -0.1042
 4428OCT     C2 8856  18.707   1.093  10.096  0.2270  0.0633  0.0167
 4429OCT     C1 8857  12.587  10.734   6.607  0.0514  0.2314 -0.2427
 4429OCT     C2 8858  12.841  11.174   6.694  0.3020  0.2656 -0.0967
 4430OCT     C1 8859   3.012   7.014  12.283  0.2107  0.0731  0.0485
 4430OCT     C2 8860   2.912   7.007  11.781  0.0333 -0.0186  0.0934
 4431OCT     C1 8861   4.600   2.742   9.688 -0.0903  0.2039 -0.3342
 4431OCT     C2 8862   4.650   2.773   9.218 -0.1940 -0.1454 -0.2414
 4432OCT     C1 8863  15.805   9.444  16.040  0.2610  0.0493 -0.4279
 4432OCT     C2 8864  15.678   8.959  15.973  0.2057 -0.0203 -0.0100
 4433OCT     C1 8865  22.335   6.164   9.210  0.0815 -0.3623  0.4396
 4433OCT     C2 8866  22.229   6.555   8.917  0.2267  0.0570  0.1451
 4434OCT     C1 8867   2.020  14.864   1.529 -0.0282 -0.0191  0.3188
 4434OCT     C2 8868   2.435  14.992   1.441  0.1462  0.2149  0.2812
 4435OCT     C1 8869  19.097  17.617  12.623  0.0198 -0.3666  0.1818
 4435OCT     C2 8870  18.784  17.269  12.574 -0.1110 -0.3732 -0.3493
 4436OCT     C1 8871  11.780  23.606  19.942  0.1285 -0.1660  0.0029
 4436OCT     C2 8872  11.644   0.279  19.767 -0.0231  0.1233  0.1728
 4437OCT     C1 8873  11.294  10.926   7.232  0.1878 -0.0813  0.0299
 4437OCT     C2 8874  11.538  11.393   7.214  0.1576  0.2236 -0.0264
 4438OCT     C1 8875  17.005  14.235  21.042 -0.1114 -0.1927  0.2790
 4438OCT     C2 8876  16.583  14.265  20.751  0.0832 -0.0733 -0.4142
 4439OCT     C1 8877   9.469  14.157   1.788 -0.0676 -0.0634  0.3122
 4439OCT     C2 8878   9.369  14.347   2.191 -0.1679  0.0042  0.1135
 4440OCT     C1 8879   9.029  20.428  15.259 -0.0865  0.1729 -0.2338
 4440OCT     C2 8880   9.103  20.852  15.247 -0.1530  0.1611 -0.0465
 4441OCT     C1 8881   9.132  22.025  23.076  0.1282 -0.1825 -0.2044
 4441OCT     C2 8882   9.415  21.677  22.963  0.3020 -0.1900 -0.0163
 4442OCT     C1 8883  10.058   7.857   1.114  0.0161 -0.1615 -0.0264
 4442OCT     C2 8884  10.525   7.794   1.089  0.2848  0.0704  0.0361
 4443OCT     C1 8885   3.979  14.387   1.081  0.1183 -0.1228 -0.2224
 4443OCT     C2 8886   3.904  14.394   0.623 -0.0421 -0.1922 -0.3455
 4444OCT     C1 8887  19.709  11.559  10.929 -0.2146 -0.4611 -0.0315
 4444OCT     C2 8888  19.351  11.189  10.982 -0.1291 -0.1841 -0.0701
 4445OCT     C1 8889  21.475   2.309  21.503  0.2752 -0.0182  0.1552
 4445OCT     C2 8890  21.920   2.397  21.449 -0.1859  0.1477 -0.1979
 4446OCT     C1 8891   7.851   4.710  22.697  0.0832 -0.6826  0.5599
 4446OCT     C2 8892   8.207   4.853  22.467 -0.0198  0.0092 -0.1629
 4447OCT     C1 8893   9.725   9.118   2.175 -0.0830  0.2637 -0.0211
 4447OCT     C2 8894  10.054   8.860   2.001  0.0834 -0.0394 -0.0742
 4448OCT     C1 8895  15.380   3.938   3.056  0.3949 -0.0384  0.0611
 4448OCT     C2 8896  15.526   3.818   2.632  0.4444 -0.2932 -0.1596
 4449OCT     C1 8897  23.607  23.511  13.782 -0.0698  0.1314 -0.2719
 4449OCT     C2 8898   0.270  23.738  13.852  0.1877  0.0989 -0.2710
 4450OCT     C1 8899   2.760   2.914  21.339  0.0744 -0.2199 -0.0580
 4450OCT     C2 8900   2.765   2.911  21.832  0.1253 -0.0101  0.0442
 4451OCT     C1 8901  14.325  19.798  18.111 -0.4714 -0.3139  0.1500
 4451OCT     C2 8902  14.204  20.185  17.938  0.1163 -0.1306 -0.0139
 4452OCT     C1 8903   0.790   3.025  16.637  0.3330  0.1017  0.1028
 4452OCT     C2 8904   1.027   2.664  16.858 -0.1868 -0.3835  0.2243
 4453OCT     C1 8905   7.877   6.377  10.281  0.1369  0.2513 -0.0331
 4453OCT     C2 8906   7.860   6.651  10.647  0.3635 -0.0901  0.0583
 4454OCT     C1 8907  20.119  19.040   2.657 -0.0263 -0.1745 -0.0444
 4454OCT     C2 8908  20.447  19.036   3.005 -0.2928  0.0476  0.0194
 4455OCT     C1 8909   7.901  15.155  11.053  0.0164  0.1051  0.0446
 4455OCT     C2 8910   7.651  15.519  10.967 -0.1962 -0.4236 -0.0448
 4456OCT     C1 8911  19.365   8.967  18.866 -0.2426 -0.4733 -0.2542
 4456OCT     C2 8912  19.316   9.152  18.389  0.3811 -0.0413 -0.2253
 4457OCT     C1 8913   8.550   9.937   4.187 -0.1961  0.0553 -0.1964
 4457OCT     C2 8914   8.182   9.676   4.291  0.1305  0.1203  0.2368
 4458OCT     C1 8915  11.395   0.680  19.958  0.2408  0.2344  0.0523
 4458OCT     C2 8916  11.403   0.943  20.293  0.0593  0.1259 -0.0023
 4459OCT     C1 8917   4.540  13.366  10.864 -0.2529  0.0333 -0.1488
 4459OCT     C2 8918   4.943  13.418  11.055 -0.1997 -0.0789 -0.2059
 4460OCT     C1 8919  13.668   4.373  17.987  0.4491  0.0807  0.6101
 4460OCT     C2 8920  13.711   4.876  17.906 -0.1009  0.1735 -0.4430
 4461OCT     C1 8921  11.743   3.700  16.337  0.3678 -0.0608  0.4058
 4461OCT     C2 8922  12.090   3.826  16.111 -0.0927  0.1890  0.1996
 4462OCT     C1 8923   6.955  23.216  23.545 -0.0366  0.0796 -0.0631
 4462OCT     C2 8924   6.776  23.258   0.310  0.0364 -0.1171 -0.0245
 4463OCT     C1 8925  12.096  19.381  20.730  0.0706 -0.0949  0.4249
 4463OCT     C2 8926  12.313  19.730  20.909  0.0564 -0.0511 -0.2072
 4464OCT     C1 8927  20.724  10.263  13.439 -0.2249 -0.1108  0.0484
 4464OCT     C2 8928  20.705   9.960  13.096 -0.1925 -0.1117  0.3213
 4465OCT     C1 8929  13.104  13.935  23.224 -0.0866  0.0919  0.2449
 4465OCT     C2 8930  13.523  13.934  23.005  0.0222  0.2773 -0.1336
 4466OCT     C1 8931   6.589  22.032   3.806 -0.2619  0.1470 -0.1720
 4466OCT     C2 8932   6.394  22.430   3.825 -0.1448 -0.0528 -0.0361
 4467OCT     C1 8933  17.249   1.712   4.445  0.3932 -0.3165 -0.2166
 4467OCT     C2 8934  17.598   1.531   4.666  0.0385  0.0262  0.0140
 4468OCT     C1 8935  10.018   0.475  11.033 -0.3508 -0.2234  0.1876
 4468OCT     C2 8936   9.665   0.674  11.138  0.1274  0.0589 -0.0488
 4469OCT     C1 8937   3.429  11.821  22.598 -0.1126  0.2640 -0.2146
 4469OCT     C2 8938   3.813  11.862  22.857 -0.2094 -0.1951 -0.0663
 4470OCT     C1 8939   3.655  15.238   2.934 -0.0285  0.0872  0.2448
 4470OCT     C2 8940   3.423  14.906   2.781 -0.1287  0.1194  0.0117
 4471OCT     C1 8941  15.939   6.513  13.916  0.0667  0.4242  0.2006
 4471OCT     C2 8942  15.942   6.200  14.264 -0.3364 -0.2094 -0.0562
 4472OCT     C1 8943   8.734  18.481  16.670  0.1780 -0.3558 -0.0924
 4472OCT     C2 8944   9.176  18.422  16.626 -0.4359  0.1649  0.2892
 4473OCT     C1 8945   5.790   7.702  22.993 -0.5307  0.2252  0.0145
 4473OCT     C2 8946   5.430   7.928  23.095  0.1825 -0.1620 -0.1869
 4474OCT     C1 8947  16.874   3.516   8.402 -0.0973  0.2368 -0.1238
 4474OCT     C2 8948  16.676   3.940   8.480 -0.2430 -0.0688  0.1295
 4475OCT     C1 8949  20.910   4.655  18.557 -0.0852  0.0312 -0.1859
 4475OCT     C2 8950  21.008   4.145  18.623 -0.0610 -0.1617  0.1651
 4476OCT     C1 8951   9.402  16.316  16.846  0.2383  0.0574 -0.1802
 4476OCT     C2 8952   9.097  16.003  16.641 -0.2961  0.0384 -0.1886
 4477OCT     C1 8953   1.281  12.400  18.802  0.1988  0.0388  0.4079
 4477OCT     C2 8954   1.258  12.551  19.195 -0.2586 -0.1300 -0.3284
 4478OCT     C1 8955   8.641   6.691  12.413 -0.4032 -0.1674 -0.2547
 4478OCT     C2 8956   8.732   6.818  11.968 -0.2222 -0.1414  0.0023
 4479OCT     C1 8957   5.760  19.339   3.754 -0.0276  0.2082  0.0812
 4479OCT     C2 8958   6.193  19.434   3.766 -0.1573  0.0585  0.1795
 4480OCT     C1 8959   4.879   2.514  19.993  0.0863 -0.1476 -0.1408
 4480OCT     C2 8960   5.336   2.711  20.023  0.0510 -0.2647 -0.4335
 4481OCT     C1 8961  18.633  16.711  19.123 -0.0601  0.1735 -0.0324
 4481OCT     C2 8962  19.040  16.696  18.991  0.2367  0.0490 -0.0683
 4482OCT     C1 8963  16.357  19.134   1.573  0.0440  0.0206 -0.3193
 4482OCT     C2 8964  16.372  19.270   1.995  0.2016  0.0273  0.0067
 4483OCT     C1 8965  23.643  10.699  16.671  0.2703 -0.3731  0.1913
 4483OCT     C2 8966  23.280  10.783  16.948 -0.0193 -0.2242 -0.1276
 4484OCT     C1 8967  22.026   3.294   0.026 -0.1872 -0.0007  0.2491
 4484OCT     C2 8968  22.147   3.506   0.447  0.4634 -0.3143  0.0694
 4485OCT     C1 8969  22.043   2.619  22.124 -0.0561 -0.3350  0.0061
 4485OCT     C2 8970  22.293   2.648  21.749  0.1479  0.0994  0.0116
 4486OCT     C1 8971  20.649  22.610   5.108  0.0212 -0.3851 -0.0852
 4486OCT     C2 8972  20.513  22.497   5.567 -0.3683  0.3019 -0.0917
 4487OCT     C1 8973   6.054  22.231  20.361 -0.2740  0.3738 -0.1292
 4487OCT     C2 8974   6.359  22.005  20.091  0.0554  0.1225 -0.3899
 4488OCT     C1 8975   5.673  21.676   7.388 -0.0815  0.3565  0.1677
 4488OCT     C2 8976   5.230  21.797   7.334  0.0699  0.2415 -0.0818
 4489OCT     C1 8977  14.466  12.850   0.385 -0.3275 -0.0998  0.0418
 4489OCT     C2 8978  14.494  13.190   0.062  0.1666 -0.1265  0.0255
 4490OCT     C1 8979  16.490  11.378   8.532 -0.1721  0.0772  0.0704
 4490OCT     C2 8980  16.534  11.279   8.073 -0.1857  0.1150 -0.0242
 4491OCT     C1 8981  16.005   3.588   8.931 -0.1475 -0.1205  0.0032
 4491OCT     C2 8982  15.646   3.869   8.771 -0.1394  0.0892 -0.0966
 4492OCT     C1 8983   9.857  10.029   0.544  0.2761  0.3077  0.0246
 4492OCT     C2 8984   9.819   9.654   0.864 -0.0898  0.2339 -0.1864
 4493OCT     C1 8985  22.895  21.278  20.539  0.2004  0.3122 -0.1783
 4493OCT     C2 8986  23.291  21.490  20.484 -0.4468  0.1082 -0.3645
 4494OCT     C1 8987  21.231   1.266  19.964 -0.1533 -0.0046 -0.0066
 4494OCT     C2 8988  21.322   1.172  19.524 -0.0058 -0.0081 -0.2619
 4495OCT     C1 8989  11.525  20.539   2.478 -0.0727  0.2679 -0.3277
 4495OCT     C2 8990  11.635  20.428   2.929  0.0388 -0.1521 -0.0898
 4496OCT     C1 8991   2.971   6.602   3.408  0.1154 -0.0385 -0.0209
 4496OCT     C2 8992   3.362   6.523   3.207  0.1641  0.0688 -0.1292
 4497OCT     C1 8993  20.190   8.759   1.393  0.3344 -0.2074  0.0731
 4497OCT     C2 8994  19.744   8.618   1.286 -0.0202  0.1183 -0.0137
 4498OCT     C1 8995  23.458  13.243   6.502 -0.1151 -0.3166 -0.0390
 4498OCT     C2 8996  23.509  13.742   6.422 -0.3735  0.1579 -0.1601
 4499OCT     C1 8997   7.891   6.883  13.003  0.0907 -0.0217  0.0267
 4499OCT     C2 8998   8.087   7.326  13.221 -0.0905  0.1614  0.0281
 4500OCT     C1 8999  19.225   3.253   8.516  0.0560  0.3044 -0.1959
 4500OCT     C2 9000  18.767   3.410   8.352  0.0487 -0.0220 -0.2196
 4501OCT     C1 9001  12.905  21.227   5.676 -0.0939  0.0653  0.1290
 4501OCT     C2 9002  12.925  20.781   5.784  0.0438  0.2313  0.0457
 4502OCT     C1 9003   4.593  16.761   3.583 -0.1903 -0.0118  0.0461
 4502OCT     C2 9004   4.519  17.034   3.967 -0.2808 -0.1689 -0.3031
 4503OCT     C1 9005  16.327  15.642   2.465 -0.5051 -0.1619  0.0523
 4503OCT     C2 9006  16.190  15.983   2.157  0.2612  0.2591 -0.2866
 4504OCT     C1 9007   2.113   2.132  21.861 -0.0728  0.3355 -0.2455
 4504OCT     C2 9008   1.867   2.470  21.656 -0.0443  0.1426  0.0309
 4505OCT     C1 9009   6.178   7.820  11.819 -0.2818 -0.1875  0.0161
 4505OCT     C2 9010   5.755   7.816  12.003 -0.1335 -0.0843 -0.2090
 4506OCT     C1 9011   6.281   5.527   9.370 -0.0385 -0.0398  0.0012
 4506OCT     C2 9012   6.242   5.577   8.919  0.2663  0.1021  0.0372
 4507OCT     C1 9013  20.455   6.162  22.911  0.0687 -0.0181  0.1728
 4507OCT     C2 9014  20.920   6.230  22.986  0.0122 -0.1996 -0.3167
 4508OCT     C1 9015  23.126   5.155  19.660 -0.1582 -0.2177 -0.1717
 4508OCT     C2 9016  22.658   5.033  19.686  0.0708  0.0151  0.1782
 4509OCT     C1 9017   1.550   7.222  17.358  0.2508  0.2169 -0.0611
 4509OCT     C2 9018   1.338   7.518  17.548  0.1212 -0.2620 -0.1664
 4510OCT     C1 9019   0.599  23.075   5.488 -0.3591  0.1358 -0.0112
 4510OCT     C2 9020   0.364  23.321   5.817  0.0098  0.3386  0.1155
 4511OCT     C1 9021   8.614   9.782   0.394  0.2310  0.2832 -0.2211
 4511OCT     C2 9022   9.124   9.812   0.423  0.0556  0.1766 -0.0484
 4512OCT     C1 9023   1.257  15.410   0.235  0.0094  0.1908  0.0551
 4512OCT     C2 9024   1.013  15.361   0.591 -0.3070  0.0192 -0.0215
 4513OCT     C1 9025   9.125  12.921   3.048  0.1491  0.3924 -0.0752
 4513OCT     C2 9026   9.022  12.467   3.038  0.1860  0.0772 -0.1681
 4514OCT     C1 9027  11.575   3.991  20.717 -0.0854  0.0201  0.3168
 4514OCT     C2 9028  11.189   3.765  20.852 -0.0263 -0.2408 -0.1284
 4515OCT     C1 9029  18.560  20.850   0.368 -0.2263 -0.2768 -0.1424
 4515OCT     C2 9030  18.322  20.728   0.782  0.1710  0.0260  0.1881
 4516OCT     C1 9031   2.529  23.455   1.329  0.1833  0.1545  0.0812
 4516OCT     C2 9032   2.413  23.007   1.187  0.3864 -0.1302  0.1908
 4517OCT     C1 9033  17.956  12.171  21.695 -0.1187 -0.1462 -0.3256
 4517OCT     C2 9034  17.953  11.965  22.143 -0.0402  0.2003 -0.2324
 4518OCT     C1 9035  10.396  15.021  19.502 -0.1261 -0.0155  0.1348
 4518OCT     C2 9036  10.298  15.146  20.016  0.2849 -0.1943 -0.0146
 4519OCT     C1 9037  10.213  11.610  19.773 -0.0016  0.0689 -0.0697
 4519OCT     C2 9038   9.815  11.652  20.005 -0.0264  0.0115 -0.1152
 4520OCT     C1 9039  16.853   4.569  12.965  0.0473 -0.2772 -0.0274
 4520OCT     C2 9040  16.903   4.895  13.326 -0.0151  0.1594 -0.1789
 4521OCT     C1 9041  16.061  16.774  13.765  0.2181 -0.5010 -0.2087
 4521OCT     C2 9042  16.240  16.604  14.154 -0.2970 -0.1878 -0.1517
 4522OCT     C1 9043  20.303  15.147   7.794 -0.0131 -0.2369 -0.1482
 4522OCT     C2 9044  20.195  15.585   7.869  0.1560 -0.1356  0.0550
 4523OCT     C1 9045  22.440   7.046  21.772 -0.2058  0.1502  0.0166
 4523OCT     C2 9046  22.564   7.435  21.488  0.3574 -0.0106 -0.2341
 4524OCT     C1 9047   9.509  12.444  17.612  0.0866 -0.2060  0.1071
 4524OCT     C2 9048   9.621  12.780  17.925 -0.1453  0.1370  0.4124
 4525OCT     C1 9049  13.176   3.672   4.418 -0.1846 -0.0380 -0.0979
 4525OCT     C2 9050  13.452   3.529   4.755  0.0552  0.1383  0.0089
 4526OCT     C1 9051  14.079  22.650  21.104 -0.0301 -0.2074  0.0954
 4526OCT     C2 9052  14.182  22.785  21.561 -0.1500 -0.2799  0.1465
 4527OCT     C1 9053  22.428   8.962  19.214  0.1553 -0.0211  0.0003
 4527OCT     C2 9054  22.253   8.921  19.663 -0.1738 -0.1735 -0.1661
 4528OCT     C1 9055  17.476  19.777  15.199  0.3375 -0.0248 -0.1565
 4528OCT     C2 9056  17.331  20.232  15.309 -0.1472 -0.0785 -0.1586
 4529OCT     C1 9057   5.556  18.876  20.407 -0.4195  0.1588 -0.2602
 4529OCT     C2 9058   5.806  18.989  20.754 -0.0549  0.1781 -0.1070
 4530OCT     C1 9059  22.785  10.439  18.200 -0.0550  0.3383 -0.0420
 4530OCT     C2 9060  22.562  10.846  18.190 -0.3025  0.1103  0.2609
 4531OCT     C1 9061  23.046  10.881   8.686 -0.1119  0.2667  0.2729
 4531OCT     C2 9062  23.078  10.443   8.926  0.0163 -0.3981  0.3093
 4532OCT     C1 9063   8.832   5.505  19.084 -0.0831  0.1123  0.0360
 4532OCT     C2 9064   8.768   5.911  19.194 -0.0860 -0.1205  0.2016
 4533OCT     C1 9065   4.988   7.011  18.016  0.1400  0.1056  0.0113
 4533OCT     C2 9066   4.870   6.517  17.864  0.0443  0.0426 -0.1939
 4534OCT     C1 9067   3.636  23.448   2.312 -0.2720  0.1418 -0.3831
 4534OCT     C2 9068   3.661  23.387   2.798 -0.2507  0.1965  0.1576
 4535OCT     C1 9069   9.603   8.109  13.732  0.1888 -0.1005  0.0372
 4535OCT     C2 9070   9.513   7.875  13.300 -0.2205 -0.0555  0.1721
 4536OCT     C1 9071   8.851  20.088   4.702  0.2777 -0.0268 -0.1961
 4536OCT     C2 9072   9.010  19.636   4.791 -0.0512  0.2814  0.0218
 4537OCT     C1 9073  22.705  23.420  15.436  0.3998  0.0132  0.1442
 4537OCT     C2 9074  22.747  23.234  14.950 -0.0754 -0.4003 -0.3408
 4538OCT     C1 9075  11.223  20.872   6.170 -0.2024  0.0110  0.1804
 4538OCT     C2 9076  11.144  21.285   5.960 -0.0642 -0.4431  0.1419
 4539OCT     C1 9077  17.549  21.607  13.355 -0.0971  0.1032  0.2424
 4539OCT     C2 9078  17.611  21.399  13.761  0.1766  0.0571  0.1223
 4540OCT     C1 9079  20.502   0.942   3.138 -0.0451  0.2251 -0.2437
 4540OCT     C2 9080  20.690   1.225   2.844  0.0653 -0.2830  0.0912
 4541OCT     C1 9081  23.375  17.947   8.078  0.2428  0.1165 -0.1261
 4541OCT     C2 9082   0.126  17.977   8.060  0.0071 -0.4505 -0.1591
 4542OCT     C1 9083   3.991  13.594  12.315  0.0330  0.2938 -0.3901
 4542OCT     C2 9084   4.219  13.930  12.121  0.0950 -0.1195 -0.2869
 4543OCT     C1 9085   4.645   3.960   4.787 -0.1076 -0.0847  0.0084
 4543OCT     C2 9086   4.824   4.214   4.479 -0.3299 -0.1052  0.1454
 4544OCT     C1 9087   5.333   0.555  19.254  0.3782  0.2032 -0.0827
 4544OCT     C2 9088   5.362   0.901  19.590 -0.5935 -0.2744 -0.4331
 4545OCT     C1 9089  16.697   2.329  16.776 -0.1502  0.0024 -0.3745
 4545OCT     C2 9090  16.478   1.947  16.987  0.1870 -0.3941 -0.2677
 4546OCT     C1 9091  16.122   9.791  12.215 -0.0673  0.2130 -0.0467
 4546OCT     C2 9092  15.713   9.603  12.138  0.1650  0.0224  0.1765
 4547OCT     C1 9093   3.493   2.236  18.516  0.0142  0.2972  0.1621
 4547OCT     C2 9094   3.226   2.601  18.580 -0.0145  0.1079  0.2768
 4548OCT     C1 9095   0.202  14.602  16.147 -0.1329 -0.2029  0.3690
 4548OCT     C2 9096   0.589  14.335  16.222  0.2110 -0.0274 -0.1081
 4549OCT     C1 9097  11.462  19.956   3.522  0.1058  0.2079 -0.1062
 4549OCT     C2 9098  11.794  19.867   3.811 -0.1415  0.0454  0.1146
 4550OCT     C1 9099  16.374  10.195   8.355  0.3234  0.2081 -0.2173
 4550OCT     C2 9100  16.325  10.656   8.437 -0.0364  0.0914  0.1562
 4551OCT     C1 9101   9.455   1.606  10.690 -0.3956 -0.1418 -0.3530
 4551OCT     C2 9102   9.920   1.652  10.856 -0.1044 -0.1346  0.0775
 4552OCT     C1 9103   3.148   7.099  20.541 -0.2064  0.3541 -0.0695
 4552OCT     C2 9104   3.572   6.850  20.445 -0.0860 -0.0324 -0.1307
 4553OCT     C1 9105   8.713  16.081   7.874 -0.1586 -0.1853  0.1756
 4553OCT     C2 9106   8.612  15.994   8.303 -0.0358 -0.0549  0.2984
 4554OCT     C1 9107  14.685  15.689   8.383 -0.4104 -0.1922  0.0394
 4554OCT     C2 9108  15.164  15.742   8.439 -0.1021 -0.2509  0.2804
 4555OCT     C1 9109  19.485   0.574  12.489  0.0131  0.1525 -0.0277
 4555OCT     C2 9110  19.528   0.785  12.936  0.0087  0.1229  0.0388
 4556OCT     C1 9111  18.522  20.405   1.707 -0.2177  0.0022 -0.1013
 4556OCT     C2 9112  18.864  20.689   1.588  0.2087 -0.2888 -0.1312
 4557OCT     C1 9113   6.736   0.439  14.373  0.4422  0.1433 -0.0460
 4557OCT     C2 9114   6.283   0.421  14.154  0.0651  0.2026 -0.1138
 4558OCT     C1 9115   1.081  17.451  12.111  0.1776 -0.3205  0.1953
 4558OCT     C2 9116   0.658  17.289  12.047 -0.1705  0.0079 -0.4853
 4559OCT     C1 9117   3.421   7.029  16.498 -0.3366  0.1983 -0.1685
 4559OCT     C2 9118   3.716   7.243  16.249 -0.2655 -0.1362 -0.0886
 4560OCT     C1 9119   2.865  10.616   2.037 -0.0989  0.0151 -0.2683
 4560OCT     C2 9120   2.951  10.451   2.518 -0.1316 -0.1534 -0.2472
 4561OCT     C1 9121  13.480  11.562   7.525 -0.0197  0.2376  0.0399
 4561OCT     C2 9122  13.079  11.848   7.536 -0.3313 -0.1020  0.1429
 4562OCT     C1 9123  14.912  12.796  10.805 -0.2917  0.0402  0.1103
 4562OCT     C2 9124  14.479  13.020  10.712 -0.2651  0.2644  0.2158
 4563OCT     C1 9125  18.131   7.489  22.830 -0.0282 -0.0910  0.0940
 4563OCT     C2 9126  17.956   7.403  22.388  0.2560  0.3632 -0.0924
 4564OCT     C1 9127  18.222  23.296   5.526 -0.3482  0.1369  0.0449
 4564OCT     C2 9128  17.854  23.550   5.656 -0.2818 -0.0631  0.1189
 4565OCT     C1 9129   5.869  20.052   3.546  0.0411 -0.0696  0.1639
 4565OCT     C2 9130   5.656  19.933   3.160  0.3640 -0.0035 -0.2500
 4566OCT     C1 9131  12.944  13.000  13.909  0.0829  0.3534 -0.1649
 4566OCT     C2 9132  12.609  13.070  13.581  0.0205 -0.3138 -0.1192
 4567OCT     C1 9133  15.198   2.380  17.752 -0.2702  0.6113  0.3436
 4567OCT     C2 9134  14.809   2.049  17.835 -0.0572  0.1989  0.0309
 4568OCT     C1 9135   7.221  22.711   0.266  0.3365 -0.0179  0.0903
 4568OCT     C2 9136   6.893  22.392   0.293 -0.0573  0.2352 -0.1101
 4569OCT     C1 9137  21.322   7.143  11.159 -0.0039 -0.0123 -0.0855
 4569OCT     C2 9138  21.204   6.751  11.256  0.3626 -0.0530 -0.1688
 4570OCT     C1 9139  18.596  15.476   6.436  0.1077 -0.0976 -0.1770
 4570OCT     C2 9140  18.105  15.530   6.342  0.1234  0.1744 -0.3386
 4571OCT     C1 9141   1.614  21.136   2.522 -0.1329  0.0628 -0.2214
 4571OCT     C2 9142   1.498  21.206   2.976  0.2073 -0.0909 -0.2366
 4572OCT     C1 9143  11.587   7.743  21.005  0.0921 -0.0250 -0.0854
 4572OCT     C2 9144  11.973   7.616  20.882  0.0094  0.3869 -0.4360
 4573OCT     C1 9145  12.892   9.996  23.384  0.1420  0.2810 -0.0905
 4573OCT     C2 9146  12.683   9.815   0.068  0.2542  0.1767 -0.1368
 4574OCT     C1 9147  22.062  11.067  12.690  0.2149  0.0479  0.2639
 4574OCT     C2 9148  22.083  11.473  12.916 -0.0667 -0.1998  0.2365
 4575OCT     C1 9149   2.868   7.062  13.498  0.0584  0.1540  0.0084
 4575OCT     C2 9150   2.922   7.480  13.701 -0.0019 -0.1662 -0.0732
 4576OCT     C1 9151   3.179  10.198  13.446  0.1020  0.2089 -0.0254
 4576OCT     C2 9152   3.045  10.411  13.060 -0.2068 -0.0319 -0.0767
 4577OCT     C1 9153  20.794  20.124   9.736 -0.1325 -0.0806  0.3158
 4577OCT     C2 9154  20.495  20.449   9.676 -0.1012  0.1472 -0.0278
 4578OCT     C1 9155   0.657   3.390   1.324 -0.1188  0.0752  0.0045
 4578OCT     C2 9156   0.302   3.718   1.310  0.2104 -0.3452  0.2126
 4579OCT     C1 9157   5.376   9.509  12.099 -0.1731  0.1514  0.4002
 4579OCT     C2 9158   5.292   9.725  12.479 -0.4230 -0.0993 -0.1633
 4580OCT     C1 9159  16.051  22.617  12.195  0.1081  0.4055 -0.1485
 4580OCT     C2 9160  16.391  22.895  12.159 -0.0740 -0.2465 -0.0831
 4581OCT     C1 9161  16.222   2.488   3.188  0.1905  0.0198  0.1156
 4581OCT     C2 9162  16.386   2.107   3.347 -0.1077  0.4244 -0.0719
 4582OCT     C1 9163   5.826  23.704   6.173  0.4396 -0.1259 -0.1695
 4582OCT     C2 9164   5.843   0.012   5.709 -0.1193 -0.1047 -0.0583
 4583OCT     C1 9165   8.465  22.082  17.753  0.1603  0.1381 -0.2050
 4583OCT     C2 9166   8.154  22.435  17.725  0.0596 -0.0546 -0.0463
 4584OCT     C1 9167   0.839   7.640  22.125  0.0063 -0.3041  0.1897
 4584OCT     C2 9168   0.803   7.412  21.692  0.0992  0.0062 -0.1592
 4585OCT     C1 9169  16.144  15.044   2.434 -0.2752  0.0931 -0.1117
 4585OCT     C2 9170  15.986  14.595   2.341  0.1050 -0.1953 -0.4883
 4586OCT     C1 9171  21.837   7.074  11.031  0.1853 -0.1103  0.1733
 4586OCT     C2 9172  21.675   6.642  10.836 -0.1134 -0.1464 -0.1234
 4587OCT     C1 9173  16.631   7.608  14.949 -0.2266  0.0363 -0.3374
 4587OCT     C2 9174  16.194   7.765  14.823  0.1677  0.0249  0.1975
 4588OCT     C1 9175   9.588   3.765   9.307  0.3113 -0.2135  0.0130
 4588OCT     C2 9176   9.675   3.951   8.877  0.0439  0.2299  0.0627
 4589OCT     C1 9177  20.649  21.445  13.523 -0.1785  0.1252  0.1390
 4589OCT     C2 9178  20.943  21.517  13.223 -0.1131  0.1943 -0.0337
 4590OCT     C1 9179   7.637  17.300   8.009  0.1328 -0.0954 -0.0994
 4590OCT     C2 9180   7.994  17.033   8.049  0.0563  0.2944  0.4767
 4591OCT     C1 9181  12.937   5.912   7.059  0.2221  0.0208  0.1606
 4591OCT     C2 9182  13.180   6.290   6.843  0.3210 -0.0168  0.0250
 4592OCT     C1 9183   4.978   8.154  20.160  0.2091  0.4855 -0.0417
 4592OCT     C2 9184   4.622   8.410  20.036 -0.2773  0.1931  0.2500
 4593OCT     C1 9185  10.992  20.533   2.406 -0.0214 -0.1049  0.0720
 4593OCT     C2 9186  10.664  20.769   2.184 -0.3530  0.1805  0.5542
 4594OCT     C1 9187  21.305  15.467   8.613 -0.2705  0.2208  0.3700
 4594OCT     C2 9188  21.147  15.821   8.379 -0.3454 -0.3884  0.1565
 4595OCT     C1 9189   9.569   5.930  14.297 -0.1624 -0.3294 -0.0230
 4595OCT     C2 9190   9.963   6.097  14.578 -0.2362  0.0299  0.2058
 4596OCT     C1 9191  17.548  20.817   3.618  0.2669  0.2249  0.1383
 4596OCT     C2 9192  17.230  20.914   3.250 -0.5959 -0.2194  0.1199
 4597OCT     C1 9193  17.688   0.740   2.687  0.1603  0.1352 -0.2879
 4597OCT     C2 9194  17.373   1.043   2.736  0.1125  0.3097 -0.0006
 4598OCT     C1 9195   9.042  17.301  11.824  0.0850 -0.2022 -0.1605
 4598OCT     C2 9196   9.231  17.353  12.272  0.4361 -0.0940 -0.2829
 4599OCT     C1 9197  15.364  23.033   9.282  0.0591  0.0709 -0.0200
 4599OCT     C2 9198  15.225  23.362   8.985  0.0469 -0.0099 -0.2385
 4600OCT     C1 9199   6.696   1.713  22.517  0.1809 -0.1367  0.5232
 4600OCT     C2 9200   6.957   1.825  22.851  0.2181  0.1687 -0.1925
 4601OCT     C1 9201   0.183  14.291  13.966 -0.1084  0.0840 -0.1737
 4601OCT     C2 9202   0.300  14.370  14.420  0.0817  0.0478 -0.6294
 4602OCT     C1 9203   1.575   1.185   4.599  0.0231 -0.1081 -0.1950
 4602OCT     C2 9204   1.134   1.056   4.381  0.0997 -0.0673 -0.1527
 4603OCT     C1 9205  20.687   4.882  11.547  0.0887  0.0082 -0.3282
 4603OCT     C2 9206  21.174   4.928  11.548 -0.0841  0.1082 -0.0644
 4604OCT     C1 9207  11.744  15.908   4.068  0.0700  0.1309 -0.1088
 4604OCT     C2 9208  11.589  15.479   4.046 -0.1529  0.0782  0.1118
 4605OCT     C1 9209  19.887   6.573  20.635  0.0580 -0.1416  0.3665
 4605OCT     C2 9210  20.191   6.488  21.023  0.0671 -0.0387  0.1938
 4606OCT     C1 9211   0.845   3.258  15.064  0.0888 -0.0702  0.0845
 4606OCT     C2 9212   0.991   3.387  14.629 -0.2035  0.0591 -0.0143
 4607OCT     C1 9213  15.624  18.188   7.710 -0.1022 -0.2702 -0.0957
 4607OCT     C2 9214  15.955  18.360   7.941 -0.4275  0.0068  0.0773
 4608OCT     C1 9215  22.898  15.123  22.441  0.0453 -0.0155 -0.1397
 4608OCT     C2 9216  22.787  15.156  21.968  0.4195  0.1471 -0.3030
 4609OCT     C1 9217  15.279  18.854   8.249  0.5225  0.2221  0.0731
 4609OCT     C2 9218  15.337  19.038   8.680 -0.1195 -0.0382 -0.0052
 4610OCT     C1 9219  18.949   7.216  15.622 -0.6456 -0.1912  0.1257
 4610OCT     C2 9220  19.375   7.436  15.550 -0.1142  0.1696  0.1075
 4611OCT     C1 9221  12.541  15.283  17.003  0.3367  0.2039 -0.1058
 4611OCT     C2 9222  12.706  14.833  17.077 -0.1015  0.3191 -0.1528
 4612OCT     C1 9223   2.227   5.021   4.308 -0.4685  0.0924 -0.0321
 4612OCT     C2 9224   1.862   5.307   4.320  0.0838 -0.3902 -0.3079
 4613OCT     C1 9225  11.617  20.457  16.897 -0.0872 -0.3335  0.4130
 4613OCT     C2 9226  11.945  20.768  16.794  0.0190  0.1705 -0.0861
 4614OCT     C1 9227   5.146  21.674  23.142 -0.1653 -0.2038  0.2374
 4614OCT     C2 9228   5.201  22.013  22.803 -0.3329  0.1468  0.0908
 4615OCT     C1 9229  18.072   3.993  21.727  0.0631  0.1984  0.2765
 4615OCT     C2 9230  17.912   3.573  21.733 -0.4596  0.1758  0.0872
 4616OCT     C1 9231   9.177  10.131  21.445 -0.1842 -0.0996  0.0248
 4616OCT     C2 9232   8.802  10.351  21.163 -0.1927 -0.1908 -0.1466
 4617OCT     C1 9233  12.784  11.672   9.019  0.3438  0.0581  0.0902
 4617OCT     C2 9234  12.955  12.083   8.786 -0.1133  0.1595  0.1855
 4618OCT     C1 9235  12.164  21.023  20.048  0.1619 -0.0916 -0.4266
 4618OCT     C2 9236  11.761  21.197  19.844  0.1744 -0.0329 -0.2117
 4619OCT     C1 9237  15.614  20.461   2.521  0.1512 -0.1299  0.0445
 4619OCT     C2 9238  15.517  20.357   2.051  0.1969 -0.0177 -0.0733
 4620OCT     C1 9239  10.218   8.285  21.927  0.2421 -0.0100 -0.0800
 4620OCT     C2 9240  10.224   7.932  21.590  0.0811 -0.0242 -0.1771
 4621OCT     C1 9241  21.704   9.210  16.129 -0.0272 -0.1159 -0.0365
 4621OCT     C2 9242  22.029   8.962  16.233  0.2546 -0.2777 -0.3000
 4622OCT     C1 9243   5.363   5.273  16.940  0.0475 -0.0729  0.1746
 4622OCT     C2 9244   5.638   4.873  17.103 -0.1930 -0.1262  0.0489
 4623OCT     C1 9245   0.177  10.188  10.746 -0.2821  0.0615  0.1708
 4623OCT     C2 9246   0.596  10.071  10.884 -0.0791  0.1525  0.0616
 4624OCT     C1 9247   9.274   3.128   3.362 -0.1007 -0.0194  0.0315
 4624OCT     C2 9248   9.664   3.186   3.590 -0.1283  0.0556  0.0884
 4625OCT     C1 9249   8.280   0.288   2.807 -0.0484  0.0529 -0.2150
 4625OCT     C2 9250   8.790   0.266   2.753  0.3790 -0.0518  0.3426
 4626OCT     C1 9251  22.075   3.602  14.264 -0.3072 -0.0751 -0.3352
 4626OCT     C2 9252  22.107   3.161  14.475 -0.0438 -0.1354  0.2059
 4627OCT     C1 9253  12.319  22.060   3.463 -0.0512 -0.1358  0.1155
 4627OCT     C2 9254  12.100  22.391   3.217  0.0501 -0.1990  0.1972
 4628OCT     C1 9255   0.553  14.525   4.715  0.0681 -0.1590 -0.2223
 4628OCT     C2 9256   1.010  14.400   4.588  0.1509 -0.2384 -0.0680
 4629OCT     C1 9257   6.635   1.030  20.618 -0.0677 -0.1673 -0.2687
 4629OCT     C2 9258   6.265   0.971  20.310  0.3115 -0.0843  0.1845
 4630OCT     C1 9259  21.845   7.306  16.790  0.1026  0.2213 -0.0529
 4630OCT     C2 9260  21.812   6.833  16.802 -0.0068  0.1190 -0.0189
 4631OCT     C1 9261   1.587  21.659   2.688  0.1495 -0.0683  0.2182
 4631OCT     C2 9262   2.024  21.554   2.460 -0.2398  0.1018  0.2409
 4632OCT     C1 9263   0.394   4.123   2.146  0.2531  0.0053  0.4999
 4632OCT     C2 9264   0.451   3.924   1.710  0.1929  0.0435  0.0624
 4633OCT     C1 9265  17.156   7.528  17.865 -0.1622 -0.1350  0.1814
 4633OCT     C2 9266  16.729   7.707  17.759  0.2406 -0.2060 -0.0404
 4634OCT     C1 9267  16.274   0.621   3.049 -0.1740  0.0535 -0.0301
 4634OCT     C2 9268  16.259   0.299   3.401  0.0285  0.0519 -0.1141
 4635OCT     C1 9269  22.706   3.662  15.557  0.0469  0.2429 -0.3123
 4635OCT     C2 9270  22.312   3.834  15.738 -0.1058 -0.3172 -0.0172
 4636OCT     C1 9271  15.606   0.943   7.938 -0.2401  0.0675 -0.8351
 4636OCT     C2 9272  15.656   0.557   7.733  0.2072  0.0399  0.1748
 4637OCT     C1 9273   5.747   4.980  21.097  0.0373 -0.2878  0.0047
 4637OCT     C2 9274   6.108   4.949  20.889  0.0182 -0.2406 -0.2762
 4638OCT     C1 9275  21.444  14.989   3.629 -0.1195 -0.0880  0.0600
 4638OCT     C2 9276  21.633  14.657   4.003  0.4911  0.2019 -0.0289
 4639OCT     C1 9277   5.604  21.682  10.252  0.0659 -0.0721 -0.1716
 4639OCT     C2 9278   5.497  22.025  10.579 -0.2001 -0.0812  0.0349
 4640OCT     C1 9279  16.983   9.758  15.623  0.1236 -0.1033 -0.4440
 4640OCT     C2 9280  16.703   9.705  15.946  0.0134 -0.0674  0.2818
 4641OCT     C1 9281  17.263   1.810   6.312  0.0143  0.3545  0.1597
 4641OCT     C2 9282  17.570   2.066   6.132 -0.3406 -0.0411 -0.2378
 4642OCT     C1 9283  15.236  21.962  16.357 -0.1202  0.1133 -0.5004
 4642OCT     C2 9284  15.319  21.536  16.371 -0.0745  0.2054 -0.4122
 4643OCT     C1 9285  19.341  16.911   8.510 -0.1806  0.1599  0.0236
 4643OCT     C2 9286  19.117  16.912   8.887  0.0157 -0.1363 -0.2513
 4644OCT     C1 9287  19.980  23.311  23.387  0.1748 -0.1856  0.2037
 4644OCT     C2 9288  19.926  23.460  22.918  0.1668 -0.0308 -0.0911
 4645OCT     C1 9289  10.448   2.459  10.875  0.0702 -0.2849  0.1299
 4645OCT     C2 9290  10.470   2.409  11.315  0.1337 -0.1745  0.0351
 4646OCT     C1 9291   5.037  12.473  10.650  0.1873  0.4524  0.0614
 4646OCT     C2 9292   5.479  12.327  10.552 -0.0438  0.0101 -0.0921
 4647OCT     C1 9293  10.182  19.144   4.191 -0.0938 -0.0254 -0.1760
 4647OCT     C2 9294  10.264  19.572   4.225  0.2580 -0.2503  0.1251
 4648OCT     C1 9295  15.450  13.376  10.903  0.0145 -0.1223  0.0252
 4648OCT     C2 9296  15.621  12.952  10.867 -0.2927 -0.0330  0.1595
 4649OCT     C1 9297  16.609  13.329  17.800  0.0354  0.4615 -0.0468
 4649OCT     C2 9298  16.635  13.277  17.320  0.0434  0.1652  0.1441
 4650OCT     C1 9299  14.641  10.136   0.146 -0.0660 -0.8000 -0.0885
 4650OCT     C2 9300  15.004  10.409   0.004 -0.1547 -0.0847 -0.1305
 4651OCT     C1 9301   1.331  19.698  22.541  0.1336  0.1238  0.1195
 4651OCT     C2 9302   1.316  19.635  22.096  0.3415 -0.0163 -0.0680
 4652OCT     C1 9303   1.427  14.191  23.715 -0.1345 -0.3756 -0.1373
 4652OCT     C2 9304   1.407  14.551   0.204 -0.1437 -0.0199  0.1613
 4653OCT     C1 9305   7.963   0.981  15.824 -0.1403  0.1643 -0.1941
 4653OCT     C2 9306   8.133   1.049  15.339 -0.0265  0.0415  0.2240
 4654OCT     C1 9307  12.854  13.931   7.184 -0.1691  0.0936 -0.2717
 4654OCT     C2 9308  13.319  13.925   7.285  0.1543 -0.2082  0.0973
 4655OCT     C1 9309  18.295  22.273  17.820 -0.0958 -0.0785 -0.1753
 4655OCT     C2 9310  18.712  22.337  18.009 -0.1817  0.1461  0.0871
 4656OCT     C1 9311  21.542  15.509   7.730 -0.3524 -0.1353  0.0499
 4656OCT     C2 9312  21.217  15.283   7.419 -0.2723  0.0616 -0.0125
 4657OCT     C1 9313  11.053   0.058  15.529  0.0126 -0.0518 -0.1324
 4657OCT     C2 9314  10.726   0.383  15.712  0.1319  0.5276  0.0236
 4658OCT     C1 9315   9.987   7.512  21.822  0.8881 -0.3709  0.4774
 4658OCT     C2 9316   9.984   7.543  21.390  0.2383 -0.1226  0.4320
 4659OCT     C1 9317  22.966   4.641  19.795 -0.2039 -0.3213 -0.0995
 4659OCT     C2 9318  22.937   4.247  19.657 -0.1306  0.3208  0.3857
 4660OCT     C1 9319   9.271   5.087  15.981  0.0096  0.1335 -0.0121
 4660OCT     C2 9320   9.418   5.458  15.812  0.3462  0.3494  0.3066
 4661OCT     C1 9321   2.600  12.309   7.114  0.1941 -0.1041 -0.3766
 4661OCT     C2 9322   2.562  12.648   7.405  0.1269 -0.0463 -0.2294
 4662OCT     C1 9323  19.737   7.029  10.366  0.3837  0.0884  0.2568
 4662OCT     C2 9324  19.472   7.432  10.424 -0.2869 -0.0445 -0.2946
 4663OCT     C1 9325  12.356   1.318   3.237  0.3634  0.0582 -0.3776
 4663OCT     C2 9326  12.409   1.508   3.652  0.1041  0.0786 -0.0356
 4664OCT     C1 9327  17.768   2.823   1.554 -0.2627 -0.0871  0.2771
 4664OCT     C2 9328  17.844   3.081   1.165  0.0642  0.1978 -0.1144
 4665OCT     C1 9329  15.177  14.840  10.401 -0.1081 -0.3210 -0.3359
 4665OCT     C2 9330  15.001  15.064   9.982 -0.1115 -0.2498 -0.3463
 4666OCT     C1 9331  11.610   7.377  10.841  0.1857  0.3605  0.0057
 4666OCT     C2 9332  12.076   7.497  10.833 -0.0304  0.2811  0.3170
 4667OCT     C1 9333  21.750   6.280  16.880 -0.3351  0.0002  0.1871
 4667OCT     C2 9334  21.356   6.358  17.108 -0.1285  0.0453 -0.0176
 4668OCT     C1 9335  13.550  22.716   9.544  0.2633 -0.1372 -0.2443
 4668OCT     C2 9336  13.991  22.761   9.669 -0.0119  0.6635 -0.3250
 4669OCT     C1 9337   6.830   4.953  16.611 -0.1529  0.3425 -0.1731
 4669OCT     C2 9338   7.165   4.725  16.428  0.2043 -0.0059  0.1203
 4670OCT     C1 9339  12.360   0.120  22.481  0.1346  0.3005  0.1253
 4670OCT     C2 9340  12.463   0.444  22.792  0.0972  0.3770  0.0603
 4671OCT     C1 9341  12.689   8.730   6.893  0.3390 -0.1889  0.2330
 4671OCT     C2 9342  12.276   8.627   7.068  0.0650 -0.1481 -0.0932
 4672OCT     C1 9343   0.184  17.816   2.413 -0.4919 -0.1888 -0.0248
 4672OCT     C2 9344   0.598  17.816   2.124 -0.1883 -0.3433 -0.2025
 4673OCT     C1 9345  17.397   8.989  10.908 -0.2640  0.2384 -0.1974
 4673OCT     C2 9346  17.442   9.095  11.376 -0.1791 -0.1316  0.1879
 4674OCT     C1 9347   2.545  12.618  20.933 -0.1099  0.0410 -0.2852
 4674OCT     C2 9348   2.888  12.804  21.275  0.0188  0.0115  0.5448
 4675OCT     C1 9349   6.278   0.491   1.469 -0.3529  0.2188  0.2664
 4675OCT     C2 9350   5.850   0.681   1.537 -0.0519  0.1286  0.2573
 4676OCT     C1 9351   2.145  15.143  11.473  0.0813  0.1206 -0.0064
 4676OCT     C2 9352   1.696  15.161  11.259  0.3270 -0.0183  0.0204
 4677OCT     C1 9353  14.980   7.166   8.396  0.3416 -0.2415 -0.0820
 4677OCT     C2 9354  15.149   7.495   8.644 -0.2900 -0.0617 -0.2077
 4678OCT     C1 9355  18.667  17.977  14.432 -0.2494 -0.0618 -0.2036
 4678OCT     C2 9356  18.435  18.229  14.772 -0.1723  0.0580 -0.4105
 4679OCT     C1 9357  17.536   2.664  16.955  0.0177  0.1462  0.3056
 4679OCT     C2 9358  17.303   2.305  16.738 -0.0457 -0.0710 -0.2288
 4680OCT     C1 9359  17.611  15.176  18.121 -0.1082  0.0038 -0.2656
 4680OCT     C2 9360  17.855  15.536  18.064  0.1624  0.1378 -0.1555
 4681OCT     C1 9361  23.008   6.173  15.425 -0.1972 -0.2465 -0.2330
 4681OCT     C2 9362  22.824   5.712  15.442  0.2790 -0.1224  0.1112
 4682OCT     C1 9363   8.467  22.357  11.962 -0.0021 -0.5296  0.0976
 4682OCT     C2 9364   8.711  22.674  12.169  0.1644  0.1044 -0.1383
 4683OCT     C1 9365   9.094   1.779   2.306  0.1421  0.1850 -0.3420
 4683OCT     C2 9366   8.760   1.508   2.190 -0.0546  0.1642  0.0649
 4684OCT     C1 9367  22.096  17.613   8.628  0.2717  0.0524  0.1810
 4684OCT     C2 9368  22.026  17.960   8.382 -0.0101 -0.0233  0.0338
 4685OCT     C1 9369   8.132   6.558  15.705  0.3665 -0.0616 -0.0633
 4685OCT     C2 9370   8.527   6.619  15.466 -0.6554  0.4053  0.0721
 4686OCT     C1 9371   1.683   7.448  14.383 -0.3575 -0.0479 -0.4020
 4686OCT     C2 9372   2.052   7.394  14.048  0.0363 -0.1444 -0.3227
 4687OCT     C1 9373   0.689  15.021   4.976 -0.0194 -0.1956  0.1615
 4687OCT     C2 9374   1.165  15.202   5.024 -0.0210  0.4290 -0.2794
 4688OCT     C1 9375   1.746   0.384  19.341 -0.1155  0.4693  0.1047
 4688OCT     C2 9376   1.789  23.686  19.184 -0.0161  0.0524 -0.0439
 4689OCT     C1 9377  10.375   2.125  19.464 -0.1024 -0.0473  0.0838
 4689OCT     C2 9378  10.461   2.589  19.506 -0.1815 -0.0427 -0.0858
 4690OCT     C1 9379  13.128  14.760  11.369  0.1554  0.0339 -0.1162
 4690OCT     C2 9380  13.192  14.653  10.899 -0.0198 -0.2797 -0.2140
 4691OCT     C1 9381   7.555   9.243  17.574  0.0287  0.4168 -0.1009
 4691OCT     C2 9382   7.532   9.263  17.081 -0.0083 -0.0301 -0.0112
 4692OCT     C1 9383  12.504   2.379   5.910 -0.0272 -0.2752  0.0051
 4692OCT     C2 9384  12.306   2.034   5.710 -0.0391 -0.3322  0.2729
 4693OCT     C1 9385  19.417  16.768  14.964 -0.1533  0.1177 -0.0196
 4693OCT     C2 9386  19.213  16.409  14.782  0.0211  0.1106  0.2301
 4694OCT     C1 9387   6.683  13.438   6.968  0.1580 -0.0469 -0.0316
 4694OCT     C2 9388   6.768  13.282   6.531 -0.2399  0.1591 -0.1997
 4695OCT     C1 9389  22.851   3.179   7.768  0.1168 -0.1597  0.1213
 4695OCT     C2 9390  23.047   2.770   7.664  0.2393  0.0682  0.0297
 4696OCT     C1 9391  11.891   7.521   0.780 -0.1204  0.2764 -0.1537
 4696OCT     C2 9392  11.783   7.233   0.416 -0.1484  0.4811  0.0908
 4697OCT     C1 9393  22.659  20.380   4.406 -0.1989 -0.2275  0.0849
 4697OCT     C2 9394  23.038  20.648   4.442  0.0612  0.0294  0.2476
 4698OCT     C1 9395  16.447  20.751   0.080 -0.2119  0.0116 -0.1610
 4698OCT     C2 9396  16.099  20.851   0.411  0.0255 -0.2708  0.0674
 4699OCT     C1 9397   1.342  20.794  23.653 -0.0501 -0.0262 -0.1700
 4699OCT     C2 9398   1.350  21.246  23.493 -0.1251  0.1052 -0.0308
 4700OCT     C1 9399   2.183   9.407  21.203 -0.1398 -0.0329  0.0591
 4700OCT     C2 9400   2.369   9.596  20.833 -0.1478  0.2173 -0.0371
 4701OCT     C1 9401   0.245  20.282   6.327 -0.0957 -0.0426  0.0204
 4701OCT     C2 9402   0.169  20.716   6.244  0.2574  0.2484  0.0422
 4702OCT     C1 9403  13.609   4.416   5.969  0.0931 -0.0345 -0.4768
 4702OCT     C2 9404  13.695   3.953   6.132 -0.3708  0.5400 -0.0122
 4703OCT     C1 9405   3.938  23.414  14.060  0.0886  0.0104 -0.0861
 4703OCT     C2 9406   4.233  23.160  13.830  0.3188 -0.1210  0.2796
 4704OCT     C1 9407   8.539  21.035   9.523  0.1847  0.5561  0.0006
 4704OCT     C2 9408   8.690  20.952   9.096 -0.3083 -0.1607 -0.1784
 4705OCT     C1 9409  13.802   3.082  14.442 -0.0685 -0.0732 -0.1708
 4705OCT     C2 9410  14.285   2.899  14.410 -0.2471  0.2323  0.0193
 4706OCT     C1 9411  16.696  23.535   7.608 -0.2377 -0.1022  0.2948
 4706OCT     C2 9412  16.367   0.018   7.755  0.0062 -0.2917 -0.0016
 4707OCT     C1 9413   9.501   0.074  16.238 -0.1436  0.1818 -0.0423
 4707OCT     C2 9414   9.090  23.669  16.220  0.0218 -0.0221  0.3365
 4708OCT     C1 9415  13.675   2.901  10.933 -0.1545 -0.1072 -0.1369
 4708OCT     C2 9416  13.451   2.499  10.774  0.1618 -0.1210  0.4871
 4709OCT     C1 9417  17.991  22.532   5.111 -0.2755  0.1457  0.2473
 4709OCT     C2 9418  17.924  22.965   5.313 -0.4436 -0.3061  0.3090
 4710OCT     C1 9419  19.903   4.676  13.509  0.0038  0.3430  0.3037
 4710OCT     C2 9420  20.149   4.666  13.159  0.1469 -0.2478  0.3431
 4711OCT     C1 9421  15.346  23.635   9.371 -0.0948  0.2741  0.0950
 4711OCT     C2 9422  15.212  23.586   9.812  0.3661 -0.2847  0.1766
 4712OCT     C1 9423  23.357   3.168   7.635  0.3449  0.1061  0.1031
 4712OCT     C2 9424  23.227   3.120   8.080 -0.0388  0.2413 -0.0035
 4713OCT     C1 9425  20.196  18.477  21.021 -0.2184 -0.3116 -0.1529
 4713OCT     C2 9426  19.891  18.131  21.111 -0.2110  0.0617 -0.2179
 4714OCT     C1 9427   1.268   7.225  12.953 -0.3882  0.0298  0.1206
 4714OCT     C2 9428   1.288   7.574  13.303 -0.0569  0.1005  0.0982
 4715OCT     C1 9429   3.862   3.862  16.983  0.1067  0.2726  0.3588
 4715OCT     C2 9430   3.667   3.456  16.786 -0.1772 -0.2101 -0.1560
 4716OCT     C1 9431  12.094   8.934   2.042  0.1462 -0.2135  0.1429
 4716OCT     C2 9432  11.849   8.726   1.617 -0.1323  0.0882 -0.0576
 4717OCT     C1 9433   7.853   8.982  21.817  0.3548  0.0342  0.0677
 4717OCT     C2 9434   7.502   8.723  21.963 -0.1691  0.1450 -0.0851
 4718OCT     C1 9435   1.986   4.633  18.741 -0.2749  0.3132  0.0117
 4718OCT     C2 9436   2.296   4.931  18.870  0.2168  0.1476 -0.3323
 4719OCT     C1 9437  11.094  20.870  12.717 -0.0377 -0.3496  0.0885
 4719OCT     C2 9438  10.678  20.654  12.500 -0.0973  0.2733 -0.2356
 4720OCT     C1 9439  14.491  20.298   0.392 -0.4157 -0.5065 -0.0536
 4720OCT     C2 9440  14.621  20.306  23.713  0.2629  0.2730  0.3184
 4721OCT     C1 9441  15.347  17.120   1.139  0.0156 -0.0600  0.0319
 4721OCT     C2 9442  15.553  17.498   1.335 -0.1025  0.1225 -0.0640
 4722OCT     C1 9443   3.885  22.968   3.452  0.0964 -0.1183 -0.3110
 4722OCT     C2 9444   4.103  23.106   3.058  0.1590 -0.2689 -0.1515
 4723OCT     C1 9445  22.969  17.359  19.300  0.1478  0.2803 -0.3272
 4723OCT     C2 9446  23.298  17.646  19.114 -0.0189 -0.0462  0.1866
 4724OCT     C1 9447   2.491  20.597   3.217  0.0798  0.3973 -0.2161
 4724OCT     C2 9448   2.042  20.494   3.069 -0.3030  0.4766  0.0020
 4725OCT     C1 9449   4.527  12.905   3.686  0.2272  0.0446  0.2083
 4725OCT     C2 9450   4.215  13.157   3.435 -0.0288  0.1477  0.1008
 4726OCT     C1 9451   5.749  21.200  16.244 -0.0121 -0.1651 -0.1854
 4726OCT     C2 9452   5.929  21.178  16.701 -0.0020 -0.1790 -0.0298
 4727OCT     C1 9453  14.600   6.063  18.297  0.1622  0.1991 -0.1718
 4727OCT     C2 9454  14.459   6.228  17.867 -0.1133  0.1103  0.0832
 4728OCT     C1 9455  17.681  16.239  16.430 -0.0757  0.0476 -0.2033
 4728OCT     C2 9456  17.953  15.963  16.586 -0.0172 -0.0203  0.2654
 4729OCT     C1 9457   4.252   9.496   3.738 -0.0989 -0.3515 -0.0983
 4729OCT     C2 9458   4.599   9.606   3.371  0.0975 -0.2265  0.1476
 4730OCT     C1 9459   0.422  16.510   1.371  0.2190  0.2905  0.2827
 4730OCT     C2 9460   0.219  16.127   1.315 -0.1669  0.0825  0.3332
 4731OCT     C1 9461  23.087  22.356  20.955 -0.1257 -0.4003 -0.0314
 4731OCT     C2 9462  23.196  22.438  20.518  0.0064  0.2572 -0.2516
 4732OCT     C1 9463   1.841  21.762  17.809  0.0838 -0.0191  0.1330
 4732OCT     C2 9464   1.362  21.742  17.675 -0.1528  0.2173 -0.2238
 4733OCT     C1 9465  17.429  11.403  10.220 -0.2530 -0.0153 -0.1696
 4733OCT     C2 9466  17.085  11.719  10.210 -0.0605  0.0681 -0.0546
 4734OCT     C1 9467  18.624   9.266  16.038 -0.0679 -0.2827 -0.0031
 4734OCT     C2 9468  18.921   8.910  15.927 -0.0864 -0.1222 -0.1131
 4735OCT     C1 9469  16.098  19.669   4.425 -0.0740  0.3871  0.3865
 4735OCT     C2 9470  15.813  19.658   4.835  0.1465  0.0989 -0.0176
 4736OCT     C1 9471   5.714   2.095   5.678  0.0078 -0.0207  0.2397
 4736OCT     C2 9472   6.119   2.021   5.434 -0.4591  0.0630  0.0817
 4737OCT     C1 9473   7.135  12.648  20.338 -0.3318  0.1612  0.0445
 4737OCT     C2 9474   6.737  12.555  20.685  0.1576 -0.3586  0.0810
 4738OCT     C1 9475  11.091  14.716  14.564 -0.1665 -0.2355 -0.1137
 4738OCT     C2 9476  11.490  14.613  14.293 -0.1646  0.0392  0.0818
 4739OCT     C1 9477   0.669  22.834   7.432  0.2526  0.0344 -0.3525
 4739OCT     C2 9478   0.543  22.766   6.978 -0.1819  0.0193 -0.1775
 4740OCT     C1 9479  10.901  13.592   9.820  0.0059  0.3676  0.1887
 4740OCT     C2 9480  10.866  13.871  10.165  0.1810 -0.0158 -0.0728
 4741OCT     C1 9481   2.309   3.968  16.908 -0.4602  0.0065  0.1234
 4741OCT     C2 9482   1.988   4.370  16.909 -0.2599 -0.1684  0.2061
 4742OCT     C1 9483  19.751  22.988  14.138 -0.0046  0.3031 -0.0727
 4742OCT     C2 9484  20.193  23.020  14.207  0.3880 -0.0382 -0.0874
 4743OCT     C1 9485   0.761   6.702  11.771 -0.1060 -0.4774 -0.0100
 4743OCT     C2 9486   0.962   6.398  12.050 -0.1586  0.0189 -0.1884
 4744OCT     C1 9487   7.162  13.565  22.165  0.4571 -0.5460 -0.2743
 4744OCT     C2 9488   7.136  13.081  22.103 -0.4459 -0.2910 -0.0538
 4745OCT     C1 9489   0.060  19.259   8.419 -0.0788  0.0729  0.0724
 4745OCT     C2 9490  23.555  19.487   8.810  0.3114  0.2437 -0.3193
 4746OCT     C1 9491  14.295   0.980  22.205  0.2688 -0.0777  0.0208
 4746OCT     C2 9492  14.684   1.212  22.344 -0.0350 -0.2527  0.2153
 4747OCT     C1 9493  22.640  22.986   7.773 -0.1828 -0.0723  0.0990
 4747OCT     C2 9494  22.609  22.649   8.086  0.0838  0.1998  0.2739
 4748OCT     C1 9495  14.006   1.363   6.000 -0.0849 -0.2416 -0.0203
 4748OCT     C2 9496  13.528   1.350   5.866 -0.0740  0.0905  0.0149
 4749OCT     C1 9497   4.999  14.518   2.863 -0.0410 -0.0759 -0.0540
 4749OCT     C2 9498   4.972  14.856   3.129  0.5655 -0.1958  0.0077
 4750OCT     C1 9499   9.367   6.561  12.455  0.2093  0.0007 -0.0753
 4750OCT     C2 9500   9.118   6.939  12.250  0.0205 -0.0837 -0.2009
 4751OCT     C1 9501   0.848  14.439  10.740 -0.3299  0.3342 -0.1249
 4751OCT     C2 9502   0.666  14.261  11.138  0.3260 -0.3927 -0.1666
 4752OCT     C1 9503  18.678  16.051  20.965 -0.0797  0.3140  0.2141
 4752OCT     C2 9504  18.742  16.499  21.059  0.1995 -0.0116 -0.1879
 4753OCT     C1 9505  15.141  11.374  12.963 -0.1451 -0.2785  0.0273
 4753OCT     C2 9506  14.997  11.129  13.315  0.0676  0.5080  0.4215
 4754OCT     C1 9507   3.965   8.144   5.572  0.1008  0.0026  0.0665
 4754OCT     C2 9508   3.877   8.584   5.472  0.0110 -0.0957  0.2968
 4755OCT     C1 9509  10.663  20.189  14.155 -0.2725  0.1083 -0.2773
 4755OCT     C2 9510  10.742  19.822  14.436 -0.0116 -0.0910 -0.0979
 4756OCT     C1 9511   2.575   8.661  20.189 -0.0070  0.0653  0.0529
 4756OCT     C2 9512   2.131   8.595  20.056 -0.6211  0.1242  0.0392
 4757OCT     C1 9513   3.882  13.121   5.730 -0.1793 -0.3038 -0.3252
 4757OCT     C2 9514   4.273  12.873   5.857  0.0937 -0.0283  0.0869
 4758OCT     C1 9515   6.128  10.077  22.448 -0.1574  0.4316  0.0918
 4758OCT     C2 9516   5.854   9.808  22.773  0.2880 -0.0279  0.3017
 4759OCT     C1 9517  15.864  18.335  15.580 -0.3754 -0.1175  0.1923
 4759OCT     C2 9518  16.143  18.645  15.884  0.2909 -0.0749  0.1115
 4760OCT     C1 9519  14.477  18.322   9.139  0.0063 -0.1563 -0.1778
 4760OCT     C2 9520  14.909  18.526   9.219 -0.1172  0.4091 -0.0387
 4761OCT     C1 9521  23.554  15.512  12.696 -0.1012  0.2031 -0.1120
 4761OCT     C2 9522  23.367  15.073  12.660  0.0447  0.3941 -0.1923
 4762OCT     C1 9523  20.466  10.442  13.036 -0.0532 -0.0315 -0.0316
 4762OCT     C2 9524  20.731  10.290  12.691 -0.1781 -0.0278  0.0639
 4763OCT     C1 9525   6.219  23.289   2.481 -0.1702 -0.1570  0.1626
 4763OCT     C2 9526   5.927  23.636   2.479 -0.1172 -0.0494 -0.0823
 4764OCT     C1 9527  11.594  22.192   5.216 -0.2850  0.1292  0.0981
 4764OCT     C2 9528  11.873  22.597   5.091  0.0781  0.1484  0.0907
 4765OCT     C1 9529  13.184   3.855   9.501  0.0941  0.1497 -0.1482
 4765OCT     C2 9530  12.762   3.663   9.604  0.0965 -0.4687  0.0435
 4766OCT     C1 9531   9.408   7.696  15.513  0.0607 -0.1394  0.1055
 4766OCT     C2 9532   9.766   7.800  15.783 -0.1197  0.1170  0.0499
 4767OCT     C1 9533  19.166  19.524   1.168  0.1494  0.0281 -0.1186
 4767OCT     C2 9534  18.998  19.190   1.463 -0.0837 -0.3217  0.2278
 4768OCT     C1 9535   8.469   5.176  13.686  0.1240 -0.1999 -0.0256
 4768OCT     C2 9536   8.275   4.773  13.873  0.1239  0.3693 -0.2027
 4769OCT     C1 9537  12.799  15.873  12.123  0.2296 -0.2832  0.1209
 4769OCT     C2 9538  12.961  15.450  12.274  0.0952 -0.0373 -0.0262
 4770OCT     C1 9539   1.316  11.223   0.233 -0.3043  0.2565  0.0214
 4770OCT     C2 9540   1.094  11.598   0.024  0.2439 -0.2822  0.2096
 4771OCT     C1 9541  23.482  20.537  12.860  0.1141 -0.1759  0.4278
 4771OCT     C2 9542   0.047  20.185  12.868  0.5083 -0.2422 -0.0194
 4772OCT     C1 9543   7.745  10.407  22.420 -0.0696 -0.1870 -0.2800
 4772OCT     C2 9544   8.077  10.398  22.113 -0.0853  0.1085  0.4403
 4773OCT     C1 9545  19.842   6.574   9.682  0.1105  0.3358  0.1327
 4773OCT     C2 9546  19.859   6.885   9.936 -0.3002  0.0496  0.1418
 4774OCT     C1 9547   8.122  14.712  21.539 -0.0171 -0.0449  0.1239
 4774OCT     C2 9548   8.326  15.073  21.817 -0.0393 -0.0597  0.1517
 4775OCT     C1 9549  23.728  23.674  10.588  0.0366  0.1974  0.1614
 4775OCT     C2 9550   0.355  23.568  10.296  0.0512  0.2401 -0.0349
 4776OCT     C1 9551  11.208  14.206   6.663  0.1769 -0.2451 -0.0325
 4776OCT     C2 9552  11.121  13.959   7.053 -0.0811 -0.2666  0.1993
 4777OCT     C1 9553  11.519  17.637   3.997 -0.1558  0.1186 -0.0534
 4777OCT     C2 9554  11.817  17.294   3.887 -0.2198 -0.1715 -0.0518
 4778OCT     C1 9555  20.158   5.719  18.867  0.0287 -0.0730  0.1492
 4778OCT     C2 9556  20.453   5.438  19.049 -0.0776  0.0505 -0.2191
 4779OCT     C1 9557  13.370   9.334  18.877  0.2887  0.1429  0.0414
 4779OCT     C2 9558  13.062   9.229  19.264 -0.2580  0.0235 -0.0036
 4780OCT     C1 9559  22.056   8.095   4.192  0.1005  0.3351  0.0211
 4780OCT     C2 9560  22.434   8.165   3.910  0.1184 -0.0155 -0.1387
 4781OCT     C1 9561  18.159  10.484   4.729 -0.1367 -0.1756 -0.0310
 4781OCT     C2 9562  18.301  10.103   4.943  0.1166  0.2816 -0.1472
 4782OCT     C1 9563  16.453   2.310  20.072  0.2127 -0.0708  0.1607
 4782OCT     C2 9564  16.907   2.166  20.050 -0.1600 -0.1464 -0.0629
 4783OCT     C1 9565  19.833  14.663   3.433  0.1040 -0.2995  0.0570
 4783OCT     C2 9566  19.867  14.335   3.773 -0.1849  0.1990  0.0184
 4784OCT     C1 9567   1.517   5.526  13.425  0.0758 -0.2171  0.1174
 4784OCT     C2 9568   1.750   5.700  13.008  0.0517  0.4380 -0.1590
 4785OCT     C1 9569  19.745  12.599  18.541 -0.0173 -0.0029  0.4253
 4785OCT     C2 9570  19.682  12.260  18.195  0.3116 -0.0281  0.4022
 4786OCT     C1 9571   2.624  22.551  20.608  0.0774 -0.0108 -0.3278
 4786OCT     C2 9572   2.430  22.241  20.850 -0.1604  0.0423 -0.0056
 4787OCT     C1 9573   4.972  11.873  20.965 -0.0568 -0.1686 -0.0024
 4787OCT     C2 9574   4.567  11.596  20.904 -0.4764 -0.1777  0.0809
 4788OCT     C1 9575   5.657  14.325   7.556 -0.3434  0.1117  0.0118
 4788OCT     C2 9576   5.470  14.680   7.482  0.0695  0.1616 -0.1821
 4789OCT     C1 9577  12.844  11.168   0.019  0.1853  0.1924  0.1685
 4789OCT     C2 9578  12.980  11.488  23.377 -0.0052  0.1021  0.3577
 4790OCT     C1 9579  18.388  21.582   1.487  0.3161  0.1082  0.2038
 4790OCT     C2 9580  17.902  21.516   1.582 -0.4403 -0.2334 -0.0462
 4791OCT     C1 9581  17.671  22.074  13.276 -0.3872 -0.1046  0.2317
 4791OCT     C2 9582  17.866  21.794  12.948 -0.0099  0.0485  0.0443
 4792OCT     C1 9583  16.251   5.885  11.322  0.1778 -0.0498  0.0815
 4792OCT     C2 9584  16.174   6.288  11.141  0.0761 -0.1550  0.0622
 4793OCT     C1 9585  11.492   5.718  12.395  0.0213 -0.1251  0.1280
 4793OCT     C2 9586  11.129   5.455  12.237 -0.1647  0.1211  0.1892
 4794OCT     C1 9587   0.198   5.404  20.462  0.0223 -0.4092  0.0905
 4794OCT     C2 9588  23.581   5.184  20.669 -0.0008  0.2711  0.1683
 4795OCT     C1 9589  10.014   8.275   7.597 -0.1666 -0.0368 -0.2112
 4795OCT     C2 9590   9.878   8.173   7.102 -0.2503 -0.0427 -0.0637
 4796OCT     C1 9591   2.588   7.744  19.960  0.1473 -0.1560  0.1273
 4796OCT     C2 9592   2.174   7.744  19.808  0.0058  0.0368  0.2144
 4797OCT     C1 9593  11.617   0.363   2.220 -0.2379  0.1090 -0.1787
 4797OCT     C2 9594  11.320   0.371   2.588  0.1178 -0.0787  0.0499
 4798OCT     C1 9595   1.278   7.996  19.527  0.0764  0.0126 -0.0374
 4798OCT     C2 9596   1.699   7.890  19.704  0.1078  0.4551 -0.1161
 4799OCT     C1 9597  17.219  10.474  13.138 -0.1448  0.5319  0.2011
 4799OCT     C2 9598  17.010  10.078  13.095  0.1213 -0.0960  0.0308
 4800OCT     C1 9599  13.517   1.744  13.210  0.1447  0.0597 -0.0348
 4800OCT     C2 9600  13.190   1.842  12.879 -0.0433 -0.2578 -0.1729
 4801OCT     C1 9601  15.286   8.108   8.526  0.0836  0.0290  0.1268
 4801OCT     C2 9602  15.769   8.016   8.440  0.2890  0.2793  0.1457
 4802OCT     C1 9603   3.418  11.136   3.017  0.1849 -0.1461 -0.0450
 4802OCT     C2 9604   3.515  11.332   2.645  0.1052 -0.1084  0.3138
 4803OCT     C1 9605  10.740   6.354  22.155 -0.3860 -0.0031 -0.1904
 4803OCT     C2 9606  10.775   6.798  22.122 -0.2598 -0.0220  0.3163
 4804OCT     C1 9607   2.450  23.127  16.184  0.0585  0.1957  0.0128
 4804OCT     C2 9608   2.848  23.373  16.100 -0.5008 -0.2757  0.1413
 4805OCT     C1 9609   5.086  15.588   7.985 -0.2737 -0.1489  0.1570
 4805OCT     C2 9610   5.145  16.030   7.874 -0.2458 -0.1395  0.1059
 4806OCT     C1 9611  14.731   3.544   6.725 -0.4028  0.4107 -0.2086
 4806OCT     C2 9612  15.022   3.514   7.082  0.1899  0.1751 -0.0440
 4807OCT     C1 9613   3.611  16.524   0.052 -0.6421 -0.5642  0.0516
 4807OCT     C2 9614   4.031  16.549   0.178 -0.0858 -0.3683 -0.2675
 4808OCT     C1 9615  18.881   3.052  11.429 -0.2891  0.0872 -0.0264
 4808OCT     C2 9616  18.790   3.080  10.927  0.0616 -0.0403 -0.2229
 4809OCT     C1 9617  13.445  18.592   3.956 -0.2497 -0.1225 -0.0213
 4809OCT     C2 9618  13.575  18.819   4.341  0.0413  0.1211  0.0118
 4810OCT     C1 9619  12.599   4.032   0.712  0.0585  0.3772 -0.3005
 4810OCT     C2 9620  12.949   4.278   0.472  0.0393  0.2520  0.2775
 4811OCT     C1 9621   0.878   1.728  14.892  0.0131  0.2369 -0.0039
 4811OCT     C2 9622   1.099   1.620  14.524 -0.0679 -0.0026  0.1916
 4812OCT     C1 9623  11.124   5.562   3.084  0.1060  0.0904  0.3191
 4812OCT     C2 9624  11.319   5.532   3.487  0.0085 -0.4741  0.1048
 4813OCT     C1 9625  20.400  12.540   0.290 -0.2144 -0.0231 -0.0040
 4813OCT     C2 9626  20.736  12.429   0.592  0.1439 -0.1036 -0.2787
 4814OCT     C1 9627  17.203  12.838  13.255 -0.3368 -0.0769 -0.0019
 4814OCT     C2 9628  17.369  13.008  12.850  0.1310 -0.4017  0.0509
 4815OCT     C1 9629  10.968  18.404   9.616 -0.3265 -0.1836 -0.0546
 4815OCT     C2 9630  11.051  18.695  10.033  0.2132 -0.0925  0.1193
 4816OCT     C1 9631   8.963  20.196   9.791  0.0507 -0.1859  0.0472
 4816OCT     C2 9632   8.865  20.604   9.759  0.1125  0.3206  0.3193
 4817OCT     C1 9633   3.882  17.850   1.062  0.1444  0.0859  0.1053
 4817OCT     C2 9634   3.412  17.910   0.955  0.0600  0.2300  0.1784
 4818OCT     C1 9635  19.240  10.409   2.753 -0.2766  0.0025  0.0192
 4818OCT     C2 9636  18.790  10.342   2.716  0.2701  0.1201 -0.2280
 4819OCT     C1 9637  15.789  19.942   3.019  0.1170 -0.3016  0.1214
 4819OCT     C2 9638  15.889  19.563   2.741 -0.2147 -0.0745  0.2414
 4820OCT     C1 9639   9.032  21.014  20.039  0.2472  0.2867 -0.0508
 4820OCT     C2 9640   9.012  21.082  19.589 -0.0217 -0.5408 -0.0120
 4821OCT     C1 9641  21.736   1.592  16.639 -0.3016  0.1802  0.1489
 4821OCT     C2 9642  21.868   1.503  17.107 -0.1756 -0.2080  0.1460
 4822OCT     C1 9643  13.368   1.521   6.402  0.1588 -0.2610  0.2389
 4822OCT     C2 9644  13.701   1.197   6.339 -0.1165  0.0485  0.2046
 4823OCT     C1 9645  23.056   9.331   7.160  0.1774  0.0415  0.0401
 4823OCT     C2 9646  22.749   8.947   7.236 -0.1734 -0.0815  0.1710
 4824OCT     C1 9647  20.047  15.155  22.548  0.0361 -0.1201  0.1580
 4824OCT     C2 9648  19.705  15.226  22.236 -0.0885  0.2496  0.1603
 4825OCT     C1 9649   5.883  23.369  13.576  0.2884  0.0149 -0.0550
 4825OCT     C2 9650   5.861  23.601  13.178  0.2055  0.0589  0.1977
 4826OCT     C1 9651  11.287  11.786  13.260  0.1101  0.0058  0.4956
 4826OCT     C2 9652  11.591  11.576  13.554 -0.0796 -0.2735 -0.2052
 4827OCT     C1 9653   7.163  19.114   2.912  0.2358  0.2071 -0.1301
 4827OCT     C2 9654   7.399  18.823   3.210  0.2256  0.1141  0.1853
 4828OCT     C1 9655   8.078   1.686  11.078  0.2427 -0.0288 -0.1594
 4828OCT     C2 9656   8.482   1.629  11.281  0.3192 -0.2466  0.2375
 4829OCT     C1 9657  13.084  10.945  10.532 -0.0461 -0.2473  0.2580
 4829OCT     C2 9658  13.525  10.711  10.434 -0.1427  0.4345  0.1442
 4830OCT     C1 9659  10.838   6.189  20.179  0.0287 -0.3533 -0.3126
 4830OCT     C2 9660  10.998   5.749  20.011  0.1264 -0.2647  0.2582
 4831OCT     C1 9661   1.542   9.101  13.775 -0.3060  0.1592 -0.1586
 4831OCT     C2 9662   1.759   9.065  14.154 -0.2369  0.0871  0.0369
 4832OCT     C1 9663  15.219  20.164  15.294 -0.1358 -0.1110  0.0651
 4832OCT     C2 9664  14.981  19.988  15.649  0.2003  0.0139 -0.5888
 4833OCT     C1 9665   3.356  15.002   5.668  0.4515  0.1011 -0.1864
 4833OCT     C2 9666   3.328  14.799   5.243 -0.2283 -0.1396  0.3007
 4834OCT     C1 9667   8.802  12.789   4.868 -0.1181  0.3190 -0.3839
 4834OCT     C2 9668   9.197  12.497   4.932 -0.1652 -0.3013 -0.1625
 4835OCT     C1 9669  20.139  15.206   1.642 -0.1907  0.2115  0.3212
 4835OCT     C2 9670  19.795  15.550   1.509 -0.0452 -0.0492 -0.1236
 4836OCT     C1 9671   3.786  18.139   8.484  0.0896 -0.1852 -0.1308
 4836OCT     C2 9672   3.541  17.848   8.285 -0.0846 -0.2143 -0.1199
 4837OCT     C1 9673   5.257   2.145  19.373 -0.0019  0.4511  0.0758
 4837OCT     C2 9674   5.092   2.550  19.508 -0.2222  0.2596 -0.1459
 4838OCT     C1 9675   2.033   2.374   2.912  0.1464  0.1057  0.0181
 4838OCT     C2 9676   2.105   1.960   3.031 -0.2498  0.1425 -0.3325
 4839OCT     C1 9677  22.509  18.035  13.004  0.3458 -0.1648 -0.0630
 4839OCT     C2 9678  22.123  17.962  12.644 -0.2654  0.3251  0.1011
 4840OCT     C1 9679   3.096  18.691   7.198 -0.2048  0.1519 -0.2501
 4840OCT     C2 9680   3.294  18.463   7.514  0.0724  0.0638 -0.1666
 4841OCT     C1 9681   6.751   2.497  19.655  0.1554 -0.0598 -0.0571
 4841OCT     C2 9682   7.205   2.492  19.792  0.5641 -0.4189 -0.0229
 4842OCT     C1 9683   8.000   0.716  20.848 -0.0809 -0.1598 -0.1292
 4842OCT     C2 9684   7.668   0.886  21.068 -0.2949  0.4137  0.0214
 4843OCT     C1 9685  14.369   8.111   4.981 -0.0409  0.1559  0.0678
 4843OCT     C2 9686  14.680   7.931   5.274 -0.2542 -0.1463  0.1658
 4844OCT     C1 9687   8.487  13.754   1.046  0.2148  0.1867  0.1194
 4844OCT     C2 9688   8.435  14.151   1.375  0.4192 -0.0240 -0.1298
 4845OCT     C1 9689  16.661  23.449   5.943 -0.1216 -0.0990  0.0325
 4845OCT     C2 9690  16.203  23.273   5.986  0.0658 -0.0065  0.0881
 4846OCT     C1 9691  18.588  23.057   3.824 -0.1434  0.0834  0.1292
 4846OCT     C2 9692  18.476  22.780   4.189  0.0316  0.1098 -0.1423
 4847OCT     C1 9693  10.466   4.816   4.013  0.1016  0.0702 -0.1146
 4847OCT     C2 9694  10.467   4.724   3.553  0.1407 -0.2773  0.0319
 4848OCT     C1 9695   7.883   2.076  20.285  0.3077 -0.1253 -0.1064
 4848OCT     C2 9696   8.077   1.754  20.579  0.1792 -0.3493  0.0793
 4849OCT     C1 9697  13.988   1.034   0.963 -0.0512 -0.2294  0.1498
 4849OCT     C2 9698  13.610   0.844   0.776  0.1083  0.2116 -0.3504
 4850OCT     C1 9699   7.966  20.003  16.996  0.0839  0.0863 -0.2268
 4850OCT     C2 9700   7.883  19.701  16.600 -0.1047  0.1256 -0.1442
 4851OCT     C1 9701  12.868  17.668   7.066  0.6468 -0.2567 -0.2601
 4851OCT     C2 9702  12.750  17.854   6.714  0.0381 -0.0361 -0.1260
 4852OCT     C1 9703   5.910   0.111  10.039  0.4065  0.2504  0.2238
 4852OCT     C2 9704   5.550  23.672  10.331 -0.1052  0.0832 -0.0389
 4853OCT     C1 9705   5.940   9.131   7.757  0.1689 -0.3661 -0.0698
 4853OCT     C2 9706   5.635   9.320   8.110 -0.3364  0.1908  0.1762
 4854OCT     C1 9707  13.061  18.821  10.503 -0.3359 -0.1739 -0.1197
 4854OCT     C2 9708  13.488  19.029  10.395  0.0781  0.0261  0.1061
 4855OCT     C1 9709   2.717   7.265  19.740 -0.0714 -0.0599  0.1233
 4855OCT     C2 9710   2.762   6.849  19.824 -0.1957  0.1575  0.2546
 4856OCT     C1 9711  15.572  14.853   6.605  0.0695  0.1704  0.3200
 4856OCT     C2 9712  15.425  15.100   7.017 -0.1537  0.1751 -0.3460
 4857OCT     C1 9713  14.872  19.928  22.782 -0.0877 -0.4723  0.1417
 4857OCT     C2 9714  15.228  19.767  22.511  0.0953  0.1118 -0.1043
 4858OCT     C1 9715  12.782  20.688   3.790  0.0438  0.0169  0.0728
 4858OCT     C2 9716  12.738  21.151   3.651 -0.1300 -0.1341  0.1301
 4859OCT     C1 9717  15.537  15.223   8.801 -0.0892 -0.0277  0.4185
 4859OCT     C2 9718  15.627  14.803   8.681  0.1640 -0.2382  0.2133
 4860OCT     C1 9719  10.176   7.063  21.397 -0.2469  0.3699 -0.2487
 4860OCT     C2 9720  10.600   6.947  21.561 -0.1495  0.2842  0.1026
 4861OCT     C1 9721  13.410  21.895  16.222  0.3236 -0.1349  0.1334
 4861OCT     C2 9722  13.350  22.395  16.310  0.1606 -0.3594  0.0518
 4862OCT     C1 9723  18.538   5.528  10.498 -0.1377 -0.0886  0.1535
 4862OCT     C2 9724  18.897   5.220  10.612  0.1192  0.0258  0.0910
 4863OCT     C1 9725  15.716   2.645   0.005  0.1904 -0.1236 -0.4395
 4863OCT     C2 9726  15.329   2.658  23.511 -0.2720 -0.0916 -0.2098
 4864OCT     C1 9727   3.766   4.884  19.173  0.0871 -0.0632  0.4058
 4864OCT     C2 9728   3.882   5.197  19.480  0.0574 -0.0904  0.0070
 4865OCT     C1 9729  11.538   2.337  12.427  0.0820  0.1120  0.1719
 4865OCT     C2 9730  11.194   2.050  12.254  0.2053  0.3752  0.0139
 4866OCT     C1 9731  17.140   0.573   4.598  0.0386  0.0798  0.1155
 4866OCT     C2 9732  17.014   0.728   4.145  0.3700  0.2362  0.3137
 4867OCT     C1 9733  19.934   7.978  19.416  0.0479  0.2705  0.0504
 4867OCT     C2 9734  20.316   8.155  19.359  0.0604  0.1766 -0.1306
 4868OCT     C1 9735   1.568  23.637   7.238 -0.0950 -0.2329 -0.1034
 4868OCT     C2 9736   1.676  23.267   7.469  0.5380  0.2531 -0.0742
 4869OCT     C1 9737   7.055  12.054  18.676 -0.4075  0.0330 -0.1629
 4869OCT     C2 9738   6.932  11.619  18.565 -0.3095  0.1063  0.1142
 4870OCT     C1 9739   3.210  21.625  20.781 -0.0835 -0.1210 -0.3928
 4870OCT     C2 9740   2.789  21.875  20.769  0.2289  0.1623  0.1123
 4871OCT     C1 9741  10.037  12.121   4.433 -0.2129  0.0105 -0.0185
 4871OCT     C2 9742  10.093  12.521   4.169  0.1705  0.0361  0.2453
 4872OCT     C1 9743  23.071   1.352   2.186 -0.1015  0.1360 -0.1544
 4872OCT     C2 9744  23.371   0.989   2.150 -0.1628  0.2178 -0.1492
 4873OCT     C1 9745  15.140   4.447  19.162  0.1219 -0.1948  0.2385
 4873OCT     C2 9746  15.227   4.558  18.722 -0.0997 -0.2596 -0.0723
 4874OCT     C1 9747  19.813   9.247   7.498 -0.1633 -0.0923 -0.3732
 4874OCT     C2 9748  19.995   9.595   7.208  0.2318  0.1672  0.0353
 4875OCT     C1 9749  12.461  16.838  11.253  0.2570  0.0739 -0.1098
 4875OCT     C2 9750  12.532  16.566  10.934  0.0060  0.0683  0.0829
 4876OCT     C1 9751  22.502   1.755  15.639  0.2623  0.0426 -0.2018
 4876OCT     C2 9752  22.377   1.510  15.261  0.3351 -0.0872  0.1058
 4877OCT     C1 9753   9.924   8.976  10.519 -0.3898 -0.2847  0.4564
 4877OCT     C2 9754   9.633   8.960  10.146 -0.2430 -0.0922 -0.0608
 4878OCT     C1 9755  13.223  17.315   8.471 -0.1633  0.0798  0.0827
 4878OCT     C2 9756  13.452  17.247   8.933  0.0873 -0.0266 -0.1145
 4879OCT     C1 9757   3.529   2.380   3.231 -0.2395 -0.1725 -0.1034
 4879OCT     C2 9758   3.212   2.129   3.433 -0.1125  0.1372 -0.0631
 4880OCT     C1 9759  14.941  17.972   3.255  0.2608 -0.2923  0.0775
 4880OCT     C2 9760  15.115  17.757   3.654  0.0941 -0.0349  0.5326
 4881OCT     C1 9761  17.674   5.355   3.549  0.3523 -0.1018 -0.0732
 4881OCT     C2 9762  18.113   5.458   3.511  0.0859  0.0624 -0.4116
 4882OCT     C1 9763  12.122   1.029   5.381 -0.2588 -0.2906 -0.2282
 4882OCT     C2 9764  11.796   0.784   5.184 -0.3802 -0.0978  0.1936
 4883OCT     C1 9765   2.147  10.580  10.034 -0.0667 -0.2127 -0.0794
 4883OCT     C2 9766   2.206  10.112   9.854  0.0753  0.2561 -0.5675
 4884OCT     C1 9767  11.545  19.981  11.894 -0.0215  0.0820  0.1734
 4884OCT     C2 9768  11.239  20.227  11.682 -0.1038 -0.2564  0.4113
 4885OCT     C1 9769  18.845  19.435  17.099  0.0543 -0.0468  0.0889
 4885OCT     C2 9770  19.278  19.355  17.330 -0.0292  0.0937 -0.0391
 4886OCT     C1 9771  15.701   3.963  22.740  0.1520  0.0440  0.0889
 4886OCT     C2 9772  15.331   4.151  22.560 -0.2501 -0.1033 -0.1359
 4887OCT     C1 9773   2.821   5.754  10.089 -0.1698  0.0674  0.2725
 4887OCT     C2 9774   2.715   6.250  10.102  0.1462 -0.1089  0.0339
 4888OCT     C1 9775  19.858   8.126  16.229 -0.3577  0.1451  0.0203
 4888OCT     C2 9776  20.185   7.976  15.966 -0.1003  0.3143 -0.1171
 4889OCT     C1 9777   3.448   7.236  23.127 -0.2480 -0.2144  0.0496
 4889OCT     C2 9778   3.097   7.404  22.882 -0.5043 -0.1604 -0.0751
 4890OCT     C1 9779  14.035   9.223  22.348 -0.0445 -0.0925 -0.1908
 4890OCT     C2 9780  14.473   9.126  22.401 -0.2050 -0.1531 -0.0064
 4891OCT     C1 9781  15.352   3.828  12.529  0.3347  0.0986 -0.2526
 4891OCT     C2 9782  15.432   4.241  12.369  0.1129  0.2505  0.5679
 4892OCT     C1 9783  10.575  20.463   6.136 -0.4580  0.0365  0.0383
 4892OCT     C2 9784  10.793  20.162   6.392  0.0219 -0.0512  0.2668
 4893OCT     C1 9785   2.060  22.512   1.254  0.2822 -0.5953  0.0662
 4893OCT     C2 9786   1.612  22.467   1.343 -0.1073  0.4025  0.0578
 4894OCT     C1 9787  23.230   5.710  13.127  0.1773  0.1455 -0.1043
 4894OCT     C2 9788  23.591   5.484  13.330 -0.2371  0.1105  0.0312
 4895OCT     C1 9789  16.945  10.411   2.471  0.0281 -0.0470 -0.0584
 4895OCT     C2 9790  16.804  10.853   2.462 -0.1754  0.1295  0.1018
 4896OCT     C1 9791  10.832  11.406  11.894 -0.0908 -0.0279  0.4512
 4896OCT     C2 9792  10.631  11.001  11.705 -0.3254  0.1338  0.3527
 4897OCT     C1 9793  15.788  21.903  10.364 -0.2914 -0.3371  0.2046
 4897OCT     C2 9794  15.509  22.282  10.552 -0.0259 -0.2407  0.2299
 4898OCT     C1 9795  21.793  17.024   1.168  0.0145 -0.3069 -0.0447
 4898OCT     C2 9796  22.245  16.918   1.250 -0.0458 -0.1379 -0.3154
 4899OCT     C1 9797   9.576   7.764   8.312  0.2974  0.0797  0.0243
 4899OCT     C2 9798  10.000   7.771   8.380 -0.1127 -0.1717 -0.1150
 4900OCT     C1 9799  21.357  10.432  18.662 -0.2168  0.1223 -0.0254
 4900OCT     C2 9800  20.994  10.291  18.953  0.4906  0.2828  0.1743
 4901OCT     C1 9801  13.816  23.394   0.642 -0.1814 -0.0927  0.1608
 4901OCT     C2 9802  13.364  23.388   0.784 -0.0433  0.1473 -0.1678
 4902OCT     C1 9803  15.544   2.066   4.086  0.0282  0.2991 -0.2318
 4902OCT     C2 9804  15.207   2.189   3.812  0.1481  0.1534  0.4057
 4903OCT     C1 9805  20.251  11.041  21.530 -0.1188 -0.2655  0.0830
 4903OCT     C2 9806  20.440  11.268  21.911  0.0948  0.2225 -0.0174
 4904OCT     C1 9807  23.218  12.661   9.345 -0.0808 -0.0993 -0.0583
 4904OCT     C2 9808  23.483  12.278   9.190 -0.2237 -0.1072 -0.0285
 4905OCT     C1 9809  23.104  15.887  11.884 -0.1453  0.3121 -0.2622
 4905OCT     C2 9810  22.841  16.253  11.888 -0.0945  0.0897  0.3060
 4906OCT     C1 9811  22.340  19.093   2.573 -0.1464  0.2712 -0.2824
 4906OCT     C2 9812  22.751  19.341   2.565 -0.0390 -0.2384  0.1165
 4907OCT     C1 9813  15.486   8.139   4.980 -0.1188 -0.2143 -0.1727
 4907OCT     C2 9814  15.046   8.118   4.892  0.2291  0.0640  0.0502
 4908OCT     C1 9815  15.017  17.842   2.706 -0.1914  0.0386 -0.0598
 4908OCT     C2 9816  15.126  17.403   2.598 -0.0451  0.0124  0.1087
 4909OCT     C1 9817   4.349  14.753  14.286  0.2914 -0.1444  0.0283
 4909OCT     C2 9818   4.234  14.997  13.888 -0.1131  0.2156 -0.2887
 4910OCT     C1 9819   7.137   6.625  16.325 -0.0221  0.0543 -0.1678
 4910OCT     C2 9820   6.733   6.865  16.369 -0.2584 -0.1825  0.2071
 4911OCT     C1 9821   9.003  15.564  23.270  0.2607  0.2811  0.2502
 4911OCT     C2 9822   8.880  15.751  22.895 -0.4551 -0.2396 -0.1725
 4912OCT     C1 9823   2.063  16.975   3.679 -0.1073  0.0851 -0.3844
 4912OCT     C2 9824   1.750  16.922   4.016  0.0467  0.0142 -0.0658
 4913OCT     C1 9825   6.609  10.328  10.652  0.4464  0.3413 -0.0268
 4913OCT     C2 9826   6.692   9.925  10.384 -0.2205 -0.2218 -0.1006
 4914OCT     C1 9827   0.991  12.992   9.645 -0.1593  0.0572  0.2420
 4914OCT     C2 9828   0.993  12.860   9.163 -0.1027 -0.0388 -0.0646
 4915OCT     C1 9829   7.655   6.296   3.450 -0.2348  0.0954  0.1490
 4915OCT     C2 9830   8.098   6.194   3.480 -0.2782 -0.1477  0.1459
 4916OCT     C1 9831   1.320  22.861  22.468  0.1893 -0.1565  0.1216
 4916OCT     C2 9832   1.646  22.856  22.102  0.0476 -0.0212 -0.3194
 4917OCT     C1 9833  18.825  23.729   5.411 -0.0263  0.1805 -0.2680
 4917OCT     C2 9834  18.840  23.404   5.688 -0.0530  0.1318  0.0914
 4918OCT     C1 9835   6.692   8.917  11.496 -0.4126 -0.4079  0.0648
 4918OCT     C2 9836   6.625   9.382  11.366 -0.1487 -0.1899  0.1615
 4919OCT     C1 9837  19.586   8.126  14.296 -0.2190 -0.0017 -0.1115
 4919OCT     C2 9838  19.663   7.810  14.017 -0.1172 -0.2176 -0.0632
 4920OCT     C1 9839   9.485  14.100  11.251 -0.0635  0.1762  0.0482
 4920OCT     C2 9840   9.698  13.747  11.075 -0.0606  0.3454  0.0534
 4921OCT     C1 9841  15.030  11.090  10.793  0.0327 -0.0263  0.1329
 4921OCT     C2 9842  14.851  11.131  10.371 -0.1552 -0.1531 -0.0337
 4922OCT     C1 9843   5.176   2.468   1.395 -0.3643 -0.1162  0.0106
 4922OCT     C2 9844   5.565   2.290   1.111 -0.0763 -0.1382 -0.2205
 4923OCT     C1 9845   5.374  21.304   4.476  0.0576  0.2102  0.1851
 4923OCT     C2 9846   5.081  21.678   4.596  0.1219  0.1146 -0.0152
 4924OCT     C1 9847   5.653   9.465   4.787 -0.1330  0.1257  0.0081
 4924OCT     C2 9848   6.088   9.633   4.892  0.0024  0.0959 -0.2804
 4925OCT     C1 9849   2.849  15.947  10.297  0.3333  0.2769 -0.1536
 4925OCT     C2 9850   3.063  16.234  10.513 -0.0633  0.0010 -0.1301
 4926OCT     C1 9851  10.771   2.064  17.227 -0.1497  0.2098  0.1263
 4926OCT     C2 9852  10.632   1.850  17.560  0.0803 -0.0307 -0.0682
 4927OCT     C1 9853   0.354  11.768  16.053 -0.2388 -0.0195  0.1824
 4927OCT     C2 9854   0.543  11.443  16.280  0.4298  0.2040 -0.1353
 4928OCT     C1 9855   6.152  12.165   1.849  0.0420  0.1872 -0.0620
 4928OCT     C2 9856   5.764  12.374   1.678  0.1286 -0.0998  0.0675
 4929OCT     C1 9857  14.081  15.979  18.718 -0.1699 -0.0475 -0.1248
 4929OCT     C2 9858  14.407  16.252  18.941 -0.0053 -0.1387  0.3277
 4930OCT     C1 9859  14.533   1.651   2.215  0.1903 -0.1061  0.0570
 4930OCT     C2 9860  14.908   1.926   2.205 -0.1726  0.1656 -0.0740
 4931OCT     C1 9861   1.334  23.657  23.488 -0.0982 -0.1742  0.2347
 4931OCT     C2 9862   1.612  23.674  23.088  0.1934 -0.0973 -0.1569
 4932OCT     C1 9863  20.880   1.608  21.068  0.1285  0.3994 -0.1638
 4932OCT     C2 9864  21.183   1.953  21.082  0.4025 -0.2881  0.3448
 4933OCT     C1 9865   4.000   9.565  18.745 -0.1313 -0.1507 -0.0321
 4933OCT     C2 9866   3.887   9.715  19.152  0.2160 -0.1200  0.1028
 4934OCT     C1 9867  18.394   6.246   1.000 -0.0379 -0.1354 -0.2607
 4934OCT     C2 9868  17.961   6.249   1.199 -0.1089 -0.0973 -0.3520
 4935OCT     C1 9869  16.644   4.995  12.501  0.2344 -0.1349  0.2005
 4935OCT     C2 9870  16.412   5.406  12.387 -0.0547  0.0806  0.2890
 4936OCT     C1 9871  21.217  16.802  10.301  0.3506  0.3875  0.1944
 4936OCT     C2 9872  21.352  16.853   9.843 -0.1837 -0.1015 -0.2499
 4937OCT     C1 9873  13.103   0.051  13.415  0.0714 -0.2547  0.1188
 4937OCT     C2 9874  13.162   0.488  13.472  0.1355  0.1339 -0.0276
 4938OCT     C1 9875  22.033  18.592   7.557  0.4554 -0.1857  0.1433
 4938OCT     C2 9876  21.736  18.487   7.195  0.0397  0.2983  0.0453
 4939OCT     C1 9877   0.904  16.581   1.240  0.2024  0.0377  0.0430
 4939OCT     C2 9878   1.235  16.880   1.364 -0.3577 -0.3107 -0.1252
 4940OCT     C1 9879  22.508  11.720   1.605 -0.2907  0.2031  0.1813
 4940OCT     C2 9880  22.673  12.151   1.551 -0.1110 -0.2890 -0.0028
 4941OCT     C1 9881   9.333   9.856   5.704  0.1874 -0.2952 -0.0770
 4941OCT     C2 9882   9.464  10.070   5.288 -0.4560 -0.1473 -0.1842
 4942OCT     C1 9883  18.230  18.305  20.502 -0.1246 -0.0652  0.0449
 4942OCT     C2 9884  18.147  18.179  20.078  0.3579  0.0039 -0.1011
 4943OCT     C1 9885  13.938  17.068   4.624  0.0412  0.2933 -0.2128
 4943OCT     C2 9886  14.274  16.801   4.551  0.0372 -0.2241  0.0545
 4944OCT     C1 9887   5.556  23.294   0.877  0.4645 -0.3496 -0.0833
 4944OCT     C2 9888   5.963  23.158   0.923 -0.0507  0.1129 -0.0624
 4945OCT     C1 9889   4.623  17.694  19.991 -0.0811 -0.0006  0.3319
 4945OCT     C2 9890   4.865  17.384  19.681 -0.0134 -0.0696  0.4075
 4946OCT     C1 9891   3.748  12.741   2.668 -0.4123  0.4221  0.0514
 4946OCT     C2 9892   3.502  12.619   2.324 -0.1642  0.2756  0.4628
 4947OCT     C1 9893  23.514   2.429  14.427  0.1369  0.1375  0.0156
 4947OCT     C2 9894  23.579   2.492  14.874  0.2511 -0.0483  0.1377
 4948OCT     C1 9895  13.041  14.734   4.468 -0.1904  0.3325  0.0821
 4948OCT     C2 9896  12.815  14.542   4.169  0.1841  0.1628 -0.1082
 4949OCT     C1 9897   2.195   6.160  20.183  0.1036 -0.2751  0.6172
 4949OCT     C2 9898   2.296   6.295  19.752 -0.1898 -0.0506 -0.0441
 4950OCT     C1 9899  21.187  10.255  20.220  0.1424 -0.3637 -0.1701
 4950OCT     C2 9900  20.947   9.842  20.311 -0.2204 -0.4048  0.0208
 4951OCT     C1 9901  19.067  10.453  14.889  0.1784 -0.0691 -0.0016
 4951OCT     C2 9902  19.369  10.639  14.539  0.1772 -0.0167 -0.0909
 4952OCT     C1 9903  22.698   2.683  19.954  0.0654 -0.2617 -0.2557
 4952OCT     C2 9904  22.506   3.096  19.872  0.0165  0.1408 -0.1589
 4953OCT     C1 9905  13.144  21.728   8.559  0.5549 -0.4320 -0.1069
 4953OCT     C2 9906  13.443  21.395   8.462  0.0658 -0.1180  0.2318
 4954OCT     C1 9907  17.684  13.844  17.989 -0.1424  0.0077 -0.0303
 4954OCT     C2 9908  17.218  13.731  18.054 -0.1522 -0.2144  0.1306
 4955OCT     C1 9909  13.336  22.882  18.076 -0.1151  0.1119 -0.4484
 4955OCT     C2 9910  13.188  22.654  17.666 -0.1896 -0.3228 -0.3384
 4956OCT     C1 9911   8.215   9.186  19.252 -0.0478 -0.3194  0.3171
 4956OCT     C2 9912   8.150   9.203  19.737  0.3470  0.1543  0.1970
 4957OCT     C1 9913  13.640   0.764   5.241  0.1933 -0.0586 -0.0011
 4957OCT     C2 9914  13.469   0.901   5.696 -0.3573 -0.2135 -0.2140
 4958OCT     C1 9915   9.866  23.174   6.595  0.1814  0.1995 -0.3197
 4958OCT     C2 9916   9.956  22.925   6.952 -0.0566 -0.1765  0.0264
 4959OCT     C1 9917  11.233  22.220   1.685 -0.3034  0.1013  0.1397
 4959OCT     C2 9918  11.183  21.978   1.270  0.3113 -0.1550 -0.1390
 4960OCT     C1 9919   0.819  22.729  10.261  0.0772  0.1210 -0.3106
 4960OCT     C2 9920   0.414  22.761   9.991  0.1027 -0.1599 -0.1046
 4961OCT     C1 9921  21.344  11.800  19.025 -0.1654  0.1232 -0.4055
 4961OCT     C2 9922  21.385  11.448  19.349  0.0843  0.0343  0.1665
 4962OCT     C1 9923  18.995  22.209  13.523  0.2791 -0.0126 -0.0352
 4962OCT     C2 9924  18.621  22.338  13.315 -0.1417  0.1365 -0.0462
 4963OCT     C1 9925   2.272  13.901  17.260  0.6371 -0.1459  0.1306
 4963OCT     C2 9926   2.255  13.452  17.225  0.3481  0.4909  0.0331
 4964OCT     C1 9927  18.934   8.202  12.536  0.2614 -0.1649 -0.0969
 4964OCT     C2 9928  18.640   7.821  12.379 -0.2298 -0.2164  0.0991
 4965OCT     C1 9929  19.194  22.410   4.826 -0.0590 -0.0622 -0.0686
 4965OCT     C2 9930  18.924  22.669   5.112 -0.2062 -0.2470  0.3681
 4966OCT     C1 9931  17.156   1.136   8.577 -0.2791  0.0798 -0.0520
 4966OCT     C2 9932  17.486   1.377   8.285  0.0796  0.0222 -0.0299
 4967OCT     C1 9933   0.953  23.010   8.073 -0.1869 -0.2569 -0.0413
 4967OCT     C2 9934   0.595  22.784   8.355  0.1928  0.0431  0.1530
 4968OCT     C1 9935  21.244  19.068  16.269 -0.1874 -0.2375  0.0238
 4968OCT     C2 9936  20.929  19.038  16.568  0.2173  0.3540 -0.1215
 4969OCT     C1 9937  20.924   7.143   2.209 -0.0002 -0.0725  0.0412
 4969OCT     C2 9938  21.166   6.888   1.894 -0.0173 -0.1346 -0.0913
 4970OCT     C1 9939   4.820   4.952  22.618 -0.0979 -0.3002 -0.1968
 4970OCT     C2 9940   4.544   4.724  22.978  0.2457 -0.1488 -0.2748
 4971OCT     C1 9941  22.344   8.865   1.823  0.3254  0.0245 -0.0363
 4971OCT     C2 9942  22.657   8.845   2.166 -0.0054 -0.0914  0.2409
 4972OCT     C1 9943  23.674   8.990   2.883 -0.0401 -0.1193 -0.0640
 4972OCT     C2 9944   0.195   9.101   2.528 -0.0130 -0.0033  0.1738
 4973OCT     C1 9945  21.621  23.157   1.097 -0.0264  0.2776  0.4913
 4973OCT     C2 9946  22.081  23.137   1.236 -0.0899  0.0789  0.0300
 4974OCT     C1 9947   7.752   3.859  13.123  0.1875  0.2945 -0.0125
 4974OCT     C2 9948   7.618   4.262  13.384 -0.0924  0.1776 -0.1272
 4975OCT     C1 9949  20.851  20.974  21.049  0.1877  0.1641 -0.1340
 4975OCT     C2 9950  21.174  21.278  21.249 -0.2379  0.0093  0.0019
 4976OCT     C1 9951   3.371  21.181  22.648  0.1792 -0.0254 -0.2982
 4976OCT     C2 9952   3.063  21.496  22.621  0.3425 -0.1382  0.0678
 4977OCT     C1 9953  10.240   0.317  23.330 -0.2421  0.2629 -0.0278
 4977OCT     C2 9954   9.999   0.217  23.647 -0.0573  0.2128 -0.0432
 4978OCT     C1 9955   7.548  21.439   1.666  0.0509  0.0505 -0.0048
 4978OCT     C2 9956   7.884  21.698   1.561 -0.4658 -0.2099 -0.2277
 4979OCT     C1 9957  17.289  15.231   9.629  0.1462  0.0391  0.0392
 4979OCT     C2 9958  17.526  15.366  10.057  0.1783 -0.1951  0.1852
 4980OCT     C1 9959   5.579  19.553  13.797  0.3646 -0.0294 -0.0064
 4980OCT     C2 9960   5.673  19.922  13.510 -0.0274 -0.0994  0.0685
 4981OCT     C1 9961  16.287   9.121   5.958  0.0910  0.1643  0.1237
 4981OCT     C2 9962  15.874   9.174   6.116  0.1444 -0.0914  0.3171
 4982OCT     C1 9963  14.596  15.196  18.513  0.1287  0.4908  0.0745
 4982OCT     C2 9964  14.371  14.882  18.763  0.1809 -0.0916 -0.1231
 4983OCT     C1 9965   4.249   4.580  20.507  0.3201  0.0012 -0.0905
 4983OCT     C2 9966   4.601   4.294  20.604  0.1128 -0.0529  0.1232
 4984OCT     C1 9967  19.645  17.949   2.450 -0.0942  0.2277 -0.2423
 4984OCT     C2 9968  19.481  17.493   2.643 -0.0237  0.1602  0.6254
 4985OCT     C1 9969  10.209  18.594   0.262  0.2154  0.2251 -0.3363
 4985OCT     C2 9970  10.099  19.028   0.129 -0.1390 -0.3112 -0.0478
 4986OCT     C1 9971  21.313  23.165   3.257  0.0768 -0.0335 -0.1480
 4986OCT     C2 9972  21.609  23.111   3.588  0.3059  0.3442  0.1921
 4987OCT     C1 9973  16.551   2.737  17.058 -0.4434  0.3527  0.4712
 4987OCT     C2 9974  16.704   3.085  16.811  0.0672  0.1648 -0.1763
 4988OCT     C1 9975  11.517  10.530   4.789  0.1089  0.3884  0.0114
 4988OCT     C2 9976  11.178  10.482   5.097  0.1664 -0.0446 -0.2699
 4989OCT     C1 9977  23.550  20.593   9.842  0.0293  0.0187  0.0802
 4989OCT     C2 9978  23.731  20.359  10.193 -0.1489  0.1211 -0.0032
 4990OCT     C1 9979   3.119  12.891  12.109 -0.4487 -0.3511 -0.3359
 4990OCT     C2 9980   3.506  12.777  12.323 -0.1077  0.2007  0.1251
 4991OCT     C1 9981  10.418   8.475   1.657 -0.0398  0.1618 -0.4835
 4991OCT     C2 9982  10.452   8.303   1.194  0.1771  0.1359  0.0311
 4992OCT     C1 9983   8.706  14.769  12.562  0.1702 -0.1596 -0.1292
 4992OCT     C2 9984   9.006  14.556  12.845 -0.0275 -0.0263 -0.3699
 4993OCT     C1 9985   2.071  17.105  14.362 -0.0398 -0.3866  0.1069
 4993OCT     C2 9986   2.134  16.996  14.819  0.0352 -0.0405 -0.2066
 4994OCT     C1 9987  20.868  11.539  20.883  0.2496 -0.4654  0.0939
 4994OCT     C2 9988  20.799  11.789  20.438 -0.0812 -0.5803  0.3377
 4995OCT     C1 9989  17.888  21.570   7.403  0.2299  0.0405 -0.0973
 4995OCT     C2 9990  18.010  21.963   7.314  0.0124 -0.0875 -0.0807
 4996OCT     C1 9991   4.097   6.169   2.845 -0.0192 -0.2684  0.4489
 4996OCT     C2 9992   4.257   6.569   2.654 -0.2191  0.2205  0.3141
 4997OCT     C1 9993  14.462  11.747  16.306 -0.0635  0.0345 -0.1617
 4997OCT     C2 9994  14.912  11.804  16.340 -0.1071 -0.1599  0.0046
 4998OCT     C1 9995   5.795  15.406  14.956  0.0475 -0.4476  0.0259
 4998OCT     C2 9996   5.646  15.465  14.552  0.1328  0.1848 -0.0375
 4999OCT     C1 9997   7.895  16.318   5.805 -0.1381 -0.1577 -0.1285
 4999OCT     C2 9998   7.899  16.730   5.997 -0.2158 -0.1778  0.2500
 5000OCT     C1 9999   1.158   2.756  11.144  0.3222  0.2171  0.3288
 5000OCT     C210000   1.436   2.876  10.734 -0.0430 -0.1396  0.0531
 5001OCT     C110001  16.397  14.576   2.943  0.3862  0.2091 -0.1613
 5001OCT     C210002  16.266  14.709   3.400  0.2855  0.1179  0.3159
 5002OCT     C110003  22.729  12.605   1.927  0.1017  0.0226  0.3025
 5002OCT     C210004  22.336  12.480   2.044  0.3073  0.2204  0.0254
 5003OCT     C110005  21.582  12.536   0.603  0.2185 -0.1503 -0.0377
 5003OCT     C210006  21.198  12.360   0.846  0.1363  0.2282 -0.2217
 5004OCT     C110007  10.116   3.496  19.932 -0.1042  0.3417  0.0879
 5004OCT     C210008   9.919   3.209  20.268 -0.3705  0.2116 -0.1799
 5005OCT     C110009  17.503  13.550   2.700 -0.0445  0.5200  0.1803
 5005OCT     C210010  17.643  14.011   2.738 -0.0742 -0.3233 -0.1855
 5006OCT     C110011  13.533  10.395  23.706  0.0437 -0.1730 -0.0370
 5006OCT     C210012  13.652  10.528   0.419 -0.3034  0.0819 -0.0417
 5007OCT     C110013  21.267  18.480   2.625  0.1845  0.2032  0.0159
 5007OCT     C210014  20.957  18.276   2.430 -0.0703 -0.1948  0.0204
 5008OCT     C110015   7.890   4.079   4.315  0.1809 -0.1669 -0.3458
 5008OCT     C210016   7.829   4.526   4.305 -0.2839  0.2985  0.0479
 5009OCT     C110017   9.979  20.062   0.439 -0.0602  0.0730 -0.2773
 5009OCT     C210018  10.413  19.980   0.456  0.1066  0.2340  0.1219
 5010OCT     C110019   3.543  19.435  11.041  0.2842 -0.3986  0.1147
 5010OCT     C210020   3.399  19.693  11.441 -0.3223  0.1508 -0.2217
 5011OCT     C110021  17.111  13.748  11.104 -0.0413  0.0090 -0.0827
 5011OCT     C210022  16.723  14.027  11.072  0.0588  0.2002 -0.1327
 5012OCT     C110023   8.006  21.975   4.675  0.0294 -0.4952  0.1177
 5012OCT     C210024   8.037  21.578   4.958  0.4814  0.0435 -0.2414
 5013OCT     C110025   7.950  17.815  13.136  0.1499  0.2307  0.0398
 5013OCT     C210026   8.163  17.391  12.988 -0.1516 -0.1169 -0.4204
 5014OCT     C110027  15.803  23.608  20.270 -0.3072 -0.1889  0.5239
 5014OCT     C210028  15.691  23.308  20.590 -0.2727 -0.4549  0.3277
 5015OCT     C110029  11.237  10.577  19.784 -0.3902 -0.1743 -0.1308
 5015OCT     C210030  11.205  11.085  19.869  0.3097  0.2516 -0.0614
 5016OCT     C110031   6.298  23.112  13.669  0.0053  0.2258  0.0536
 5016OCT     C210032   6.759  22.958  13.549 -0.1750  0.1091  0.0783
 5017OCT     C110033   9.661  13.881   4.218 -0.1980  0.1541  0.0256
 5017OCT     C210034   9.545  14.353   4.199  0.0127  0.3073  0.4397
 5018OCT     C110035   0.872  10.286  14.885  0.1733 -0.1518 -0.1209
 5018OCT     C210036   0.911   9.923  15.165 -0.0813  0.0359 -0.0980
 5019OCT     C110037   0.654  12.625  15.807 -0.0365 -0.0221  0.1130
 5019OCT     C210038   0.409  12.481  15.390 -0.2643  0.3801 -0.0289
 5020OCT     C110039  23.058  17.341  20.390 -0.2946  0.2021  0.3499
 5020OCT     C210040  23.125  16.920  20.591 -0.0116 -0.2761  0.1233
 5021OCT     C110041  13.140  12.394  14.126  0.2861 -0.1628  0.3881
 5021OCT     C210042  13.335  12.654  13.727  0.0052 -0.6399  0.0197
 5022OCT     C110043  19.891  12.093  12.653  0.0255  0.0473  0.0431
 5022OCT     C210044  19.972  12.580  12.822  0.0545  0.1412 -0.3825
 5023OCT     C110045   8.191   1.389  12.576  0.0711  0.1338 -0.3626
 5023OCT     C210046   7.905   1.598  12.826 -0.2101  0.2121 -0.1098
 5024OCT     C110047  12.262   6.208  18.662  0.3306  0.0619 -0.5143
 5024OCT     C210048  12.164   5.885  18.960 -0.1759 -0.0194 -0.1533
 5025OCT     C110049   7.120  22.041  14.483  0.0655  0.0725  0.1735
 5025OCT     C210050   6.880  22.411  14.646 -0.2091 -0.1056 -0.1233
 5026OCT     C110051  21.477  15.553   6.652  0.0345  0.0399  0.0380
 5026OCT     C210052  21.152  15.413   6.380  0.0092  0.1779  0.0018
 5027OCT     C110053  12.783  14.977  10.883  0.1356 -0.0818 -0.0830
 5027OCT     C210054  12.498  15.098  11.260 -0.0038 -0.1841 -0.1678
 5028OCT     C110055   5.273   9.009   1.708  0.3121 -0.5034 -0.0189
 5028OCT     C210056   5.091   9.032   2.144  0.1595  0.2480 -0.0504
 5029OCT     C110057  14.498   8.958  11.469  0.1124  0.4048 -0.1193
 5029OCT     C210058  14.365   9.082  11.017  0.1298 -0.3331  0.3356
 5030OCT     C110059   2.919   4.337  20.255 -0.0025  0.1360 -0.4096
 5030OCT     C210060   2.546   4.192  20.557  0.0305 -0.0945  0.1579
 5031OCT     C110061  14.658  19.122  17.670  0.2340 -0.4973  0.1850
 5031OCT     C210062  15.084  19.225  17.838  0.0008  0.2031  0.2285
 5032OCT     C110063  19.066   7.390   3.428 -0.1965  0.0872  0.2661
 5032OCT     C210064  18.580   7.301   3.411  0.1049 -0.0702  0.0550
 5033OCT     C110065  23.282  13.013   0.101  0.0581 -0.0825 -0.1846
 5033OCT     C210066  23.457  13.432   0.175 -0.1646  0.3255  0.1472
 5034OCT     C110067   4.176   6.327   8.446  0.1362  0.4765 -0.0626
 5034OCT     C210068   4.274   5.917   8.150 -0.2918  0.1134  0.1554
 5035OCT     C110069  15.703  23.018  12.100 -0.3076 -0.2941  0.3393
 5035OCT     C210070  15.540  22.652  11.932 -0.2111 -0.0275 -0.1856
 5036OCT     C110071  19.064   0.600   8.129  0.3717  0.3098  0.0996
 5036OCT     C210072  19.025   0.225   7.831 -0.1960  0.2004 -0.3459
 5037OCT     C110073  11.384   8.410   9.254  0.1438 -0.3582 -0.4902
 5037OCT     C210074  11.836   8.272   9.314  0.1291  0.0567 -0.0532
 5038OCT     C110075   9.222   6.750  19.024  0.1717 -0.2547  0.3025
 5038OCT     C210076   9.178   6.870  19.450 -0.2791  0.1342  0.1254
 5039OCT     C110077   5.713  18.066  10.817  0.0827 -0.2661 -0.0070
 5039OCT     C210078   5.336  17.909  10.594 -0.0722 -0.2746  0.0751
 5040OCT     C110079   1.763  15.842   2.900  0.0033  0.0438 -0.1356
 5040OCT     C210080   1.346  15.514   2.844 -0.1587 -0.1507  0.0737
 5041OCT     C110081   8.250  21.833  11.879 -0.1122  0.2913 -0.1862
 5041OCT     C210082   7.882  21.747  12.165  0.0574 -0.0101  0.1121
 5042OCT     C110083   4.092   3.885  22.525 -0.2013 -0.2346 -0.4395
 5042OCT     C210084   4.159   3.747  22.134 -0.3836 -0.1389 -0.0170
 5043OCT     C110085  17.603   6.560   5.197  0.1803  0.1290 -0.1454
 5043OCT     C210086  17.326   7.000   5.221 -0.0451 -0.3698 -0.1998
 5044OCT     C110087   4.940  15.443  22.302  0.1217  0.0416  0.0373
 5044OCT     C210088   4.591  15.716  22.512 -0.0844  0.3752 -0.3276
 5045OCT     C110089   2.697   5.614  20.818 -0.1161  0.1418  0.2400
 5045OCT     C210090   2.715   5.596  20.324  0.1994  0.2974 -0.2331
 5046OCT     C110091  18.326   0.977  22.580 -0.1667  0.0261  0.5245
 5046OCT     C210092  18.582   1.325  22.813 -0.0267  0.4303  0.1717
 5047OCT     C110093  17.846   1.451   2.564  0.0884  0.0832  0.1913
 5047OCT     C210094  18.123   1.391   2.167 -0.1212  0.0251 -0.2879
 5048OCT     C110095  19.496   8.166   6.782 -0.0839  0.6797 -0.1018
 5048OCT     C210096  19.887   8.421   6.872  0.2439  0.1218  0.0388
 5049OCT     C110097   9.640   2.933  22.945 -0.0842  0.1367 -0.1929
 5049OCT     C210098   9.595   3.086  23.336 -0.0696  0.0419  0.0819
 5050OCT     C110099   8.379  16.021   1.588  0.6490  0.0080  0.0685
 5050OCT     C210100   8.571  15.967   1.163  0.1194  0.0572 -0.0937
 5051OCT     C110101   6.857   1.267  17.016 -0.1516 -0.1297 -0.1949
 5051OCT     C210102   6.625   0.935  16.723  0.0628  0.0774 -0.4479
 5052OCT     C110103   2.463   0.332  18.629  0.0626  0.1597 -0.1474
 5052OCT     C210104   2.084   0.430  18.919  0.1754 -0.0043 -0.0552
 5053OCT     C110105   8.209   3.719   4.353 -0.4263 -0.0350  0.1161
 5053OCT     C210106   8.259   3.616   4.797  0.0147  0.3823 -0.0875
 5054OCT     C110107   1.473  14.546   8.236  0.1450 -0.0607  0.0184
 5054OCT     C210108   1.819  14.822   8.348 -0.0600 -0.0218  0.1046
 5055OCT     C110109  17.193   3.282  18.513  0.0376  0.1433  0.2180
 5055OCT     C210110  17.199   3.572  18.907 -0.0628  0.2550  0.1177
 5056OCT     C110111  22.446  14.064   5.533 -0.1198  0.1170 -0.1256
 5056OCT     C210112  22.215  13.669   5.649 -0.0706 -0.2430 -0.0081
 5057OCT     C110113   2.468   0.319   2.821  0.0348 -0.2697  0.0048
 5057OCT     C210114   2.357  23.605   2.931  0.0836 -0.1081 -0.0950
 5058OCT     C110115   1.092   3.928  14.457  0.3077 -0.2192  0.1216
 5058OCT     C210116   1.366   3.874  14.101 -0.1896 -0.3929  0.0840
 5059OCT     C110117  14.040  10.690  11.148 -0.0080  0.2039  0.0436
 5059OCT     C210118  14.414  10.523  10.949  0.1455  0.2950  0.1694
 5060OCT     C110119   7.897   5.359  21.253 -0.1953 -0.1747  0.2656
 5060OCT     C210120   7.922   4.892  21.233 -0.0451  0.1785 -0.1180
 5061OCT     C110121   2.976   5.781  11.835  0.1655 -0.2112 -0.0858
 5061OCT     C210122   2.546   5.899  12.088 -0.1312 -0.1028  0.3240
 5062OCT     C110123  12.968   3.918  11.714 -0.5280  0.3991  0.3585
 5062OCT     C210124  12.666   3.843  11.360 -0.1570 -0.2034  0.0747
 5063OCT     C110125  22.359   0.250  20.751 -0.0941 -0.1070 -0.2280
 5063OCT     C210126  22.294   0.480  21.210 -0.1898 -0.1972  0.5245
 5064OCT     C110127  20.285  20.438  19.687  0.3015 -0.0136 -0.1769
 5064OCT     C210128  20.337  20.019  19.858  0.2167 -0.1386  0.1091
 5065OCT     C110129  13.275  23.512  12.740 -0.0625 -0.0090  0.0592
 5065OCT     C210130  12.843  23.585  12.943  0.0631 -0.3085  0.0127
 5066OCT     C110131   4.424  19.012  16.949  0.2884  0.2588 -0.4496
 5066OCT     C210132   4.797  18.818  16.817  0.1380 -0.0151  0.1491
 5067OCT     C110133   8.763  18.198  14.189  0.0721  0.3037 -0.3646
 5067OCT     C210134   8.842  18.308  14.604  0.1571 -0.0205  0.3268
 5068OCT     C110135  22.607  21.632  10.973  0.5298 -0.0971 -0.4838
 5068OCT     C210136  22.932  21.348  11.090  0.0370 -0.0363 -0.1543
 5069OCT     C110137  16.164   2.082  20.423  0.3475 -0.2969 -0.0331
 5069OCT     C210138  16.056   1.717  20.763 -0.1166 -0.3154 -0.4474
 5070OCT     C110139  23.156   2.924   3.117 -0.0323 -0.0810  0.0779
 5070OCT     C210140  23.360   2.776   2.699 -0.0808 -0.0563 -0.0180
 5071OCT     C110141  17.174  22.322  21.929  0.0717  0.1705 -0.0922
 5071OCT     C210142  17.456  22.343  22.255 -0.3747  0.4287  0.0674
 5072OCT     C110143  19.714  23.143  13.663 -0.0882 -0.1342 -0.0076
 5072OCT     C210144  20.139  23.291  13.592 -0.1469 -0.2305  0.1212
 5073OCT     C110145   5.146  19.940  21.264 -0.1580 -0.0545  0.1250
 5073OCT     C210146   5.379  19.800  20.846 -0.0864  0.0398  0.0769
 5074OCT     C110147  13.035  22.036   4.286 -0.0997  0.1811  0.0715
 5074OCT     C210148  12.803  22.045   4.710  0.5328  0.0031 -0.2678
 5075OCT     C110149  19.290  10.384   6.313 -0.4045 -0.1352  0.3405
 5075OCT     C210150  19.678  10.669   6.374  0.1284 -0.0661 -0.2797
 5076OCT     C110151   2.743  18.543   2.801  0.1726 -0.1158  0.1442
 5076OCT     C210152   3.131  18.476   2.633 -0.0050  0.2421 -0.1206
 5077OCT     C110153  21.602   7.603   6.652 -0.0615 -0.0375  0.2912
 5077OCT     C210154  21.898   7.771   6.327 -0.0598  0.1018  0.0902
 5078OCT     C110155   0.721  15.050  15.983  0.1103 -0.0342 -0.0921
 5078OCT     C210156   1.208  15.187  16.010  0.0372 -0.1481 -0.0078
 5079OCT     C110157  22.631  21.877   1.195 -0.1743 -0.2835 -0.0498
 5079OCT     C210158  23.015  21.855   0.929 -0.2280  0.3730 -0.1781
 5080OCT     C110159   3.540   1.146   7.381 -0.0519 -0.4023 -0.1059
 5080OCT     C210160   3.261   1.240   7.791 -0.3257  0.1218 -0.1273
 5081OCT     C110161  14.373  16.670  10.537  0.1565  0.0377 -0.1292
 5081OCT     C210162  14.459  16.999  10.821  0.4419  0.0789  0.1343
 5082OCT     C110163   6.833  13.308  13.893  0.2822  0.1351  0.0445
 5082OCT     C210164   6.704  13.070  13.547  0.2787 -0.2194  0.1372
 5083OCT     C110165   3.812   4.242  14.309 -0.1491  0.0237  0.3998
 5083OCT     C210166   3.759   4.275  14.760 -0.0820  0.5312  0.1563
 5084OCT     C110167  16.936   5.327  21.449 -0.1372 -0.0239 -0.0049
 5084OCT     C210168  16.916   5.137  21.026  0.0413 -0.1348 -0.0414
 5085OCT     C110169   0.265  15.886  13.067 -0.2043 -0.0959  0.0898
 5085OCT     C210170   0.276  16.122  13.496  0.0884  0.1304  0.0500
 5086OCT     C110171   4.430  15.200  11.898 -0.1713  0.0504  0.0460
 5086OCT     C210172   4.363  15.193  12.297 -0.1711  0.0318  0.0314
 5087OCT     C110173   0.329   8.722   1.421 -0.0614 -0.2846 -0.1042
 5087OCT     C210174  23.645   8.479   1.283  0.1241 -0.0809 -0.0220
 5088OCT     C110175   9.744   1.195  13.761 -0.1573 -0.0844 -0.0372
 5088OCT     C210176   9.444   1.538  13.885 -0.0118 -0.0374  0.1168
 5089OCT     C110177  14.721  18.289  23.134 -0.0207  0.0423  0.0363
 5089OCT     C210178  14.788  18.351  23.632 -0.1589  0.0289 -0.1899
 5090OCT     C110179  12.284   0.798   4.849 -0.0237  0.1481 -0.1088
 5090OCT     C210180  12.158   0.864   4.425  0.1432  0.2327  0.5558
 5091OCT     C110181   4.672  23.182   8.120  0.3086 -0.2193 -0.0533
 5091OCT     C210182   4.802  23.193   8.567 -0.0777  0.0104 -0.2782
 5092OCT     C110183   7.658   5.409  13.474  0.1216  0.0213 -0.3307
 5092OCT     C210184   7.390   5.784  13.555  0.1169  0.0219 -0.1303
 5093OCT     C110185   4.037  21.692  19.737 -0.0841  0.2592  0.2947
 5093OCT     C210186   3.681  21.734  19.468 -0.3074  0.2966  0.0640
 5094OCT     C110187   8.342   2.779   1.260  0.1133  0.1209 -0.0549
 5094OCT     C210188   7.907   2.921   1.121 -0.0779 -0.1941 -0.1007
 5095OCT     C110189   6.068  15.221   4.967 -0.0021  0.5034  0.1046
 5095OCT     C210190   6.295  15.389   4.610 -0.0098  0.0854  0.3206
 5096OCT     C110191   0.975   4.764   8.909  0.4929 -0.3525  0.2350
 5096OCT     C210192   1.258   4.795   8.500 -0.1534  0.1780 -0.1624
 5097OCT     C110193   4.779  14.237   9.810 -0.0330 -0.0719  0.0022
 5097OCT     C210194   4.779  14.103   9.376  0.1899 -0.0960  0.1593
 5098OCT     C110195   7.252   3.324  13.766 -0.0109  0.2183  0.0074
 5098OCT     C210196   7.253   2.857  13.823 -0.0062 -0.5918 -0.0704
 5099OCT     C110197  16.630   8.353  22.115  0.2657  0.0862 -0.3010
 5099OCT     C210198  16.465   8.318  21.688 -0.3952  0.1290 -0.3506
 5100OCT     C110199  17.047   1.916   1.447 -0.0453 -0.0046  0.1286
 5100OCT     C210200  17.411   1.878   1.714 -0.1412 -0.0327 -0.2708
 5101OCT     C110201  15.850  19.400  23.500  0.0830  0.0989  0.0119
 5101OCT     C210202  16.363  19.418  23.580  0.0292 -0.2765 -0.1736
 5102OCT     C110203  15.451  22.548   2.437 -0.2205  0.3632 -0.0518
 5102OCT     C210204  15.410  22.905   2.206  0.0497 -0.6992 -0.0250
 5103OCT     C110205   7.576   3.715  23.591 -0.0400 -0.0356  0.6739
 5103OCT     C210206   7.711   4.160  23.569 -0.5376  0.0931  0.2909
 5104OCT     C110207   3.583  22.882   4.918 -0.1214 -0.1546  0.0525
 5104OCT     C210208   3.781  22.921   5.380 -0.2188 -0.1478 -0.0011
 5105OCT     C110209   8.773  22.719   1.427 -0.0904 -0.0001 -0.1710
 5105OCT     C210210   9.190  22.864   1.517 -0.0858 -0.0025 -0.2539
 5106OCT     C110211   1.664  14.938   9.963 -0.4408 -0.0207 -0.3545
 5106OCT     C210212   1.724  14.917  10.412  0.1700 -0.0876  0.0234
 5107OCT     C110213   0.638   1.615   6.055  0.2682  0.3747 -0.0157
 5107OCT     C210214   0.452   1.799   6.466  0.0459  0.3325 -0.0730
 5108OCT     C110215   1.966   9.939   8.643  0.0604 -0.3052  0.1470
 5108OCT     C210216   1.583  10.192   8.714 -0.1435 -0.2462 -0.4816
 5109OCT     C110217  10.716   0.934   8.034  0.3031 -0.1082  0.0318
 5109OCT     C210218  10.990   1.190   8.244  0.2617 -0.5677  0.0603
 5110OCT     C110219  11.022  14.408  12.643  0.1506  0.0903  0.3174
 5110OCT     C210220  10.512  14.467  12.665 -0.1614  0.3010  0.2159
 5111OCT     C110221   2.825  10.759   4.606  0.0176 -0.1632  0.1334
 5111OCT     C210222   2.866  10.542   5.006  0.0199  0.2706 -0.1736
 5112OCT     C110223  16.188   7.027   9.823 -0.1957  0.1130 -0.2242
 5112OCT     C210224  16.165   6.695  10.153  0.0577 -0.2549 -0.3453
 5113OCT     C110225  23.702   7.890  13.561 -0.3271 -0.3283 -0.1125
 5113OCT     C210226  23.456   7.520  13.601 -0.3532  0.1442 -0.1065
 5114OCT     C110227  22.465  16.533  14.457  0.0936 -0.2156 -0.2309
 5114OCT     C210228  22.146  16.785  14.302 -0.0943 -0.2763  0.0585
 5115OCT     C110229  16.957  23.462   0.486  0.0248  0.5944 -0.0565
 5115OCT     C210230  16.985  23.631   0.925  0.0814 -0.0252 -0.0103
 5116OCT     C110231  18.701  21.630  21.774  0.0693 -0.1711 -0.0908
 5116OCT     C210232  18.246  21.400  21.737 -0.1887  0.0481  0.0698
 5117OCT     C110233  21.613   8.810  12.390 -0.0066 -0.0632  0.1733
 5117OCT     C210234  22.039   9.024  12.278  0.2645  0.1640  0.2401
 5118OCT     C110235   1.572  18.007   8.081 -0.4229  0.0208 -0.1193
 5118OCT     C210236   1.949  17.799   8.051  0.0158 -0.0066  0.0298
 5119OCT     C110237  12.147   2.603   3.025  0.1657 -0.0798 -0.2587
 5119OCT     C210238  12.016   2.179   3.138 -0.1569  0.0391 -0.0798
 5120OCT     C110239   9.281   4.186   8.375  0.0806  0.1388 -0.2614
 5120OCT     C210240   8.860   3.958   8.491 -0.0954 -0.2285  0.0642
 5121OCT     C110241  21.808  15.170  14.526  0.2498  0.3142 -0.1152
 5121OCT     C210242  21.565  14.796  14.808 -0.3065  0.0165  0.4107
 5122OCT     C110243   4.785  20.316  23.645 -0.0835 -0.2516  0.0759
 5122OCT     C210244   4.627  19.919  23.511 -0.2788 -0.0719  0.1955
 5123OCT     C110245  18.301   5.419   6.924  0.2904  0.0082 -0.2780
 5123OCT     C210246  18.522   5.808   6.928 -0.2500  0.0916  0.3654
 5124OCT     C110247   3.202  12.646   0.684 -0.0388  0.4096  0.4574
 5124OCT     C210248   3.433  12.736   0.975  0.1589  0.1982 -0.1851
 5125OCT     C110249   7.532  22.830   2.746 -0.1331 -0.2000  0.1361
 5125OCT     C210250   7.640  22.871   2.286 -0.3749 -0.1891 -0.1966
 5126OCT     C110251   6.785   3.609  21.938  0.2673  0.0552 -0.1106
 5126OCT     C210252   6.635   3.162  22.059  0.1245  0.0716 -0.1849
 5127OCT     C110253  16.287  17.528  23.342  0.3795  0.0784  0.0016
 5127OCT     C210254  16.203  17.480   0.070  0.0635 -0.1865 -0.0493
 5128OCT     C110255  21.670  19.869   3.055 -0.2388  0.0411 -0.3185
 5128OCT     C210256  21.513  20.354   3.050 -0.1504  0.0582  0.1768
 5129OCT     C110257   9.046  16.280  17.255 -0.0141 -0.1871 -0.0271
 5129OCT     C210258   9.176  15.869  17.148 -0.0384 -0.2988  0.1231
 5130OCT     C110259  12.694  21.104   9.372  0.1238 -0.0861  0.0347
 5130OCT     C210260  12.562  21.151   8.934 -0.0580 -0.2603  0.2539
 5131OCT     C110261   6.490  12.523   4.034  0.1782  0.0057 -0.0001
 5131OCT     C210262   6.496  12.049   4.238 -0.3161 -0.0212  0.1806
 5132OCT     C110263  13.188   1.219   0.537  0.2310 -0.0662  0.1619
 5132OCT     C210264  12.799   1.250   0.702  0.2719  0.1030 -0.1551
 5133OCT     C110265  20.844  21.269   9.427 -0.0668  0.0601  0.0099
 5133OCT     C210266  21.161  21.055   9.152 -0.1300 -0.0034  0.5094
 5134OCT     C110267  19.689  16.008   4.324  0.3099 -0.0333 -0.1693
 5134OCT     C210268  19.933  15.899   3.921  0.1246 -0.0314 -0.0601
 5135OCT     C110269  16.355   9.691   6.766 -0.0245  0.0118  0.0446
 5135OCT     C210270  16.171  10.062   6.420 -0.2614  0.0897 -0.1804
 5136OCT     C110271   1.441   4.562  14.256  0.0476  0.3322  0.0858
 5136OCT     C210272   1.336   4.579  14.702  0.0714 -0.1202  0.0890
 5137OCT     C110273  14.772   1.033   7.221 -0.2934 -0.2032  0.0433
 5137OCT     C210274  14.986   0.668   7.051 -0.0395  0.0623  0.2101
 5138OCT     C110275   0.236   4.800  18.664 -0.2866 -0.1890 -0.1309
 5138OCT     C210276   0.626   4.989  18.452 -0.1232 -0.3429  0.1179
 5139OCT     C110277  21.477  10.230   1.526 -0.1875 -0.0345  0.1273
 5139OCT     C210278  21.129  10.514   1.479 -0.0933  0.3148 -0.0732
 5140OCT     C110279   3.115  11.021  16.991 -0.2616 -0.0406 -0.0336
 5140OCT     C210280   3.390  11.391  16.986 -0.3287  0.2088  0.0872
 5141OCT     C110281   2.154  12.846  15.717 -0.3689 -0.0975  0.0651
 5141OCT     C210282   1.786  12.782  15.933 -0.0856  0.1083 -0.1458
 5142OCT     C110283   7.391  16.252  16.698 -0.2461  0.2092 -0.0095
 5142OCT     C210284   7.228  16.305  17.148 -0.0278  0.3090 -0.3536
 5143OCT     C110285  22.061  16.430  16.421  0.0423  0.0746  0.0566
 5143OCT     C210286  22.534  16.321  16.371  0.0290 -0.1850 -0.1958
 5144OCT     C110287  19.184  14.535   8.637 -0.2308 -0.1981 -0.0282
 5144OCT     C210288  19.370  14.655   9.088 -0.3062 -0.0695  0.1688
 5145OCT     C110289  20.574   3.045  22.593  0.1007 -0.1928 -0.3667
 5145OCT     C210290  20.980   3.211  22.558 -0.4767  0.1393  0.4248
 5146OCT     C110291  11.571   6.988  19.436 -0.3440  0.0984  0.1755
 5146OCT     C210292  11.979   7.181  19.636 -0.1276  0.1811  0.2002
 5147OCT     C110293  10.762   3.189  22.573  0.0856 -0.2078 -0.0601
 5147OCT     C210294  10.692   2.849  22.244 -0.0780  0.2388  0.1764
 5148OCT     C110295  21.010  15.210   3.414 -0.0544 -0.0536 -0.0786
 5148OCT     C210296  21.166  15.568   3.233  0.0875 -0.1298  0.0182
 5149OCT     C110297   3.266  15.299  21.434  0.0445 -0.0001  0.0865
 5149OCT     C210298   3.372  15.726  21.228 -0.4470 -0.0110 -0.0204
 5150OCT     C110299  14.291  23.605  23.306  0.1854 -0.0785 -0.0858
 5150OCT     C210300  13.985  23.249  23.151 -0.2057 -0.2032 -0.0519
 5151OCT     C110301  17.614   3.837  19.092  0.2261 -0.3748 -0.0428
 5151OCT     C210302  17.395   4.116  18.774  0.0262 -0.2919  0.1191
 5152OCT     C110303   9.474  11.947  10.525 -0.0263  0.0194  0.1043
 5152OCT     C210304   9.091  11.992  10.841 -0.1360  0.0981  0.3113
 5153OCT     C110305  19.503   0.347   6.350  0.0085 -0.0868  0.5501
 5153OCT     C210306  19.362  23.722   6.661  0.0679 -0.2908  0.3899
 5154OCT     C110307  11.081   7.876   5.480  0.1280 -0.2748 -0.0027
 5154OCT     C210308  11.155   7.971   5.926 -0.2732 -0.2394 -0.1941
 5155OCT     C110309  12.880   9.430   8.537  0.2604 -0.3213  0.4294
 5155OCT     C210310  12.820   8.964   8.530 -0.1433  0.3684  0.0592
 5156OCT     C110311   6.059   0.558   5.537  0.0676 -0.2004  0.2711
 5156OCT     C210312   5.911   0.182   5.263 -0.0262 -0.3353 -0.1588
 5157OCT     C110313  16.636   2.336   6.936 -0.1316 -0.0631  0.0992
 5157OCT     C210314  16.188   2.178   7.033 -0.0969  0.0722 -0.0287
 5158OCT     C110315  16.632  20.915   0.482 -0.0417  0.4361  0.0766
 5158OCT     C210316  16.351  20.739   0.851  0.1158 -0.0265 -0.0819
 5159OCT     C110317  12.133   3.014  10.374 -0.0406  0.0464  0.1308
 5159OCT     C210318  12.144   2.896  10.840 -0.0725  0.1347  0.0110
 5160OCT     C110319  19.686  21.587   2.932  0.0918 -0.2131 -0.1510
 5160OCT     C210320  19.518  21.342   2.596 -0.0616 -0.0012 -0.0142
 5161OCT     C110321  14.834   8.974   7.049 -0.0129  0.2690 -0.0072
 5161OCT     C210322  14.936   9.370   6.913 -0.0641  0.1235 -0.0449
 5162OCT     C110323   6.675  22.819   9.142 -0.0543 -0.1818  0.0267
 5162OCT     C210324   6.767  22.698   8.679 -0.1132  0.0520  0.1299
 5163OCT     C110325   7.622   0.961  17.334  0.2705 -0.0662 -0.1556
 5163OCT     C210326   7.727   0.597  17.613 -0.0460 -0.1349 -0.1381
 5164OCT     C110327   3.496   8.380  18.082  0.2539 -0.4542 -0.1850
 5164OCT     C210328   3.208   8.607  17.787 -0.1740  0.0892  0.5586
 5165OCT     C110329   8.087  16.276   7.359 -0.2518  0.0467 -0.2497
 5165OCT     C210330   8.315  16.492   7.670 -0.2528 -0.1250 -0.0688
 5166OCT     C110331  11.455   1.464  10.767 -0.3795 -0.0363 -0.2045
 5166OCT     C210332  11.751   1.684  11.064 -0.0219 -0.3855 -0.2796
 5167OCT     C110333  13.356  15.606  12.958  0.1056 -0.1745 -0.2933
 5167OCT     C210334  13.163  15.399  13.331 -0.0266 -0.3148  0.0312
 5168OCT     C110335   9.005   5.465  13.744  0.3145 -0.3103  0.0790
 5168OCT     C210336   9.378   5.339  13.959 -0.1675  0.0066  0.0228
 5169OCT     C110337  15.358  10.855  14.046 -0.3826 -0.1609  0.3192
 5169OCT     C210338  15.680  11.144  13.842 -0.0033 -0.1515  0.1636
 5170OCT     C110339  16.239   3.307  21.890 -0.1101  0.2958 -0.0311
 5170OCT     C210340  16.685   3.275  21.916 -0.4203  0.1686  0.0611
 5171OCT     C110341  15.487  10.314  13.170  0.3270  0.3512 -0.1669
 5171OCT     C210342  15.727  10.649  13.353  0.1299 -0.1920 -0.0213
 5172OCT     C110343  18.661   9.840   5.348  0.1525 -0.0874  0.3204
 5172OCT     C210344  18.712  10.273   5.419  0.0787 -0.0974 -0.0547
 5173OCT     C110345  23.312   3.217  10.583 -0.2210  0.0492  0.0354
 5173OCT     C210346  23.178   2.788  10.328  0.1722 -0.1754  0.2542
 5174OCT     C110347  15.981   6.969  22.993  0.3005 -0.1484  0.3789
 5174OCT     C210348  15.948   7.421  22.859 -0.0943  0.2376 -0.0863
 5175OCT     C110349  19.517   1.867  18.255  0.1004  0.0060 -0.1871
 5175OCT     C210350  19.488   2.185  17.935 -0.1008  0.0815 -0.1417
 5176OCT     C110351   9.342   4.556   6.945  0.1792  0.0619 -0.1630
 5176OCT     C210352   9.642   4.230   6.782  0.0099  0.0548  0.2358
 5177OCT     C110353   3.656  17.167   3.578 -0.1817  0.5399 -0.0756
 5177OCT     C210354   3.162  17.080   3.544  0.3639 -0.3050 -0.2607
 5178OCT     C110355  13.675  21.595  17.028  0.0309 -0.0821  0.2840
 5178OCT     C210356  14.084  21.508  16.972 -0.1631 -0.1656  0.1249
 5179OCT     C110357  20.743   1.368  20.569  0.2261 -0.3050 -0.1484
 5179OCT     C210358  21.152   1.284  20.658 -0.1014 -0.1130 -0.1356
 5180OCT     C110359  10.166  17.838  11.333 -0.1763 -0.4859 -0.0010
 5180OCT     C210360   9.896  17.723  11.666  0.0398 -0.1339  0.0586
 5181OCT     C110361  20.114   7.242  15.022 -0.2358  0.0445  0.1271
 5181OCT     C210362  20.514   7.302  15.312 -0.0869 -0.1736  0.1042
 5182OCT     C110363   6.575   0.528   8.307  0.3451 -0.2455  0.0686
 5182OCT     C210364   6.788   0.755   7.976 -0.0593  0.2131  0.1856
 5183OCT     C110365   7.904  23.401  20.809 -0.1744  0.4667 -0.0142
 5183OCT     C210366   7.884  23.401  21.256  0.3215 -0.0688  0.1420
 5184OCT     C110367  21.383   0.420  19.656 -0.1214 -0.1800 -0.0558
 5184OCT     C210368  21.145   0.800  19.810 -0.0252  0.1137 -0.1493
 5185OCT     C110369  15.279  21.075   3.169 -0.4256  0.0256 -0.2994
 5185OCT     C210370  14.996  21.438   3.275 -0.0180 -0.0143  0.0937
 5186OCT     C110371  22.293  13.829  13.754 -0.0620 -0.2804 -0.3025
 5186OCT     C210372  22.430  14.173  13.421 -0.1878  0.1415  0.0356
 5187OCT     C110373   5.453   3.862  18.090 -0.3896  0.1913 -0.2675
 5187OCT     C210374   5.510   3.453  18.343 -0.5676 -0.0324 -0.0126
 5188OCT     C110375  21.720   8.384  21.273 -0.2760  0.0883  0.1196
 5188OCT     C210376  22.047   8.168  21.033 -0.1412  0.0722  0.1253
 5189OCT     C110377  15.509  17.500   9.560  0.1147  0.7575 -0.0362
 5189OCT     C210378  15.571  17.377   9.965  0.0272  0.0534  0.0043
 5190OCT     C110379  21.243  16.484  18.974 -0.0621 -0.0665 -0.1591
 5190OCT     C210380  21.083  16.541  19.407  0.0799  0.0215 -0.2945
 5191OCT     C110381   4.906  13.696  22.010  0.0629  0.0548 -0.2224
 5191OCT     C210382   5.095  13.969  21.675  0.0094 -0.0263 -0.3631
 5192OCT     C110383   0.087  23.511   7.764 -0.0784 -0.1457 -0.3273
 5192OCT     C210384   0.263   0.130   7.572 -0.3211  0.3288 -0.1551
 5193OCT     C110385   0.660  11.968  11.147 -0.0686 -0.0491  0.1047
 5193OCT     C210386   0.509  11.857  10.728  0.0224  0.3701 -0.0348
 5194OCT     C110387  21.814  12.961  17.768  0.0210  0.1118 -0.0239
 5194OCT     C210388  22.294  13.031  17.792  0.1021 -0.1310  0.2787
 5195OCT     C110389  16.505   4.404  10.219 -0.0006  0.1333  0.1579
 5195OCT     C210390  16.156   4.523   9.915 -0.0689  0.1731 -0.1026
 5196OCT     C110391  11.915   4.610   2.479 -0.1886  0.2226 -0.3643
 5196OCT     C210392  11.695   4.810   2.132  0.1346 -0.1387  0.3447
 5197OCT     C110393  21.170  13.744  20.353 -0.1809 -0.1314 -0.2875
 5197OCT     C210394  20.965  13.460  20.649  0.0645  0.0356  0.1437
 5198OCT     C110395   9.789  15.013   4.136 -0.2505 -0.3672 -0.1906
 5198OCT     C210396   9.861  15.476   4.183 -0.3223  0.1749  0.1869
 5199OCT     C110397   9.575   2.823   6.526 -0.1032  0.2520 -0.0314
 5199OCT     C210398   9.852   2.484   6.764 -0.4497 -0.1294  0.0685
 5200OCT     C110399  12.524   4.595  15.712 -0.1990  0.0357  0.2289
 5200OCT     C210400  12.862   4.918  15.676  0.0668 -0.0373  0.1779
 5201OCT     C110401   0.662   2.572   9.221 -0.1398 -0.4354 -0.0433
 5201OCT     C210402   1.109   2.609   9.133  0.1011  0.1064 -0.2566
 5202OCT     C110403   3.955   5.803   7.028 -0.0714  0.0243 -0.1698
 5202OCT     C210404   3.503   5.961   7.119  0.2212  0.0136  0.0484
 5203OCT     C110405  10.929  10.807  14.055  0.5048 -0.2545  0.1169
 5203OCT     C210406  10.661  10.408  14.037  0.0938  0.1278  0.2409
 5204OCT     C110407   7.952  21.180   0.137 -0.2380 -0.4337 -0.2284
 5204OCT     C210408   7.594  21.407  23.638  0.1935  0.0503 -0.0870
 5205OCT     C110409  14.243   1.265   4.194 -0.0306 -0.3477  0.0947
 5205OCT     C210410  13.976   1.407   4.553 -0.0055  0.0907  0.0596
 5206OCT     C110411  16.920  16.846  13.527 -0.5771  0.6068 -0.1983
 5206OCT     C210412  17.393  16.825  13.487 -0.2119 -0.2197  0.2918
 5207OCT     C110413   8.344  11.363   7.734 -0.3389  0.2457 -0.1687
 5207OCT     C210414   8.294  10.985   7.957  0.2682  0.3347 -0.2507
 5208OCT     C110415   9.827  17.957   4.943  0.0792 -0.2489 -0.0462
 5208OCT     C210416   9.962  18.339   4.839  0.1336  0.0728 -0.1320
 5209OCT     C110417  12.515   9.197  18.291  0.3627 -0.2895 -0.2264
 5209OCT     C210418  12.341   9.497  18.611 -0.0224 -0.1672 -0.2141
 5210OCT     C110419   7.361  19.112   0.822 -0.0564 -0.0108  0.2715
 5210OCT     C210420   6.891  19.116   0.864 -0.1850  0.0238 -0.1402
 5211OCT     C110421   8.616  17.079  21.428 -0.1247 -0.3863  0.3684
 5211OCT     C210422   8.318  16.760  21.238  0.0138  0.1522  0.0175
 5212OCT     C110423  22.696  19.727   4.559  0.0798  0.0119  0.1484
 5212OCT     C210424  22.301  19.943   4.502  0.0873  0.1450  0.0595
 5213OCT     C110425  18.287   9.414  11.080 -0.3164 -0.0677  0.1145
 5213OCT     C210426  18.148   9.764  10.791  0.1815  0.1578 -0.0470
 5214OCT     C110427  18.410  20.268  19.773 -0.2512  0.1226 -0.2174
 5214OCT     C210428  18.110  20.611  19.696  0.0063  0.0946 -0.2308
 5215OCT     C110429  13.317   1.225  21.495  0.2691  0.1151  0.0426
 5215OCT     C210430  13.677   1.422  21.270 -0.1325 -0.0982  0.0986
 5216OCT     C110431  15.206  22.695  12.814 -0.1483 -0.1541  0.1310
 5216OCT     C210432  15.091  22.989  13.159 -0.0221  0.2601 -0.1673
 5217OCT     C110433   8.526  12.492   8.078 -0.2907 -0.0599  0.4093
 5217OCT     C210434   8.213  12.169   7.942  0.0166 -0.0307 -0.0708
 5218OCT     C110435  23.724   5.560  20.009 -0.1171  0.2473 -0.1436
 5218OCT     C210436  23.343   5.353  20.169  0.3337 -0.2081  0.1186
 5219OCT     C110437   2.587  15.094  18.959 -0.1275  0.1761  0.0544
 5219OCT     C210438   2.575  15.569  19.111  0.1648  0.2701  0.1091
 5220OCT     C110439  15.472  12.686   3.465 -0.2595 -0.2683 -0.1563
 5220OCT     C210440  14.992  12.776   3.484 -0.0710 -0.4297  0.1659
 5221OCT     C110441   6.106  21.552  19.084  0.1684 -0.0440 -0.1825
 5221OCT     C210442   6.202  21.396  18.664  0.2295 -0.2657  0.1161
 5222OCT     C110443  16.471   8.089   4.596 -0.2592 -0.2293 -0.4124
 5222OCT     C210444  16.312   8.385   4.283 -0.2871 -0.0925 -0.3687
 5223OCT     C110445   6.612   8.181   6.569 -0.4972 -0.3287  0.1750
 5223OCT     C210446   6.225   8.388   6.513 -0.0352  0.2827 -0.0853
 5224OCT     C110447   5.399  11.543   0.125 -0.5713  0.1003 -0.3690
 5224OCT     C210448   4.999  11.757   0.271 -0.1399 -0.1936 -0.2491
 5225OCT     C110449  22.003   9.022   5.321  0.1780 -0.1868 -0.1277
 5225OCT     C210450  21.827   9.162   4.941 -0.0137 -0.1677  0.4374
 5226OCT     C110451  16.740   3.387  20.043  0.1903  0.3624  0.2331
 5226OCT     C210452  16.657   3.780  20.172 -0.1029 -0.3441  0.0132
 5227OCT     C110453   1.980   5.125  17.457  0.1115  0.0138  0.2465
 5227OCT     C210454   1.635   4.863  17.635  0.3540  0.1745  0.0008
 5228OCT     C110455   3.319  12.631   8.417 -0.0440 -0.1518  0.0657
 5228OCT     C210456   3.138  12.479   8.019  0.1893  0.0037 -0.0801
 5229OCT     C110457  21.827   4.385  14.759 -0.0137  0.2876  0.3916
 5229OCT     C210458  21.482   4.192  14.509  0.0259 -0.3768  0.0999
 5230OCT     C110459  10.019  18.941  15.496  0.2371 -0.0682 -0.2270
 5230OCT     C210460  10.467  19.057  15.595  0.0173  0.2201  0.1150
 5231OCT     C110461  19.458  20.011  19.668 -0.3618 -0.0947  0.0549
 5231OCT     C210462  19.673  20.408  19.546 -0.4867 -0.2229  0.4577
 5232OCT     C110463   1.483  12.193   3.132 -0.1182 -0.1006  0.0111
 5232OCT     C210464   1.161  12.450   3.410 -0.2158  0.0086  0.0741
 5233OCT     C110465   1.779   3.051   9.184 -0.0264  0.0791 -0.0605
 5233OCT     C210466   2.137   3.335   9.187  0.0821  0.3584  0.0957
 5234OCT     C110467   6.543  23.064   7.708  0.0658  0.2522 -0.3826
 5234OCT     C210468   6.794  23.363   7.896  0.0907 -0.1851 -0.2934
 5235OCT     C110469   0.644  11.397   4.735  0.2672  0.1709  0.0625
 5235OCT     C210470   0.707  11.364   5.198 -0.0980  0.0606  0.0597
 5236OCT     C110471   2.879   6.805   3.952  0.0525 -0.1397  0.2194
 5236OCT     C210472   3.160   7.139   3.713 -0.0909  0.2103  0.0680
 5237OCT     C110473  21.178   0.037  11.091 -0.0071  0.1855  0.0264
 5237OCT     C210474  20.733  23.672  11.142 -0.0189  0.0979 -0.1551
 5238OCT     C110475  21.265  15.936  14.728 -0.0302  0.1396 -0.0090
 5238OCT     C210476  21.234  15.642  15.107 -0.2731  0.0302  0.1386
 5239OCT     C110477   0.178  18.449  15.552 -0.0043 -0.1024 -0.3144
 5239OCT     C210478   0.507  18.773  15.765 -0.2736  0.3349  0.1613
 5240OCT     C110479   5.528   5.016  12.714 -0.3048  0.1848 -0.2296
 5240OCT     C210480   5.465   4.564  12.582  0.1761 -0.1444 -0.2139
 5241OCT     C110481  20.504  12.860   5.348 -0.1350  0.0463  0.0988
 5241OCT     C210482  20.607  13.222   5.066  0.0362  0.3370  0.2244
 5242OCT     C110483  16.784   3.409  19.052  0.0097 -0.0431 -0.2283
 5242OCT     C210484  16.548   3.274  19.404 -0.2656  0.3560  0.2228
 5243OCT     C110485  16.703  18.754  14.111 -0.1279 -0.1421  0.1608
 5243OCT     C210486  16.679  19.145  13.812  0.1523  0.0401 -0.3826
 5244OCT     C110487  17.804   9.150  12.316 -0.2541 -0.0010 -0.0259
 5244OCT     C210488  17.494   8.851  12.265 -0.1244  0.2087  0.1419
 5245OCT     C110489   7.048   5.859  14.301  0.1910  0.0716  0.0493
 5245OCT     C210490   7.425   6.165  14.429  0.0472  0.2213  0.0249
 5246OCT     C110491   0.361  11.400   6.875  0.0251  0.1543 -0.1271
 5246OCT     C210492   0.398  10.978   6.666 -0.0668 -0.3002 -0.2151
 5247OCT     C110493  17.533   8.634   3.427 -0.0918 -0.5076  0.0162
 5247OCT     C210494  17.079   8.619   3.579  0.2368  0.0943  0.2037
 5248OCT     C110495  19.065   9.609   6.915 -0.0950 -0.0034  0.1674
 5248OCT     C210496  18.681   9.399   6.991  0.4286 -0.0211 -0.2009
 5249OCT     C110497  12.740  20.000  18.701  0.1650 -0.0713  0.1110
 5249OCT     C210498  12.666  20.265  19.141  0.2271  0.0596 -0.0689
 5250OCT     C110499  15.683  19.806  22.233 -0.0334 -0.0638  0.2845
 5250OCT     C210500  15.233  19.888  21.983 -0.4293  0.2648 -0.3772
 5251OCT     C110501  15.170  18.417   2.411  0.2174  0.0758  0.3204
 5251OCT     C210502  15.172  17.971   2.227 -0.4049 -0.2784  0.0397
 5252OCT     C110503   2.314  12.912   8.963 -0.0580  0.4024  0.0062
 5252OCT     C210504   2.522  12.573   9.010  0.2257 -0.1671  0.0150
 5253OCT     C110505   8.721  13.292  17.375  0.1545 -0.1379 -0.1189
 5253OCT     C210506   8.876  13.351  16.952  0.0108 -0.5165 -0.1383
 5254OCT     C110507   7.303  20.409  21.786  0.3901  0.1075  0.1405
 5254OCT     C210508   7.621  20.718  21.837  0.1280 -0.0442 -0.0791
 5255OCT     C110509  20.329  18.354  10.433  0.2220  0.0425 -0.2185
 5255OCT     C210510  20.121  18.077  10.095 -0.0073  0.2289  0.1074
 5256OCT     C110511   0.063  18.703  16.020  0.3263 -0.2503  0.3407
 5256OCT     C210512  23.629  18.453  16.388 -0.0592 -0.1259 -0.1144
 5257OCT     C110513   7.974   9.455   8.884  0.3971  0.0199 -0.0141
 5257OCT     C210514   7.846   9.018   9.025 -0.1493 -0.1721  0.0562
 5258OCT     C110515  11.697   0.019  12.695  0.4476  0.0888  0.1306
 5258OCT     C210516  11.231  23.571  12.729  0.0216  0.2545  0.4744
 5259OCT     C110517  10.583   8.357  16.878  0.0587  0.1315 -0.2430
 5259OCT     C210518  10.912   8.167  16.644  0.1790 -0.1909 -0.1336
 5260OCT     C110519  19.977  21.205  23.543 -0.1590  0.0076  0.2882
 5260OCT     C210520  20.380  21.186   0.050 -0.0931  0.0835 -0.0984
 5261OCT     C110521   9.062  17.977   6.143  0.0791  0.0055  0.1797
 5261OCT     C210522   8.651  17.880   6.318 -0.1302  0.0715 -0.0677
 5262OCT     C110523  15.437   9.819   9.258  0.2130 -0.0565 -0.1661
 5262OCT     C210524  15.326   9.598   9.632  0.1281 -0.1970 -0.0381
 5263OCT     C110525  19.989  23.323   7.639 -0.0263 -0.0919 -0.1845
 5263OCT     C210526  20.040   0.007   7.444 -0.3380 -0.0724  0.0015
 5264OCT     C110527   4.864   8.216   2.552  0.0256  0.0227  0.2510
 5264OCT     C210528   4.671   7.779   2.668  0.1980  0.0995  0.1914
 5265OCT     C110529  21.964  13.768   1.224 -0.1361 -0.1943 -0.1195
 5265OCT     C210530  22.200  13.654   1.619 -0.6634  0.1715  0.1993
 5266OCT     C110531  12.736  10.877  17.566  0.1271 -0.0763  0.3450
 5266OCT     C210532  12.472  11.186  17.387  0.1808 -0.0207  0.0815
 5267OCT     C110533  18.271  16.021   7.332 -0.1391 -0.0409 -0.0770
 5267OCT     C210534  18.407  16.487   7.414 -0.0897 -0.0791  0.1011
 5268OCT     C110535  22.639  23.622  15.859  0.3597  0.0434  0.2063
 5268OCT     C210536  22.297  23.509  16.146  0.0563  0.3028  0.1331
 5269OCT     C110537   2.311  14.170   9.735 -0.0019  0.0061  0.3396
 5269OCT     C210538   2.456  13.832   9.426  0.0479  0.6204  0.1665
 5270OCT     C110539   7.990   7.753  11.828  0.1491 -0.1150  0.0389
 5270OCT     C210540   7.925   8.004  12.253  0.0406 -0.1836 -0.0717
 5271OCT     C110541   8.707   6.108   3.132  0.0398  0.1477 -0.2519
 5271OCT     C210542   9.072   5.813   3.242  0.0695 -0.0557  0.2716
 5272OCT     C110543   1.742   6.666  11.294 -0.0452  0.0638  0.2138
 5272OCT     C210544   1.527   6.245  11.553  0.0024 -0.1289 -0.3066
 5273OCT     C110545  23.661  13.259  20.262  0.0643 -0.0961  0.0204
 5273OCT     C210546   0.096  12.991  20.590 -0.4919 -0.1828 -0.1151
 5274OCT     C110547  14.999  13.823  11.239  0.1606 -0.0623  0.1043
 5274OCT     C210548  14.697  13.802  10.881 -0.2703  0.2427 -0.1788
 5275OCT     C110549  14.089   7.774  11.358 -0.0797 -0.1649  0.0507
 5275OCT     C210550  13.827   7.775  11.706  0.1059  0.3396  0.0438
 5276OCT     C110551  12.539   2.452  20.660  0.2664 -0.0590 -0.1284
 5276OCT     C210552  12.318   2.162  21.052  0.4076  0.0066  0.0879
 5277OCT     C110553   5.661  21.332   0.504 -0.1445 -0.0417 -0.0883
 5277OCT     C210554   5.520  21.811   0.344  0.3129 -0.1315  0.0507
 5278OCT     C110555  11.579  23.398   4.340 -0.0516  0.2001 -0.1364
 5278OCT     C210556  11.274  23.525   4.608  0.1318 -0.2186  0.0941
 5279OCT     C110557  22.399  10.935  22.282 -0.2147 -0.0108  0.2737
 5279OCT     C210558  22.345  11.387  22.106  0.2845  0.0677  0.0795
 5280OCT     C110559   1.632   8.629   3.574 -0.3540 -0.4190 -0.1781
 5280OCT     C210560   1.964   8.812   3.336 -0.0554 -0.1939  0.1971
 5281OCT     C110561  11.743   6.730   0.437 -0.2088 -0.1383 -0.1147
 5281OCT     C210562  12.147   6.677   0.683  0.0752 -0.1485 -0.0268
 5282OCT     C110563   8.566  18.076   5.890  0.0054 -0.5323  0.0103
 5282OCT     C210564   8.302  18.039   5.541  0.2446 -0.1855 -0.2461
 5283OCT     C110565  12.579   7.451  16.081  0.3824 -0.2315 -0.0361
 5283OCT     C210566  12.671   7.878  16.047 -0.2766 -0.2288  0.4267
 5284OCT     C110567  17.978  20.272  16.856  0.3981  0.0698 -0.1008
 5284OCT     C210568  17.743  20.169  16.456  0.1729  0.0635 -0.0938
 5285OCT     C110569   7.972  18.831   9.880  0.2351 -0.0386  0.1511
 5285OCT     C210570   7.675  18.809   9.535  0.0738 -0.3973  0.1666
 5286OCT     C110571   4.620  21.300  17.809  0.1701  0.0858  0.0617
 5286OCT     C210572   4.677  20.937  17.587  0.0149 -0.0874 -0.1545
 5287OCT     C110573   8.376  15.154  19.482 -0.0906  0.0184 -0.0727
 5287OCT     C210574   8.066  15.491  19.639  0.2322 -0.0871 -0.1693
 5288OCT     C110575  12.086  18.145  21.988  0.1608  0.0673  0.0607
 5288OCT     C210576  12.320  18.207  21.550 -0.0989  0.2114 -0.3251
 5289OCT     C110577  17.539  15.892  22.996 -0.2696 -0.1490 -0.1753
 5289OCT     C210578  17.577  15.643  22.592  0.0711 -0.0458 -0.1643
 5290OCT     C110579   4.683  22.584  18.904  0.1140  0.4166 -0.0384
 5290OCT     C210580   4.703  23.008  19.141  0.2760  0.1181  0.1485
 5291OCT     C110581   6.649  21.105   4.369 -0.0876 -0.1907  0.0700
 5291OCT     C210582   6.793  20.664   4.352 -0.1290 -0.0978 -0.1749
 5292OCT     C110583  16.559  14.524   6.984 -0.3058  0.1444 -0.0674
 5292OCT     C210584  16.618  14.083   6.996 -0.1607 -0.2200 -0.1063
 5293OCT     C110585   4.112  10.320  21.061  0.2716  0.1952  0.0658
 5293OCT     C210586   3.918  10.667  21.391  0.4350 -0.0252  0.1415
 5294OCT     C110587   4.382  17.933  21.113 -0.1257  0.0793  0.0404
 5294OCT     C210588   4.325  18.378  20.920  0.0957 -0.0533  0.6009
 5295OCT     C110589   5.269  17.446   5.624  0.0940  0.0126  0.3012
 5295OCT     C210590   5.704  17.622   5.571  0.3044  0.0910  0.4003
 5296OCT     C110591   7.564  23.713  10.151  0.2022  0.0617 -0.0674
 5296OCT     C210592   7.413  23.639   9.656  0.1280 -0.0543 -0.0673
 5297OCT     C110593  11.492  10.911  14.537  0.1052  0.1049 -0.0482
 5297OCT     C210594  11.158  11.183  14.288 -0.1165 -0.2500  0.0957
 5298OCT     C110595  21.921   5.985  11.676 -0.1237 -0.4478 -0.1336
 5298OCT     C210596  21.795   6.084  11.236 -0.2401 -0.2715  0.1260
 5299OCT     C110597   0.959  14.156   1.831 -0.3418 -0.1656 -0.0982
 5299OCT     C210598   0.630  13.797   1.874 -0.2859 -0.1265  0.1354
 5300OCT     C110599  17.590  21.178  16.408  0.0112 -0.5072 -0.1675
 5300OCT     C210600  17.720  20.677  16.433 -0.2065  0.0846 -0.1251
 5301OCT     C110601   8.964  11.721  15.614  0.0988  0.1431  0.0799
 5301OCT     C210602   9.204  12.007  15.876 -0.4781 -0.1116  0.2590
 5302OCT     C110603  12.917  20.681  22.812 -0.0589  0.1015  0.3275
 5302OCT     C210604  12.764  21.104  22.824  0.1024  0.0002 -0.2201
 5303OCT     C110605   6.743  12.929   9.781 -0.4370  0.2621  0.0116
 5303OCT     C210606   6.877  13.177   9.455  0.1388 -0.0833 -0.2243
 5304OCT     C110607   7.022   8.072   1.305 -0.0808  0.2780 -0.2179
 5304OCT     C210608   7.262   7.816   1.589 -0.0083  0.1561 -0.1896
 5305OCT     C110609  23.252  17.522  19.848 -0.2337 -0.0868 -0.2998
 5305OCT     C210610  23.616  17.652  19.653 -0.1959  0.2761  0.1274
 5306OCT     C110611  11.815   5.301  11.204 -0.0153  0.0077 -0.2645
 5306OCT     C210612  11.385   5.451  11.341  0.0072 -0.5442  0.3183
 5307OCT     C110613  15.495  22.030  17.699 -0.1691  0.2263 -0.0661
 5307OCT     C210614  15.429  22.303  18.133  0.1980  0.2568 -0.1385
 5308OCT     C110615  15.200   1.439  12.000 -0.0404  0.1028  0.0430
 5308OCT     C210616  15.136   1.395  11.549  0.2839  0.2781 -0.2237
 5309OCT     C110617  20.118  15.446  15.739  0.0538 -0.3002 -0.2563
 5309OCT     C210618  20.351  15.490  15.330  0.1499  0.3071 -0.1920
 5310OCT     C110619  14.881   5.754  15.029 -0.1073  0.1707  0.0663
 5310OCT     C210620  14.804   6.083  14.705 -0.3747 -0.1186 -0.2906
 5311OCT     C110621   1.074  10.373   7.326 -0.0779  0.0912  0.2308
 5311OCT     C210622   0.977  10.098   6.983 -0.0260  0.2924 -0.0643
 5312OCT     C110623   6.651   7.692  17.257  0.4785  0.2023 -0.0836
 5312OCT     C210624   6.206   7.807  17.048 -0.2294 -0.0826  0.0016
 5313OCT     C110625   0.386   6.556   4.567  0.0273 -0.2554  0.0557
 5313OCT     C210626  23.659   6.328   4.671  0.4185 -0.0286 -0.1023
 5314OCT     C110627  20.826  10.555   0.940  0.1526 -0.0817  0.2727
 5314OCT     C210628  20.419  10.344   1.028  0.5786 -0.0998  0.2803
 5315OCT     C110629   4.697   8.760  13.829  0.1183  0.0708 -0.0552
 5315OCT     C210630   4.508   9.151  13.945  0.0597  0.1538 -0.1198
 5316OCT     C110631  20.862  21.328   0.130  0.2010 -0.0689 -0.2775
 5316OCT     C210632  20.733  21.184   0.586 -0.2986 -0.2584  0.1565
 5317OCT     C110633   0.319  17.264   5.627  0.0377  0.1048 -0.2074
 5317OCT     C210634   0.021  17.089   5.900 -0.1099  0.2121  0.1158
 5318OCT     C110635  17.468  22.180  18.463 -0.1460 -0.0175  0.1006
 5318OCT     C210636  17.110  22.089  18.686  0.0337 -0.1537 -0.2239
 5319OCT     C110637   7.127  12.563  22.231 -0.3226 -0.0846  0.3560
 5319OCT     C210638   6.846  12.214  22.395 -0.0191 -0.5851  0.0214
 5320OCT     C110639  16.939  13.340  22.720  0.2241 -0.3024  0.4487
 5320OCT     C210640  16.676  13.000  22.680 -0.1970 -0.1124 -0.2661
 5321OCT     C110641   5.025   1.564  13.675  0.0987 -0.1281  0.3923
 5321OCT     C210642   4.922   1.110  13.696  0.3150  0.3049 -0.0167
 5322OCT     C110643  17.015  17.140  14.745  0.0383 -0.0717  0.3654
 5322OCT     C210644  17.072  17.536  14.486  0.2777 -0.2906 -0.1607
 5323OCT     C110645  13.702   0.103  20.647  0.1359  0.2581  0.1159
 5323OCT     C210646  13.562  23.380  20.579  0.0414 -0.0134  0.0896
 5324OCT     C110647   5.822  12.772  22.441 -0.1995 -0.7276  0.0316
 5324OCT     C210648   5.481  12.393  22.458 -0.2303  0.2616  0.0095
 5325OCT     C110649  11.458  15.942   9.333  0.2890 -0.0671 -0.1445
 5325OCT     C210650  11.322  16.242   8.935 -0.2120 -0.1223  0.4009
 5326OCT     C110651   5.853  12.936  15.020 -0.3062  0.2017 -0.2533
 5326OCT     C210652   6.335  13.064  14.915  0.5071 -0.0098 -0.3236
 5327OCT     C110653   4.898  18.285  20.691  0.1944 -0.0501  0.1451
 5327OCT     C210654   5.060  18.633  20.475  0.0745 -0.1106 -0.0092
 5328OCT     C110655  19.540   2.198  23.113  0.0231 -0.0495  0.3187
 5328OCT     C210656  19.724   1.768  23.100  0.1223 -0.1494  0.1837
 5329OCT     C110657   8.163   3.194  12.696  0.0546  0.1070  0.1049
 5329OCT     C210658   8.516   3.334  12.863 -0.1549  0.0262 -0.1731
 5330OCT     C110659   9.252   3.532   7.624 -0.1320 -0.3459  0.2526
 5330OCT     C210660   8.792   3.379   7.498 -0.0613  0.1706 -0.1158
 5331OCT     C110661   8.192  14.289  22.218  0.0161 -0.2006  0.1556
 5331OCT     C210662   7.904  13.890  22.247  0.1269 -0.0292 -0.0771
 5332OCT     C110663   8.860  21.043   5.493 -0.0366  0.1008  0.0778
 5332OCT     C210664   9.085  21.133   5.092  0.0941  0.1624 -0.0410
 5333OCT     C110665  14.870  13.819   3.394  0.5306  0.2581 -0.3319
 5333OCT     C210666  15.228  13.584   3.334 -0.4019  0.7167 -0.1639
 5334OCT     C110667  17.376   3.828  16.895  0.1202 -0.0735 -0.4094
 5334OCT     C210668  17.107   4.170  16.843  0.0495 -0.0164  0.0464
 5335OCT     C110669  22.860   5.541  12.632  0.1552  0.0463 -0.2712
 5335OCT     C210670  22.564   5.108  12.512  0.2191 -0.1302  0.2301
 5336OCT     C110671  11.513  21.816  19.365 -0.2128 -0.1178  0.2121
 5336OCT     C210672  11.200  21.565  19.161 -0.1642 -0.1561 -0.4574
 5337OCT     C110673   1.527   8.912   8.291 -0.2052  0.1389  0.0624
 5337OCT     C210674   1.639   8.662   8.683  0.0533  0.0314  0.0252
 5338OCT     C110675   8.903  15.501  10.688 -0.1390  0.0288 -0.2834
 5338OCT     C210676   9.129  15.350  10.250 -0.2063  0.0331 -0.0141
 5339OCT     C110677   2.442  21.614   7.728 -0.1709 -0.0912  0.0570
 5339OCT     C210678   1.990  21.419   7.621 -0.3113  0.0225  0.3089
 5340OCT     C110679  21.276   1.161   3.519  0.2966 -0.2401 -0.3114
 5340OCT     C210680  21.128   1.067   3.084 -0.1908 -0.0217 -0.1973
 5341OCT     C110681  17.461  16.917   2.958  0.2879 -0.2672 -0.0632
 5341OCT     C210682  17.608  16.879   3.357  0.3498  0.0450 -0.2738
 5342OCT     C110683  16.765   8.718  21.566 -0.1578  0.1825 -0.2412
 5342OCT     C210684  17.014   8.944  21.857 -0.1992  0.1301  0.2718
 5343OCT     C110685  15.612   0.980  17.710 -0.1201  0.2505 -0.0739
 5343OCT     C210686  15.282   1.178  17.976 -0.0807 -0.1046  0.3812
 5344OCT     C110687   5.475   5.266   9.274  0.5201 -0.1902  0.0994
 5344OCT     C210688   5.891   5.211   9.140  0.1446  0.1839 -0.0697
 5345OCT     C110689  12.685   0.304   7.231  0.1153 -0.0679 -0.2711
 5345OCT     C210690  12.822   0.731   7.221 -0.0978 -0.0842 -0.1400
 5346OCT     C110691   6.867   7.592  23.495 -0.2140  0.1772  0.0766
 5346OCT     C210692   6.605   7.507  23.146  0.0900 -0.3163  0.1262
 5347OCT     C110693   3.937   9.677  22.563 -0.2757  0.2321 -0.5168
 5347OCT     C210694   3.927   9.631  22.143 -0.0351 -0.2189  0.2375
 5348OCT     C110695   9.915   8.940  16.849  0.1400 -0.0103  0.0735
 5348OCT     C210696   9.592   8.556  16.910  0.1755  0.1380  0.1449
 5349OCT     C110697  23.351   7.859   7.913  0.1599  0.2987 -0.1651
 5349OCT     C210698  23.212   7.957   8.344  0.3216 -0.0473 -0.0294
 5350OCT     C110699  12.867   9.995  20.351  0.0043  0.1084 -0.1641
 5350OCT     C210700  12.708  10.372  20.094  0.1088  0.0719 -0.1077
 5351OCT     C110701   2.728  21.498  16.827 -0.0384 -0.1602 -0.1456
 5351OCT     C210702   2.808  21.370  16.388 -0.0199  0.3418 -0.1379
 5352OCT     C110703  10.804  20.197  13.303 -0.1764 -0.3771 -0.0573
 5352OCT     C210704  10.818  20.468  12.940  0.2037 -0.4291  0.6139
 5353OCT     C110705  17.189  10.084  18.456 -0.0117 -0.0414  0.0635
 5353OCT     C210706  17.255  10.523  18.661  0.1939  0.0021  0.1629
 5354OCT     C110707  14.156  15.137   7.457 -0.1050  0.1596 -0.2857
 5354OCT     C210708  14.421  15.491   7.659 -0.0248  0.1037  0.0437
 5355OCT     C110709   3.835   9.342   6.755  0.0745  0.1187  0.0848
 5355OCT     C210710   3.860   9.280   6.252 -0.4671 -0.2926 -0.4778
 5356OCT     C110711   0.722  18.464  10.717  0.1374 -0.1718 -0.1348
 5356OCT     C210712   0.606  18.005  10.859  0.2789  0.3140  0.1363
 5357OCT     C110713   9.764   1.891  15.011 -0.0492  0.1697  0.2076
 5357OCT     C210714   9.470   1.542  14.937 -0.2086  0.1624 -0.0818
 5358OCT     C110715   0.366  11.027   8.477 -0.0605  0.3490 -0.2267
 5358OCT     C210716   0.597  11.413   8.635  0.0811 -0.0536  0.2982
 5359OCT     C110717  15.525  14.217   5.128 -0.1763 -0.3644 -0.1076
 5359OCT     C210718  15.572  13.842   5.287 -0.1112  0.1471  0.1238
 5360OCT     C110719   4.880   6.084  15.835  0.1484 -0.1810 -0.2845
 5360OCT     C210720   4.966   5.638  15.736  0.0084  0.0134  0.5442
 5361OCT     C110721   3.320  18.074  16.016  0.1456  0.2744 -0.2939
 5361OCT     C210722   3.529  18.102  15.594 -0.2392 -0.1201 -0.0684
 5362OCT     C110723   7.455  12.272   5.876  0.0044  0.0037 -0.1147
 5362OCT     C210724   7.473  12.090   6.321 -0.2618  0.4127  0.3834
 5363OCT     C110725  17.666   9.015   8.410 -0.3536  0.0583  0.0914
 5363OCT     C210726  17.848   9.351   8.127 -0.7421 -0.0546  0.1064
 5364OCT     C110727  10.446   4.563  20.060  0.2250 -0.1101 -0.1566
 5364OCT     C210728  10.659   4.960  20.166 -0.1621  0.3029 -0.0901
 5365OCT     C110729  16.169  10.036  17.744  0.1635 -0.1529 -0.0788
 5365OCT     C210730  16.533   9.983  18.044  0.0396  0.1074  0.1388
 5366OCT     C110731  13.343  11.571   3.729 -0.2955  0.0752  0.0057
 5366OCT     C210732  13.597  11.881   3.562 -0.2097 -0.7380 -0.0292
 5367OCT     C110733  14.726   4.988   9.829 -0.0267  0.3354 -0.2757
 5367OCT     C210734  14.443   4.960   9.509 -0.0791 -0.1436  0.1928
 5368OCT     C110735   4.566   4.423  21.607  0.3146 -0.1689  0.1123
 5368OCT     C210736   4.441   4.693  21.239 -0.3054 -0.1093  0.1871
 5369OCT     C110737  19.369   1.909   9.927 -0.0556 -0.0750 -0.1548
 5369OCT     C210738  19.046   2.172   9.721 -0.3271  0.5398 -0.0452
 5370OCT     C110739   9.976   2.951   0.077 -0.3530  0.2417 -0.1732
 5370OCT     C210740   9.554   3.106   0.099 -0.3610  0.0630  0.4112
 5371OCT     C110741   4.468  15.204  20.080  0.0441  0.0529 -0.0607
 5371OCT     C210742   4.526  14.736  20.041 -0.1872  0.0152  0.0211
 5372OCT     C110743  15.427  10.617   6.755  0.0188  0.1552  0.0237
 5372OCT     C210744  15.197  10.728   6.390  0.2633 -0.2638  0.3568
 5373OCT     C110745  22.936  15.514  20.346 -0.2843  0.1622  0.1065
 5373OCT     C210746  23.158  15.384  20.797  0.1690 -0.3091 -0.1423
 5374OCT     C110747  12.916   4.271  16.243  0.1071  0.5094 -0.1524
 5374OCT     C210748  12.584   3.931  16.132 -0.1007 -0.2409 -0.1727
 5375OCT     C110749   2.485   5.119  20.850 -0.1150 -0.1357 -0.2362
 5375OCT     C210750   2.416   4.655  20.716 -0.3352  0.1212  0.3227
 5376OCT     C110751  16.328  17.706   8.258 -0.2442  0.0783 -0.3147
 5376OCT     C210752  16.760  17.499   8.316  0.0313  0.1623  0.1352
 5377OCT     C110753  16.466   6.141  17.730 -0.2019  0.2607 -0.0844
 5377OCT     C210754  16.564   6.398  17.348  0.0415  0.0882  0.0630
 5378OCT     C110755  23.462  21.735  21.968 -0.1165 -0.1364  0.0887
 5378OCT     C210756  23.267  21.764  21.553 -0.0954 -0.2330 -0.0011
 5379OCT     C110757  13.032   5.511   3.246  0.2306 -0.1230 -0.0687
 5379OCT     C210758  13.265   5.392   2.827  0.0517  0.1558  0.1269
 5380OCT     C110759  18.792   7.919  22.303  0.2461 -0.1100  0.3641
 5380OCT     C210760  18.963   7.929  22.757  0.0753  0.0018 -0.1822
 5381OCT     C110761   2.302  19.272  19.449  0.3262  0.3238 -0.0553
 5381OCT     C210762   1.909  19.461  19.548 -0.0129 -0.1091  0.0014
 5382OCT     C110763   2.607   8.687  13.701 -0.3569  0.2895  0.0524
 5382OCT     C210764   2.278   8.697  13.365  0.2477  0.0044 -0.5118
 5383OCT     C110765   3.893  22.827  14.689  0.3832  0.1916  0.0160
 5383OCT     C210766   3.800  23.256  14.643 -0.0932 -0.3257  0.1937
 5384OCT     C110767   7.874  21.841   4.144 -0.4000 -0.0681  0.1556
 5384OCT     C210768   8.076  22.204   3.917 -0.3729 -0.1697 -0.0671
 5385OCT     C110769   3.478  17.302   9.549 -0.0558  0.1029 -0.0831
 5385OCT     C210770   3.144  17.594   9.668 -0.0219  0.2382 -0.2789
 5386OCT     C110771   6.162  17.613   9.082  0.0319 -0.3352  0.1927
 5386OCT     C210772   5.982  17.402   9.496  0.1900  0.1634 -0.2478
 5387OCT     C110773  12.914  12.599  21.480  0.0912 -0.3102 -0.2364
 5387OCT     C210774  12.749  12.401  21.090  0.2400 -0.1518 -0.2549
 5388OCT     C110775  14.193  18.350   7.449  0.0533  0.1567  0.1591
 5388OCT     C210776  13.743  18.407   7.544 -0.1588  0.2547 -0.0140
 5389OCT     C110777  22.558   3.376   5.766 -0.0582  0.1922 -0.2193
 5389OCT     C210778  22.174   3.097   5.701  0.0904 -0.0296  0.0492
 5390OCT     C110779   6.606  18.232   7.164  0.3448 -0.0800 -0.5083
 5390OCT     C210780   6.673  18.197   6.716  0.1751  0.0219  0.4043
 5391OCT     C110781   8.602  15.014  13.655 -0.2414  0.1032 -0.1985
 5391OCT     C210782   8.831  14.606  13.806 -0.2890  0.0062 -0.1425
 5392OCT     C110783   6.012  12.554  19.703  0.0507  0.1223 -0.0104
 5392OCT     C210784   6.333  12.903  19.836  0.2954  0.1211  0.1307
 5393OCT     C110785  21.153  23.496   4.403  0.0449  0.2568 -0.3274
 5393OCT     C210786  21.238  23.395   3.978  0.3268  0.0161 -0.1624
 5394OCT     C110787  12.385  13.827  21.152  0.0009 -0.3233 -0.1315
 5394OCT     C210788  12.812  13.829  21.009  0.0430 -0.0297  0.5009
 5395OCT     C110789  17.573   4.929   3.183  0.0520  0.0493  0.2143
 5395OCT     C210790  17.508   4.732   2.853  0.1556 -0.3739  0.1019
 5396OCT     C110791  22.233  13.717   6.149 -0.2440 -0.1193  0.0490
 5396OCT     C210792  22.051  13.655   6.610 -0.3240  0.1097  0.0285
 5397OCT     C110793  13.333  19.909  19.811 -0.0982 -0.3303 -0.3013
 5397OCT     C210794  12.901  20.040  20.005 -0.3196 -0.0421 -0.1292
 5398OCT     C110795   5.319  21.460  21.065 -0.2544 -0.0129  0.1891
 5398OCT     C210796   5.125  21.700  21.430  0.0071  0.1649  0.0841
 5399OCT     C110797  22.695   5.263  23.489 -0.0926 -0.0047 -0.3292
 5399OCT     C210798  22.396   5.140   0.075  0.0810  0.3080 -0.0916
 5400OCT     C110799  21.964   6.721   5.061  0.0010 -0.0982  0.0536
 5400OCT     C210800  21.687   6.687   4.645  0.2559 -0.1427 -0.1471
 5401OCT     C110801   2.228  23.111   0.559 -0.0839 -0.1520 -0.0505
 5401OCT     C210802   2.313  22.669   0.287  0.1285 -0.3205  0.2269
 5402OCT     C110803  14.799   2.324  22.008 -0.2389 -0.1201 -0.1787
 5402OCT     C210804  14.686   2.471  21.593  0.2788  0.0792  0.1968
 5403OCT     C110805  12.607   5.164  10.660  0.0713  0.4123  0.1269
 5403OCT     C210806  12.513   5.604  10.550 -0.0134  0.0596  0.0379
 5404OCT     C110807  17.397  11.042   7.833 -0.2036 -0.1585 -0.0186
 5404OCT     C210808  16.936  10.939   7.879 -0.0391  0.2780  0.0114
 5405OCT     C110809   6.274  19.288  19.184 -0.2063 -0.4268  0.0254
 5405OCT     C210810   6.397  18.823  18.977 -0.1091 -0.1084 -0.2164
 5406OCT     C110811   6.419  15.828  19.521  0.0962  0.0635 -0.1496
 5406OCT     C210812   5.934  15.809  19.448 -0.0356 -0.1230  0.0129
 5407OCT     C110813  18.491   9.067  20.945  0.0227 -0.0083 -0.0479
 5407OCT     C210814  18.778   9.070  20.617  0.0287  0.0491  0.3464
 5408OCT     C110815   5.569  21.730  20.655  0.2912 -0.1041  0.1886
 5408OCT     C210816   5.931  21.982  20.779 -0.0822 -0.1758  0.2618
 5409OCT     C110817  20.868  14.501   9.760  0.2365 -0.0562  0.1390
 5409OCT     C210818  20.935  14.050   9.628 -0.1557 -0.2238  0.0033
 5410OCT     C110819   7.943   8.559  12.507 -0.1494 -0.0150 -0.2160
 5410OCT     C210820   8.262   8.797  12.778 -0.0156 -0.0451  0.2010
 5411OCT     C110821  17.578   7.201  22.104  0.1019  0.1838  0.2662
 5411OCT     C210822  17.792   7.145  21.647  0.0904  0.2942 -0.1250
 5412OCT     C110823  21.337   8.764  20.601  0.3487 -0.0235 -0.0459
 5412OCT     C210824  21.321   9.207  20.468 -0.0835  0.1809 -0.0458
 5413OCT     C110825   4.521  16.889   5.998  0.3589  0.0896 -0.0100
 5413OCT     C210826   4.329  16.947   5.550  0.2062 -0.4626  0.4417
 5414OCT     C110827  15.320  19.489  16.915  0.1540  0.1028 -0.1619
 5414OCT     C210828  15.508  19.183  16.661 -0.3184  0.1940  0.3799
 5415OCT     C110829   1.882  15.358   4.705 -0.1685  0.0792 -0.0090
 5415OCT     C210830   1.926  15.806   4.759  0.0558 -0.2112  0.3846
 5416OCT     C110831  23.261  12.404  10.817  0.2273  0.3823 -0.0760
 5416OCT     C210832  22.976  12.493  10.389 -0.2317  0.2063  0.0141
 5417OCT     C110833  10.841  21.281  18.892  0.2077  0.2676  0.0263
 5417OCT     C210834  11.155  21.500  18.584  0.1152  0.2311  0.2251
 5418OCT     C110835  21.443   3.900  10.865 -0.1873 -0.2777 -0.1681
 5418OCT     C210836  21.078   3.632  10.993  0.0525  0.2827  0.0969
 5419OCT     C110837  11.087  13.481  22.595  0.3303 -0.0909  0.1037
 5419OCT     C210838  10.741  13.743  22.663 -0.1168 -0.0997 -0.2359
 5420OCT     C110839  14.961  13.033  19.799 -0.4590  0.1191 -0.1453
 5420OCT     C210840  15.268  13.377  19.747 -0.1234 -0.1950  0.0663
 5421OCT     C110841  19.547   7.439  20.947 -0.0876 -0.0404 -0.2484
 5421OCT     C210842  19.205   7.230  20.707 -0.0770 -0.1828  0.0888
 5422OCT     C110843   1.317   3.265  17.226  0.2324 -0.4049 -0.1791
 5422OCT     C210844   1.334   2.797  17.364 -0.1120 -0.0401 -0.1604
 5423OCT     C110845  18.551  11.930  23.320  0.5648  0.0658 -0.0135
 5423OCT     C210846  18.268  11.865  22.951  0.2885 -0.1894 -0.1487
 5424OCT     C110847  20.708  16.749   4.803  0.2070  0.0735  0.2518
 5424OCT     C210848  20.913  16.631   4.375 -0.2515  0.3601 -0.0938
 5425OCT     C110849  15.513  13.554   4.819 -0.2245 -0.0314 -0.3027
 5425OCT     C210850  15.146  13.511   4.532 -0.0456  0.0525  0.0531
 5426OCT     C110851  18.060   5.299   6.369 -0.2174  0.0528 -0.0192
 5426OCT     C210852  18.499   5.384   6.348 -0.4140 -0.2033  0.1486
 5427OCT     C110853   8.528   2.979   3.081  0.2361 -0.0891  0.1440
 5427OCT     C210854   8.815   3.390   3.200  0.3240 -0.2699 -0.3476
 5428OCT     C110855  14.747  20.608  21.570  0.2479  0.0956  0.0169
 5428OCT     C210856  14.910  20.314  21.906  0.0379 -0.0136 -0.0939
 5429OCT     C110857  12.080   8.941  20.566 -0.1783  0.1827 -0.5551
 5429OCT     C210858  12.393   8.946  20.254 -0.0415  0.0537  0.0231
 5430OCT     C110859  21.464   8.385  13.326  0.1787  0.2770  0.2686
 5430OCT     C210860  21.267   7.965  13.300  0.1479 -0.0601 -0.3303
 5431OCT     C110861   8.048  11.401   8.150  0.1880  0.0051  0.2631
 5431OCT     C210862   7.538  11.461   8.177  0.0145  0.1690 -0.0824
 5432OCT     C110863  21.089  21.525   9.892 -0.1154  0.3238 -0.1985
 5432OCT     C210864  21.407  21.584   9.602  0.0207 -0.1797 -0.2269
 5433OCT     C110865  21.641  12.486   4.640 -0.0347  0.1580  0.0205
 5433OCT     C210866  21.939  12.729   4.859 -0.1105 -0.1192  0.2685
 5434OCT     C110867   4.264   3.774   5.632  0.0738 -0.4165 -0.0269
 5434OCT     C210868   4.566   3.574   5.872  0.1058  0.2368  0.2815
 5435OCT     C110869  18.181   3.842   9.238 -0.0083 -0.1633 -0.0290
 5435OCT     C210870  18.226   4.268   9.062 -0.0254 -0.1169 -0.2533
 5436OCT     C110871  21.993   0.819  15.885 -0.1804  0.0076  0.1264
 5436OCT     C210872  22.260   1.222  15.774  0.2189  0.3624  0.0832
 5437OCT     C110873  22.702   7.498   9.569  0.0604  0.0473 -0.1354
 5437OCT     C210874  22.958   7.738   9.842 -0.0552  0.0185 -0.1291
 5438OCT     C110875  20.743  10.000  14.527  0.2053 -0.3591 -0.2304
 5438OCT     C210876  21.136   9.937  14.819  0.1311  0.1062 -0.0535
 5439OCT     C110877   1.001  22.178   9.551  0.1920 -0.2600 -0.3100
 5439OCT     C210878   1.068  22.428   9.945 -0.2000 -0.2231 -0.0773
 5440OCT     C110879   7.911   0.576   2.385  0.1788  0.1024 -0.2694
 5440OCT     C210880   7.913   0.899   2.052 -0.0626 -0.0256 -0.0650
 5441OCT     C110881  16.691   1.851   7.025  0.3780  0.3707 -0.1778
 5441OCT     C210882  16.630   1.702   7.494 -0.1047  0.0118 -0.1620
 5442OCT     C110883   8.898   4.988   2.309 -0.2773  0.2722  0.0903
 5442OCT     C210884   8.742   5.279   2.584 -0.1169 -0.3308  0.1419
 5443OCT     C110885   0.716  17.183  17.436  0.2606 -0.1855 -0.4591
 5443OCT     C210886   0.349  17.396  17.568  0.1318  0.0919  0.1202
 5444OCT     C110887   8.799  17.607   1.685  0.4481 -0.0010  0.4069
 5444OCT     C210888   9.154  17.413   1.900 -0.1656 -0.1088  0.2218
 5445OCT     C110889  14.599  16.076   6.393 -0.1223 -0.0663 -0.2487
 5445OCT     C210890  14.821  15.893   6.773  0.1580  0.0436 -0.0834
 5446OCT     C110891  22.601  15.317  10.085  0.1519  0.0198  0.2623
 5446OCT     C210892  22.177  15.089  10.035 -0.2675 -0.4246  0.0508
 5447OCT     C110893  16.297   5.858  10.812  0.2459  0.4818 -0.3143
 5447OCT     C210894  15.967   5.603  10.583 -0.0217  0.1564  0.5070
 5448OCT     C110895   0.345   8.065  22.313 -0.4077 -0.2456 -0.0287
 5448OCT     C210896   0.800   8.143  22.405 -0.3727 -0.4064 -0.1662
 5449OCT     C110897   5.748  22.924   5.818  0.0521  0.1942  0.5479
 5449OCT     C210898   5.518  23.230   5.560 -0.3590 -0.1942 -0.0910
 5450OCT     C110899   1.487   6.924  16.968  0.2922 -0.1443 -0.0621
 5450OCT     C210900   1.356   6.527  17.168  0.0643  0.0255 -0.3109
 5451OCT     C110901   8.300  20.286  19.598  0.0009 -0.0695  0.1314
 5451OCT     C210902   7.995  20.564  19.421 -0.0686  0.0611 -0.2560
 5452OCT     C110903  22.421  10.840  15.997 -0.0374  0.7470 -0.2809
 5452OCT     C210904  22.402  10.388  15.970 -0.0407 -0.0732 -0.0783
 5453OCT     C110905  15.577   0.738  19.269 -0.0505 -0.0135 -0.0802
 5453OCT     C210906  15.743   0.801  19.674 -0.0185 -0.0438 -0.0405
 5454OCT     C110907   2.404  13.322   0.218  0.2229  0.3760 -0.0911
 5454OCT     C210908   2.273  13.759   0.353  0.1257 -0.0560 -0.1581
 5455OCT     C110909  22.282  12.846   5.258  0.1167  0.1754 -0.2444
 5455OCT     C210910  22.450  13.260   5.458  0.0556 -0.3766  0.0707
 5456OCT     C110911   8.106  20.224   1.108 -0.0520  0.1314 -0.0898
 5456OCT     C210912   7.930  20.595   1.356  0.1639  0.0127 -0.0163
 5457OCT     C110913   6.203  13.662  14.933 -0.3781  0.0804  0.1297
 5457OCT     C210914   5.794  13.801  15.100 -0.2145  0.0908 -0.2479
 5458OCT     C110915   4.958  18.678  19.437  0.0581  0.1624 -0.0114
 5458OCT     C210916   4.704  18.596  19.035  0.0436 -0.1750 -0.0489
 5459OCT     C110917  23.702  19.956   5.876 -0.0695  0.2064  0.0298
 5459OCT     C210918   0.294  20.276   5.837  0.1778 -0.1779 -0.1492
 5460OCT     C110919   5.850   0.181   1.559  0.0714  0.1760  0.2866
 5460OCT     C210920   5.711   0.100   2.014  0.1354  0.0098  0.2171
 5461OCT     C110921  22.043   9.394  19.555  0.0317 -0.0179  0.2468
 5461OCT     C210922  21.880   9.804  19.709  0.0877 -0.1037  0.0074
 5462OCT     C110923   4.916  15.086  17.399  0.2548 -0.1995 -0.0032
 5462OCT     C210924   5.270  15.016  17.676 -0.2060 -0.2067 -0.3000
 5463OCT     C110925  11.640  22.671  20.168 -0.2802  0.1063 -0.0474
 5463OCT     C210926  11.551  22.893  19.744 -0.0872  0.0098  0.0882
 5464OCT     C110927  14.150  18.204  17.039 -0.0249  0.1522 -0.2431
 5464OCT     C210928  14.173  17.725  17.202 -0.2944 -0.1887  0.2211
 5465OCT     C110929  17.940   0.382  16.407 -0.0917 -0.3237 -0.3651
 5465OCT     C210930  17.669   0.169  16.107 -0.0268 -0.1154  0.1244
 5466OCT     C110931  15.959  12.013  20.768  0.1917 -0.0187  0.0820
 5466OCT     C210932  15.640  11.726  20.580  0.2526 -0.1935  0.3789
 5467OCT     C110933   7.710  12.251   8.977  0.0290 -0.0176 -0.1952
 5467OCT     C210934   7.567  12.637   8.764  0.0721  0.1623 -0.2063
 5468OCT     C110935  14.765  15.243  17.958 -0.1269 -0.1472 -0.1966
 5468OCT     C210936  14.847  15.650  17.707 -0.1796 -0.0843 -0.0377
 5469OCT     C110937   3.785  21.606  18.864  0.0411  0.0722 -0.1154
 5469OCT     C210938   3.695  21.816  18.426 -0.0279  0.2854 -0.1396
 5470OCT     C110939   6.978  13.098  20.174  0.0768 -0.0484  0.4011
 5470OCT     C210940   6.774  12.723  19.956 -0.1890 -0.2253 -0.1297
 5471OCT     C110941   4.848  17.467   4.666 -0.1577 -0.2225 -0.2975
 5471OCT     C210942   4.692  17.680   5.113  0.0644 -0.0288  0.1876
 5472OCT     C110943  17.266   2.051  11.322 -0.3640 -0.0615  0.0790
 5472OCT     C210944  17.053   2.385  11.599  0.3203  0.3075 -0.0404
 5473OCT     C110945  17.818  10.607   2.965  0.0888  0.1027  0.0702
 5473OCT     C210946  18.007  10.270   3.193 -0.2446  0.2026 -0.3795
 5474OCT     C110947   3.858   0.508  20.755 -0.3514  0.2742  0.1304
 5474OCT     C210948   3.885   0.217  21.110  0.2959  0.0959  0.1079
 5475OCT     C110949   5.700   4.189   5.347  0.0484  0.2454 -0.2107
 5475OCT     C210950   5.972   4.020   5.751  0.0091 -0.1324  0.3044
 5476OCT     C110951   5.361  16.638  12.528 -0.2243  0.0968 -0.1693
 5476OCT     C210952   5.744  16.685  12.264  0.0862  0.0494 -0.3091
 5477OCT     C110953  18.674  18.219  20.123  0.1075 -0.3166  0.0158
 5477OCT     C210954  18.828  18.325  20.574 -0.3422 -0.2180  0.0745
 5478OCT     C110955  16.622  12.965  23.731  0.1702 -0.1286  0.0253
 5478OCT     C210956  16.178  13.076  23.576  0.2060  0.0543  0.1845
 5479OCT     C110957   2.208  18.836   0.158 -0.0660  0.1209 -0.0319
 5479OCT     C210958   2.629  18.641   0.102 -0.1968 -0.0719  0.1814
 5480OCT     C110959  10.063   6.989   9.224 -0.0618 -0.0683  0.0114
 5480OCT     C210960   9.778   6.865   9.562 -0.0810  0.1256  0.2665
 5481OCT     C110961  23.469  10.751   0.751 -0.0014 -0.2671  0.2987
 5481OCT     C210962  23.174  10.371   0.843  0.1343  0.0680 -0.2519
 5482OCT     C110963   2.426  23.664  14.540 -0.0160 -0.0538  0.0218
 5482OCT     C210964   2.551  23.674  14.052  0.1031 -0.0550  0.1962
 5483OCT     C110965  20.849   2.718  20.617 -0.0954 -0.3402 -0.2480
 5483OCT     C210966  20.588   3.074  20.384  0.0249  0.0934  0.3547
 5484OCT     C110967   5.099   8.699  10.507  0.2168  0.1416 -0.1505
 5484OCT     C210968   5.030   8.321  10.769  0.0007  0.1316 -0.0482
 5485OCT     C110969   1.747   7.423  16.621 -0.0160 -0.0795 -0.5896
 5485OCT     C210970   2.132   7.654  16.717  0.0786  0.0201  0.2146
 5486OCT     C110971  23.037   2.767   1.316  0.1008 -0.0047  0.1670
 5486OCT     C210972  22.800   2.573   1.629 -0.4595 -0.1528 -0.1109
 5487OCT     C110973  20.406  11.750  23.735 -0.1941  0.2204  0.3319
 5487OCT     C210974  20.298  11.356  23.490 -0.2395  0.0079  0.2790
 5488OCT     C110975  18.801   4.786  13.662 -0.0268  0.1021 -0.1744
 5488OCT     C210976  18.450   4.476  13.607  0.2205 -0.3132  0.3471
 5489OCT     C110977  20.770   2.629   9.525  0.0291 -0.3296  0.3515
 5489OCT     C210978  21.103   2.316   9.420 -0.2563  0.4013 -0.3544
 5490OCT     C110979   5.999   0.440   4.512 -0.3294 -0.1827  0.1565
 5490OCT     C210980   5.611   0.360   4.788 -0.0682  0.3583 -0.1195
 5491OCT     C110981  14.203  15.728  19.142  0.0135  0.1138 -0.3050
 5491OCT     C210982  13.815  15.421  19.047 -0.1887  0.2094 -0.0130
 5492OCT     C110983   7.618  15.977  20.308 -0.0211  0.0967 -0.0831
 5492OCT     C210984   7.345  16.338  20.185 -0.2409 -0.1411 -0.0820
 5493OCT     C110985   4.919   2.665  13.353 -0.1366 -0.0723 -0.0461
 5493OCT     C210986   5.107   3.060  13.207  0.4174 -0.1328  0.3316
 5494OCT     C110987  15.682  23.679   7.157  0.2220  0.1167 -0.1809
 5494OCT     C210988  15.830   0.214   6.780 -0.1281 -0.1805  0.0705
 5495OCT     C110989   9.755  20.311   3.656  0.0972 -0.0208  0.1268
 5495OCT     C210990  10.227  20.340   3.696  0.2057  0.1294 -0.2178
 5496OCT     C110991  13.741   4.027  16.368 -0.0599  0.1585 -0.2202
 5496OCT     C210992  13.864   4.430  16.606  0.2341 -0.0953  0.0578
 5497OCT     C110993  22.756  12.336  10.895  0.1082 -0.1508  0.0619
 5497OCT     C210994  22.939  12.789  10.761 -0.0315 -0.0127 -0.2063
 5498OCT     C110995  15.498   7.222  22.166 -0.2754  0.1379 -0.4293
 5498OCT     C210996  15.466   7.037  21.721 -0.1739 -0.0484  0.1934
 5499OCT     C110997  22.551   4.522  13.034  0.3021  0.0512 -0.0828
 5499OCT     C210998  23.025   4.564  13.023 -0.1126  0.3631 -0.0286
 5500OCT     C110999   1.564  18.808  16.024 -0.1032  0.3429  0.0251
 5500OCT     C211000   1.225  18.627  15.787  0.1025  0.0841 -0.0567
 5501OCT     C111001   3.965  14.543  20.539  0.2050 -0.0372 -0.0235
 5501OCT     C211002   3.545  14.303  20.515 -0.4278 -0.1555  0.1869
 5502OCT     C111003  13.825   0.973   4.336  0.1591  0.0213  0.0352
 5502OCT     C211004  13.656   1.044   3.912  0.3212 -0.0389  0.3663
 5503OCT     C111005   2.243   7.391  13.211  0.0518 -0.0509  0.2407
 5503OCT     C211006   2.459   7.762  12.956  0.1311 -0.4236  0.1939
 5504OCT     C111007  15.244  21.124   4.359 -0.4564  0.1091 -0.2461
 5504OCT     C211008  14.838  20.836   4.255  0.0100 -0.5534  0.0406
 5505OCT     C111009  19.825  15.330  12.833 -0.1184  0.0549 -0.1069
 5505OCT     C211010  19.773  15.797  12.786  0.0355 -0.3497  0.2127
 5506OCT     C111011  21.274   5.479   9.442 -0.0174  0.2364 -0.0445
 5506OCT     C211012  21.744   5.613   9.579  0.0036  0.0822 -0.0172
 5507OCT     C111013   2.559  22.371  22.405  0.1767  0.1190  0.3429
 5507OCT     C211014   2.419  22.313  21.971 -0.0163  0.1022 -0.1761
 5508OCT     C111015  17.205  17.770  22.042 -0.2972 -0.3726 -0.0791
 5508OCT     C211016  17.398  18.134  22.228 -0.0716 -0.1885  0.1356
 5509OCT     C111017  10.491  22.342   1.067  0.1412 -0.1857  0.1737
 5509OCT     C211018  10.404  21.847   0.978  0.2200 -0.1767 -0.1378
 5510OCT     C111019  23.256  10.957  22.529  0.1860 -0.2957 -0.2544
 5510OCT     C211020  23.456  11.140  22.121  0.2137  0.1350 -0.1537
 5511OCT     C111021   8.417  10.545  23.588 -0.0946 -0.0566 -0.1428
 5511OCT     C211022   8.014  10.804  23.639 -0.0561 -0.3502  0.0392
 5512OCT     C111023  20.921   3.485   8.971 -0.2676 -0.1184  0.1580
 5512OCT     C211024  20.573   3.766   8.886  0.1346  0.1072 -0.3166
 5513OCT     C111025  21.734  15.712  22.544  0.2953 -0.3388  0.4655
 5513OCT     C211026  21.920  15.251  22.635 -0.1066  0.2447  0.0907
 5514OCT     C111027   0.632   8.511  23.604 -0.2407 -0.2466 -0.2122
 5514OCT     C211028   0.794   8.186  23.268 -0.2225 -0.5773 -0.1263
 5515OCT     C111029  15.537  20.334  22.137  0.1392  0.0210 -0.1841
 5515OCT     C211030  15.812  20.116  21.834 -0.0875  0.4272  0.2435
 5516OCT     C111031   3.947   7.057   6.282 -0.2972  0.3998 -0.1996
 5516OCT     C211032   3.473   6.903   6.205  0.0463  0.0732  0.2572
 5517OCT     C111033  14.297   4.158  16.594  0.0563 -0.1210  0.1131
 5517OCT     C211034  14.052   3.953  16.923 -0.1156 -0.1260 -0.0211
 5518OCT     C111035   4.344   0.856   5.791  0.4665  0.1604  0.0753
 5518OCT     C211036   4.612   0.985   6.110 -0.2786  0.0030  0.0426
 5519OCT     C111037  22.501   4.972  14.696  0.0524  0.2513  0.1834
 5519OCT     C211038  22.616   5.358  14.904  0.1681  0.1936  0.0311
 5520OCT     C111039   1.992  16.072  23.705 -0.0455 -0.0282  0.1964
 5520OCT     C211040   1.583  16.208   0.242  0.2222 -0.0545 -0.1183
 5521OCT     C111041   9.036  17.093  16.142  0.1239 -0.3522  0.1128
 5521OCT     C211042   8.582  17.160  16.183 -0.1283  0.2633  0.1306
 5522OCT     C111043  18.736  10.898  10.558 -0.0275 -0.1911 -0.0937
 5522OCT     C211044  18.374  11.170  10.746  0.0217 -0.0283 -0.2082
 5523OCT     C111045  19.724  20.045   9.224  0.0093  0.2725  0.4299
 5523OCT     C211046  19.698  20.168   8.776 -0.2894  0.1210 -0.3247
 5524OCT     C111047   1.193  10.021  16.282 -0.3038 -0.0422 -0.1734
 5524OCT     C211048   0.865  10.016  15.922  0.1148 -0.2959 -0.0685
 5525OCT     C111049  10.551   5.668  16.574  0.3885 -0.3711  0.2326
 5525OCT     C211050  10.268   5.450  16.792  0.2339 -0.0472 -0.2259
 5526OCT     C111051   8.788  21.803  15.877 -0.0859  0.3177 -0.0403
 5526OCT     C211052   8.993  21.387  16.000  0.2824 -0.1715  0.1824
 5527OCT     C111053   6.335   0.655  11.560 -0.1341 -0.4763 -0.6055
 5527OCT     C211054   6.525   0.746  12.023  0.3317 -0.0857  0.1155
 5528OCT     C111055  22.899   1.358  12.400 -0.1591  0.3543 -0.0729
 5528OCT     C211056  23.028   1.739  12.121  0.0293  0.0402  0.7232
 5529OCT     C111057  10.803  12.321  15.056  0.0688  0.1512  0.0613
 5529OCT     C211058  10.674  12.154  15.509 -0.1395 -0.3432 -0.0062
 5530OCT     C111059   0.954   4.277   2.813 -0.1596 -0.4619  0.1322
 5530OCT     C211060   1.110   4.737   2.817  0.2487  0.2509  0.0430
 5531OCT     C111061  21.297  17.900   5.340 -0.0131 -0.2509 -0.1350
 5531OCT     C211062  21.297  17.581   4.997  0.1957 -0.3025  0.0909
 5532OCT     C111063  15.386  14.398  13.250  0.1491 -0.4046 -0.2211
 5532OCT     C211064  14.944  14.455  13.036 -0.1715  0.1373  0.3069
 5533OCT     C111065  15.992  13.629   4.041 -0.1579  0.3389 -0.0343
 5533OCT     C211066  15.557  13.544   4.216  0.0352  0.1131 -0.1380
 5534OCT     C111067   3.747   6.287   9.749 -0.1036  0.2256 -0.0447
 5534OCT     C211068   3.627   5.872   9.631 -0.1321 -0.2127  0.1324
 5535OCT     C111069   3.481   3.115  11.244 -0.1577 -0.1386 -0.3407
 5535OCT     C211070   3.290   3.293  10.870  0.0826  0.0400 -0.2099
 5536OCT     C111071   0.123   0.417  10.597  0.0400 -0.3194 -0.2289
 5536OCT     C211072   0.516   0.591  10.419  0.1992 -0.2105 -0.1862
 5537OCT     C111073   4.705  12.189  10.333  0.0585  0.1539  0.0286
 5537OCT     C211074   4.662  12.597  10.115 -0.0174  0.0150 -0.1237
 5538OCT     C111075   8.563  14.128  13.922 -0.1736 -0.1425  0.3215
 5538OCT     C211076   8.602  13.776  13.585  0.0805  0.2640 -0.0362
 5539OCT     C111077  20.485  23.309   6.458 -0.1457 -0.2074 -0.0759
 5539OCT     C211078  20.373  22.801   6.475 -0.1371 -0.4117 -0.1539
 5540OCT     C111079   5.650  13.718  21.031  0.3668  0.2986 -0.0076
 5540OCT     C211080   5.614  13.983  20.611  0.0341 -0.1770 -0.1187
 5541OCT     C111081   1.798  13.919   4.633  0.0270  0.2337 -0.1059
 5541OCT     C211082   1.760  13.811   4.191  0.2945  0.1380 -0.0179
 5542OCT     C111083   2.186   5.138  15.390  0.1159  0.0110  0.0203
 5542OCT     C211084   2.551   5.398  15.469  0.4062  0.1384  0.2215
 5543OCT     C111085   2.075  11.463   5.863 -0.3346 -0.1589 -0.1254
 5543OCT     C211086   2.430  11.383   5.547 -0.1972  0.0675  0.0389
 5544OCT     C111087   4.811   9.967   3.851  0.0396  0.0554 -0.1192
 5544OCT     C211088   5.099   9.725   3.497 -0.1409  0.0326 -0.1703
 5545OCT     C111089  14.860  12.923   5.086 -0.0728  0.0862  0.3499
 5545OCT     C211090  14.761  12.743   4.646 -0.0568 -0.4146 -0.1808
 5546OCT     C111091  19.404  21.039   7.995 -0.3471 -0.2571 -0.0821
 5546OCT     C211092  19.241  21.490   7.883 -0.1557  0.1990  0.0808
 5547OCT     C111093  21.581   3.319   6.915 -0.1105  0.1015  0.0280
 5547OCT     C211094  22.006   3.088   7.021  0.1619  0.0745 -0.2571
 5548OCT     C111095   5.028  17.446  19.151 -0.0679  0.2356  0.0259
 5548OCT     C211096   5.124  17.801  19.358 -0.0375 -0.1104  0.1585
 5549OCT     C111097   1.603  16.228   7.707 -0.0440 -0.1539 -0.2683
 5549OCT     C211098   1.776  16.132   7.313  0.0026 -0.3606 -0.1855
 5550OCT     C111099   6.308   1.227   0.760  0.0822  0.0663  0.1942
 5550OCT     C211100   5.819   1.351   0.864  0.0069 -0.0600  0.1991
 5551OCT     C111101   3.850  11.532  10.300  0.0812 -0.0431  0.1938
 5551OCT     C211102   3.569  11.242  10.453 -0.1592  0.1052 -0.0346
 5552OCT     C111103   8.946   5.392  23.726 -0.0463 -0.0323 -0.0262
 5552OCT     C211104   8.677   5.490  23.390 -0.2165  0.2482 -0.0196
 5553OCT     C111105   9.396  10.571   1.395  0.1547 -0.2654  0.1389
 5553OCT     C211106   9.350  10.674   1.876  0.0654 -0.1138 -0.0708
 5554OCT     C111107  20.098  10.770  20.886 -0.0233  0.6216  0.0105
 5554OCT     C211108  20.551  10.760  20.933 -0.1616 -0.3429 -0.0467
 5555OCT     C111109   3.434  11.948  18.971  0.0546 -0.0173  0.0865
 5555OCT     C211110   3.547  12.403  19.163 -0.0243 -0.2752 -0.2270
 5556OCT     C111111  11.705   6.183  16.306 -0.0933  0.5199  0.0689
 5556OCT     C211112  11.785   5.951  16.666 -0.0421 -0.0175 -0.0615
 5557OCT     C111113   0.299  14.244   2.862 -0.1239 -0.4062 -0.0273
 5557OCT     C211114   0.669  14.006   2.752  0.2369 -0.0401 -0.0925
 5558OCT     C111115  14.722  21.888  11.884  0.1403 -0.0687  0.1866
 5558OCT     C211116  14.601  22.345  12.057  0.0829  0.3273 -0.3147
 5559OCT     C111117  23.058  18.064   9.457  0.0149  0.1889  0.2619
 5559OCT     C211118  22.790  18.432   9.342 -0.1052  0.1452  0.1935
 5560OCT     C111119  22.384  23.526  11.525 -0.4196  0.1498 -0.3091
 5560OCT     C211120  22.411  23.130  11.281  0.1407  0.1446 -0.1909
 5561OCT     C111121   0.117   5.484   4.352 -0.3388  0.3612  0.0330
 5561OCT     C211122   0.319   5.143   4.627  0.1988  0.1800  0.1387
 5562OCT     C111123   4.755  21.467  12.628 -0.0710 -0.2295 -0.1122
 5562OCT     C211124   4.519  21.385  12.282  0.4064 -0.2713  0.1033
 5563OCT     C111125   2.918   0.878  14.775  0.0237 -0.0241 -0.3421
 5563OCT     C211126   3.275   1.115  14.587 -0.4106  0.0627 -0.0812
 5564OCT     C111127   0.274  21.554  22.615  0.0850  0.0074  0.0617
 5564OCT     C211128  23.613  21.798  22.642  0.0259  0.0991  0.0091
 5565OCT     C111129   4.007  11.618   6.207 -0.1299  0.0071 -0.0467
 5565OCT     C211130   3.564  11.564   6.263 -0.0245 -0.0804  0.3713
 5566OCT     C111131  13.423   8.414   1.260  0.4472  0.1747  0.0582
 5566OCT     C211132  13.300   8.818   1.553 -0.2862  0.2568 -0.0661
 5567OCT     C111133   2.578  14.527  12.928  0.2150  0.1569 -0.1808
 5567OCT     C211134   2.786  14.243  12.559  0.0763 -0.1126  0.0647
 5568OCT     C111135   0.408  13.158   8.835 -0.1113 -0.0528  0.0516
 5568OCT     C211136   0.697  13.335   9.112 -0.1916 -0.0460 -0.1905
 5569OCT     C111137   7.357   5.446  14.461  0.3178  0.1494 -0.1535
 5569OCT     C211138   7.145   5.033  14.658 -0.1652  0.0277 -0.0367
 5570OCT     C111139   5.916  14.382   0.172  0.1069  0.4033  0.3986
 5570OCT     C211140   6.329  14.444   0.046 -0.1240  0.0688  0.1675
 5571OCT     C111141   7.604   6.729   7.874 -0.0430 -0.0746 -0.2324
 5571OCT     C211142   7.380   6.343   7.906  0.2468 -0.0665  0.3068
 5572OCT     C111143   3.760   6.701  14.048 -0.1545 -0.0466 -0.3543
 5572OCT     C211144   3.474   6.355  14.013  0.1643  0.2170 -0.1104
 5573OCT     C111145   9.372  12.462  11.513 -0.1782  0.0473 -0.0503
 5573OCT     C211146   9.105  12.415  11.146  0.1123 -0.0452  0.0102
 5574OCT     C111147   0.933   3.685  20.060  0.2423 -0.1166 -0.0961
 5574OCT     C211148   1.124   3.456  19.707 -0.2249 -0.0166 -0.0290
 5575OCT     C111149   5.450  15.635  13.576 -0.0951  0.0219 -0.3033
 5575OCT     C211150   5.765  15.795  13.842  0.1326 -0.1958  0.0679
 5576OCT     C111151  22.346   6.726   0.549 -0.0059  0.1493  0.2956
 5576OCT     C211152  22.146   6.980   0.261  0.1167  0.0526  0.4382
 5577OCT     C111153   2.418  11.997  21.306 -0.0947  0.1723 -0.1768
 5577OCT     C211154   2.771  12.282  21.175  0.1169  0.0959  0.2131
 5578OCT     C111155   5.720   8.960   2.668  0.0812 -0.0202 -0.1907
 5578OCT     C211156   5.758   9.067   2.248 -0.0119 -0.2941 -0.1611
 5579OCT     C111157  11.330  15.217  16.815  0.1649  0.0210  0.4187
 5579OCT     C211158  11.222  15.156  16.340  0.2524  0.0934  0.2291
 5580OCT     C111159   1.289  14.483  13.505  0.3757 -0.0347  0.4078
 5580OCT     C211160   1.089  14.236  13.776  0.0252  0.0891  0.1033
 5581OCT     C111161   3.204   6.600  11.470 -0.0766 -0.2559 -0.3310
 5581OCT     C211162   3.203   6.450  11.037  0.1848 -0.1411 -0.2017
 5582OCT     C111163  19.073   9.378   0.351  0.4146 -0.0226  0.1084
 5582OCT     C211164  19.160   8.947   0.417  0.0538  0.1474  0.2464
 5583OCT     C111165   6.707  13.119   8.816  0.1372  0.0382 -0.0821
 5583OCT     C211166   6.424  13.070   8.543  0.0606 -0.1803  0.1983
 5584OCT     C111167  20.372  10.027  11.220 -0.2615  0.2448 -0.4860
 5584OCT     C211168  20.474   9.817  11.652  0.0312 -0.0357  0.1087
 5585OCT     C111169  23.349  12.318  21.911  0.2090 -0.0063 -0.2071
 5585OCT     C211170  23.544  11.906  22.021  0.1167 -0.2427  0.1418
 5586OCT     C111171  12.585  13.029   8.860 -0.0601  0.0241 -0.0847
 5586OCT     C211172  12.509  12.669   8.529  0.0096 -0.1683 -0.1150
 5587OCT     C111173  23.420   7.487   6.469  0.4047  0.0137 -0.2806
 5587OCT     C211174  23.444   7.860   6.742  0.0058 -0.1310 -0.0854
 5588OCT     C111175   4.089   8.869  14.180 -0.1671  0.1666 -0.1721
 5588OCT     C211176   3.981   9.332  14.125  0.1172  0.0249  0.0307
 5589OCT     C111177  15.080   0.969  15.895  0.2425 -0.1496  0.0955
 5589OCT     C211178  15.450   0.720  15.970  0.0700 -0.2911  0.4469
 5590OCT     C111179  15.879   7.611  15.174 -0.2677 -0.1960 -0.3301
 5590OCT     C211180  15.471   7.808  15.188 -0.0936  0.2917  0.0982
 5591OCT     C111181  14.506  20.348  17.502  0.1703  0.0265 -0.1421
 5591OCT     C211182  14.046  20.508  17.608  0.0360 -0.0211  0.1095
 5592OCT     C111183  16.871  16.833   1.341  0.0279  0.0540  0.0336
 5592OCT     C211184  16.624  17.074   1.692 -0.0244  0.1412 -0.0926
 5593OCT     C111185  23.442  22.945  14.561  0.3320  0.0318 -0.0062
 5593OCT     C211186  23.169  23.355  14.609 -0.0614 -0.1634 -0.1218
 5594OCT     C111187   7.481  22.512  20.119  0.0364 -0.0431 -0.0217
 5594OCT     C211188   7.784  22.311  19.771  0.2269  0.1525 -0.2867
 5595OCT     C111189   4.671  22.934   6.932  0.0863 -0.1278 -0.1522
 5595OCT     C211190   5.064  22.891   7.197  0.1954  0.3304 -0.0053
 5596OCT     C111191  11.383   1.788   6.734  0.2485 -0.1135 -0.1313
 5596OCT     C211192  11.774   1.498   6.615  0.2048 -0.1628 -0.1169
 5597OCT     C111193  10.320   9.330   7.864 -0.0955  0.0501  0.0663
 5597OCT     C211194  10.226   8.993   7.567 -0.4097 -0.0906 -0.2137
 5598OCT     C111195   5.961  17.014   2.591  0.0926 -0.1356 -0.2256
 5598OCT     C211196   5.775  17.260   2.864  0.0907 -0.0699 -0.4307
 5599OCT     C111197   9.765   3.780  13.330 -0.1884  0.4424  0.0513
 5599OCT     C211198   9.992   4.192  13.392 -0.0815  0.0353  0.1462
 5600OCT     C111199   6.616  11.597   8.609 -0.1394 -0.0355  0.1467
 5600OCT     C211200   6.579  12.017   8.621 -0.2545 -0.1671 -0.3269
 5601OCT     C111201  20.971  23.455  14.846 -0.3955 -0.2284  0.0751
 5601OCT     C211202  21.178  23.440  15.222 -0.2203  0.2716  0.2046
 5602OCT     C111203  17.000  15.204  20.855  0.3343  0.1483 -0.3428
 5602OCT     C211204  16.793  15.555  20.634 -0.0716  0.1879 -0.1599
 5603OCT     C111205  19.748   3.339  12.215  0.2345 -0.0526  0.0563
 5603OCT     C211206  19.281   3.525  12.283  0.1953 -0.0856  0.0246
 5604OCT     C111207  16.118   6.978   8.151 -0.5375  0.1788  0.3979
 5604OCT     C211208  16.216   6.570   8.292  0.0847 -0.0723 -0.0187
 5605OCT     C111209   3.246  17.355  16.210  0.1099  0.1606 -0.3694
 5605OCT     C211210   3.061  17.330  16.652  0.0542 -0.1832  0.5166
 5606OCT     C111211   3.137  15.698   1.975  0.1166  0.0379 -0.0124
 5606OCT     C211212   2.817  15.908   1.754 -0.2092  0.2586  0.5138
 5607OCT     C111213  20.321  15.069  13.616  0.0519  0.1744  0.1980
 5607OCT     C211214  20.108  14.646  13.715  0.3369 -0.2403  0.0424
 5608OCT     C111215  17.875   4.295  12.706 -0.1233 -0.0696  0.0291
 5608OCT     C211216  17.551   4.216  12.419 -0.2381  0.0270  0.1999
 5609OCT     C111217  19.560   7.314  22.222  0.1788  0.3209  0.3668
 5609OCT     C211218  19.388   7.204  22.646 -0.3184  0.0268 -0.2017
 5610OCT     C111219  19.679   5.607   0.710  0.2348  0.0681 -0.0627
 5610OCT     C211220  19.651   5.335   1.098 -0.0612 -0.1370  0.0850
 5611OCT     C111221  23.565  22.375  13.068  0.0674 -0.0841  0.1304
 5611OCT     C211222  23.584  21.973  13.322  0.0920 -0.1541 -0.0107
 5612OCT     C111223  12.678   1.924  11.014 -0.5144  0.0936 -0.1752
 5612OCT     C211224  12.747   2.257  10.729 -0.2170 -0.1173  0.1814
 5613OCT     C111225  21.144  10.134  10.247  0.1376  0.0052 -0.0537
 5613OCT     C211226  21.112   9.905   9.816  0.1053  0.2688  0.0766
 5614OCT     C111227  13.741  22.582  20.649  0.0028  0.0578 -0.1049
 5614OCT     C211228  13.872  22.145  20.846 -0.0272  0.1750  0.2482
 5615OCT     C111229  14.334  20.772   8.144 -0.0992  0.4050 -0.1459
 5615OCT     C211230  14.499  20.764   7.731 -0.0812  0.1753 -0.0326
 5616OCT     C111231   2.898  16.993  20.978  0.1962 -0.1774 -0.3450
 5616OCT     C211232   3.321  17.107  21.162 -0.2359 -0.0938 -0.1747
 5617OCT     C111233  14.353   6.892  11.878  0.4606  0.3872 -0.0878
 5617OCT     C211234  14.341   6.567  12.296  0.1509  0.0624  0.1724
 5618OCT     C111235  20.377   4.810  12.482  0.0233 -0.0034  0.1571
 5618OCT     C211236  20.059   4.581  12.230 -0.0490  0.2720 -0.0218
 5619OCT     C111237  12.811  10.258  15.612 -0.0477  0.1351  0.1177
 5619OCT     C211238  12.502   9.940  15.541 -0.1435  0.3935 -0.0563
 5620OCT     C111239   4.955   0.395  13.859 -0.3407  0.0157 -0.1356
 5620OCT     C211240   5.186  23.695  13.794  0.2893  0.2954  0.1005
 5621OCT     C111241   8.128  15.162   4.994  0.0280  0.0238  0.1517
 5621OCT     C211242   8.336  14.751   4.868  0.2243  0.0005 -0.2987
 5622OCT     C111243  19.193  22.581  19.751  0.2014 -0.1106  0.1997
 5622OCT     C211244  19.041  22.162  19.810 -0.2349 -0.2515  0.0041
 5623OCT     C111245  14.495   0.199  11.982  0.3092  0.3644  0.2414
 5623OCT     C211246  14.068   0.359  11.845  0.3277 -0.2398  0.1414
 5624OCT     C111247  12.299  14.693  15.377  0.1190  0.0148  0.1340
 5624OCT     C211248  12.545  14.315  15.175  0.1274  0.0405 -0.5307
 5625OCT     C111249  21.692   4.374  22.281 -0.2493  0.1337  0.1699
 5625OCT     C211250  21.366   4.022  22.217 -0.1922  0.3908  0.2935
 5626OCT     C111251  17.286   0.428   2.178  0.0582  0.3210  0.1695
 5626OCT     C211252  17.703   0.385   2.324  0.1847  0.1552 -0.1472
 5627OCT     C111253   2.653  13.080  23.568 -0.1474 -0.2701  0.0953
 5627OCT     C211254   2.391  12.735  23.457  0.0577 -0.0770  0.2034
 5628OCT     C111255  19.568  16.818  15.546 -0.2018  0.1373 -0.1709
 5628OCT     C211256  19.686  16.855  15.989  0.3402 -0.0976 -0.1321
 5629OCT     C111257  11.058  18.947  17.049  0.0405 -0.0348  0.2071
 5629OCT     C211258  11.402  19.159  17.224 -0.1086  0.1495  0.4239
 5630OCT     C111259   4.267  19.447   1.307 -0.0045 -0.0736 -0.2490
 5630OCT     C211260   4.107  19.064   1.079 -0.1799  0.0289 -0.4961
 5631OCT     C111261  14.282  13.174   9.763  0.1683 -0.0758  0.1065
 5631OCT     C211262  14.422  13.122  10.197 -0.0486 -0.0404 -0.1017
 5632OCT     C111263   5.887  15.948   3.962  0.2070  0.2364  0.1761
 5632OCT     C211264   6.091  15.556   4.069  0.0232  0.0966 -0.0007
 5633OCT     C111265   4.193  20.106  11.340 -0.2205  0.1804 -0.5171
 5633OCT     C211266   4.638  19.887  11.279  0.1275 -0.3212  0.1071
 5634OCT     C111267   1.327  12.574   4.624  0.1547 -0.0955  0.2156
 5634OCT     C211268   1.412  12.167   4.610 -0.0401 -0.2028 -0.2133
 5635OCT     C111269   1.775   2.296  20.912 -0.2842  0.0955 -0.0275
 5635OCT     C211270   1.402   1.975  20.848  0.0803 -0.0649  0.0816
 5636OCT     C111271   9.629   5.660  10.068  0.3541 -0.0063  0.1639
 5636OCT     C211272   9.679   5.859   9.614 -0.1609  0.0178  0.0983
 5637OCT     C111273  10.008  19.456   1.387  0.1145 -0.0042 -0.3678
 5637OCT     C211274  10.051  19.122   1.068  0.2413 -0.1637 -0.0058
 5638OCT     C111275  12.645   0.382  19.883 -0.2268 -0.3088 -0.2540
 5638OCT     C211276  12.989   0.186  19.603 -0.0543  0.1124  0.1026
 5639OCT     C111277  14.822  15.251   8.675 -0.0594 -0.3308  0.1196
 5639OCT     C211278  15.161  14.951   8.531 -0.0633  0.3983  0.2471
 5640OCT     C111279   5.069   1.253   1.559 -0.0686  0.2600 -0.1938
 5640OCT     C211280   5.031   0.816   1.801  0.1871 -0.2046  0.0815
 5641OCT     C111281   3.778  13.980   7.027  0.1446 -0.2013 -0.3485
 5641OCT     C211282   3.346  14.083   7.240  0.1323  0.3803  0.2353
 5642OCT     C111283  13.812   4.464   8.045 -0.3204 -0.0454  0.3252
 5642OCT     C211284  13.652   4.138   7.879 -0.0254 -0.2469  0.0067
 5643OCT     C111285   0.607  23.447  14.108  0.0835 -0.2534  0.0845
 5643OCT     C211286   1.038  23.442  14.327 -0.1720 -0.1603 -0.0693
 5644OCT     C111287  21.600  21.909  12.522  0.3094 -0.1783  0.0369
 5644OCT     C211288  21.302  21.539  12.634  0.0393 -0.0374 -0.1191
 5645OCT     C111289   7.187   1.499  15.825 -0.1315  0.1227  0.3551
 5645OCT     C211290   7.056   1.162  16.120 -0.2080 -0.2982 -0.1076
 5646OCT     C111291  22.661  17.303   0.777 -0.0994 -0.2597 -0.3721
 5646OCT     C211292  22.726  17.740   0.907 -0.1768 -0.1825 -0.1234
 5647OCT     C111293  16.528   1.110   6.006  0.0182  0.0790 -0.0824
 5647OCT     C211294  16.703   0.699   6.144 -0.0940  0.2316  0.2620
 5648OCT     C111295   5.492   5.568  14.784  0.4253  0.2870 -0.0275
 5648OCT     C211296   5.274   5.286  14.404  0.0281 -0.0824  0.1660
 5649OCT     C111297  13.183   4.994  11.243  0.1221  0.0006  0.1593
 5649OCT     C211298  13.078   5.440  11.168 -0.0628  0.3915  0.5678
 5650OCT     C111299   2.734  19.383  16.577 -0.3796 -0.3103  0.0460
 5650OCT     C211300   2.873  19.010  16.776  0.1023  0.4216  0.1098
 5651OCT     C111301   8.152  10.374  15.430 -0.0077 -0.4791 -0.0918
 5651OCT     C211302   8.648  10.255  15.452 -0.3207  0.1407  0.4160
 5652OCT     C111303  17.901  11.367  13.306 -0.1161  0.0668  0.0920
 5652OCT     C211304  17.793  11.784  13.484 -0.3633 -0.0604 -0.0840
 5653OCT     C111305  15.186  11.319   4.367 -0.0680 -0.2565 -0.3258
 5653OCT     C211306  15.560  11.111   4.185  0.0951 -0.0182 -0.2665
 5654OCT     C111307  19.258  15.567  15.496 -0.1761  0.0673  0.0708
 5654OCT     C211308  19.325  15.259  15.078  0.1699 -0.0674  0.3240
 5655OCT     C111309   0.959   9.468  21.022  0.0441  0.0224  0.2547
 5655OCT     C211310   1.308   9.293  21.286 -0.3014  0.0011  0.2331
 5656OCT     C111311  14.014   1.452   5.072  0.0079  0.1312  0.0773
 5656OCT     C211312  13.660   1.645   4.860 -0.1983  0.2668  0.1839
 5657OCT     C111313  21.379   6.386  23.057 -0.1367  0.0419 -0.1531
 5657OCT     C211314  21.294   5.922  23.244  0.0184  0.2108 -0.1702
 5658OCT     C111315  21.993   8.474  19.606  0.0866 -0.4000 -0.2016
 5658OCT     C211316  21.788   8.891  19.385 -0.0526 -0.0482  0.0919
 5659OCT     C111317  20.707  16.247  12.579  0.1315 -0.3449 -0.2174
 5659OCT     C211318  20.881  16.262  13.022  0.1949 -0.2193 -0.1211
 5660OCT     C111319   2.249  10.455   3.177  0.1884 -0.3260  0.2478
 5660OCT     C211320   2.605  10.292   2.983 -0.2043 -0.3929 -0.2109
 5661OCT     C111321   9.464   4.574  10.374 -0.0887  0.4227 -0.1329
 5661OCT     C211322   9.310   4.085  10.276  0.0238  0.0079 -0.1555
 5662OCT     C111323  19.012  21.220   1.840  0.1620 -0.3899 -0.0516
 5662OCT     C211324  18.591  21.222   2.134  0.1116  0.0735 -0.0714
 5663OCT     C111325   8.515  16.614   6.738 -0.3037 -0.2892 -0.1517
 5663OCT     C211326   8.477  16.538   7.193  0.0662  0.2840  0.4011
 5664OCT     C111327  15.581   2.504   2.310 -0.1220  0.3031  0.3955
 5664OCT     C211328  15.642   2.528   1.834 -0.1045 -0.4173  0.3840
 5665OCT     C111329   4.412  11.088  11.069 -0.4139 -0.1233 -0.2115
 5665OCT     C211330   4.517  11.150  10.633 -0.2789 -0.0746 -0.0831
 5666OCT     C111331   3.280  17.460  17.467  0.0559  0.2905  0.2620
 5666OCT     C211332   3.462  17.942  17.488 -0.2656  0.2476  0.2102
 5667OCT     C111333   3.358  18.117  14.567  0.2075 -0.0356 -0.0847
 5667OCT     C211334   3.150  17.820  14.243 -0.0735 -0.1627 -0.0452
 5668OCT     C111335   2.213   9.417  19.354 -0.1469  0.3469  0.4523
 5668OCT     C211336   1.871   9.160  19.333 -0.0794 -0.4631 -0.1140
 5669OCT     C111337   0.461   3.986   3.722 -0.0527 -0.0921  0.1586
 5669OCT     C211338   0.869   3.831   3.714  0.1649 -0.0913  0.6043
 5670OCT     C111339   1.571  20.479  17.616  0.2276 -0.0462  0.0258
 5670OCT     C211340   1.458  20.657  17.208 -0.1161  0.0956 -0.0480
 5671OCT     C111341   9.546  16.787   6.849 -0.2144 -0.0967 -0.0694
 5671OCT     C211342   9.596  17.258   6.843 -0.0762 -0.1387  0.1971
 5672OCT     C111343   6.483   8.398  22.154 -0.1002  0.0703  0.1732
 5672OCT     C211344   6.257   8.166  22.518  0.3721 -0.0973  0.1431
 5673OCT     C111345   0.462  21.940  22.308 -0.3158  0.3256  0.3511
 5673OCT     C211346   0.685  21.867  21.886 -0.1475 -0.1702  0.0122
 5674OCT     C111347   2.959  10.006   1.335  0.0986 -0.2840  0.0019
 5674OCT     C211348   2.549  10.291   1.389  0.0221 -0.1216 -0.3581
 5675OCT     C111349   8.521  20.771  18.323  0.2418 -0.1821 -0.2144
 5675OCT     C211350   8.382  20.333  18.152 -0.1790  0.0602  0.2153
 5676OCT     C111351  22.201   8.833  22.869 -0.3936  0.3758 -0.2643
 5676OCT     C211352  22.391   9.274  22.829 -0.1728 -0.0678 -0.0449
 5677OCT     C111353  11.101  16.998   4.612  0.0719  0.3176 -0.0518
 5677OCT     C211354  10.804  17.346   4.687  0.2029 -0.1042 -0.4678
 5678OCT     C111355  16.764   1.901   8.647 -0.1661  0.2167 -0.2952
 5678OCT     C211356  16.818   1.571   9.005 -0.0390 -0.0619  0.2854
 5679OCT     C111357   7.803  14.340   6.992 -0.2534 -0.0449  0.1763
 5679OCT     C211358   7.474  14.646   6.893 -0.1892 -0.0411  0.0301
 5680OCT     C111359  10.562  19.574   5.140 -0.0122  0.1270 -0.2286
 5680OCT     C211360  10.727  19.104   5.011  0.2260 -0.2020  0.1416
 5681OCT     C111361  12.832  20.997   0.030  0.1849  0.1173 -0.2516
 5681OCT     C211362  13.199  20.822   0.385  0.0284  0.3055  0.0815
 5682OCT     C111363  12.925  16.811  19.988 -0.2487 -0.2150 -0.1225
 5682OCT     C211364  12.514  16.608  19.813  0.0774 -0.2213  0.0347
 5683OCT     C111365  12.037  12.451  12.224  0.0823 -0.1155 -0.1594
 5683OCT     C211366  12.458  12.626  12.254  0.0056  0.3515 -0.0837
 5684OCT     C111367  17.495   7.844  17.597  0.0062 -0.1181 -0.0983
 5684OCT     C211368  17.438   7.956  17.088  0.0891 -0.2068 -0.1370
 5685OCT     C111369   6.126  22.958   0.170  0.5233 -0.1226  0.1208
 5685OCT     C211370   6.095  23.363   0.380  0.3984 -0.1086  0.1247
 5686OCT     C111371  16.032  11.055   4.869 -0.1082 -0.1442  0.1615
 5686OCT     C211372  15.853  11.376   4.577 -0.5389  0.0156 -0.2719
 5687OCT     C111373   8.030  22.664   2.738 -0.1538 -0.0524  0.0573
 5687OCT     C211374   8.480  22.629   2.838  0.0843  0.1475  0.0482
 5688OCT     C111375   4.275  13.480   8.312  0.0710 -0.3712  0.0386
 5688OCT     C211376   3.903  13.686   8.472 -0.0299 -0.0736  0.0866
 5689OCT     C111377  22.563  18.931  14.957 -0.0063  0.1812 -0.1210
 5689OCT     C211378  22.254  18.748  14.691  0.2776  0.0882  0.0208
 5690OCT     C111379   8.689  14.429  19.258 -0.3405  0.0364 -0.2512
 5690OCT     C211380   8.348  14.313  19.544  0.0933 -0.0535  0.1341
 5691OCT     C111381  23.457  17.112  18.989  0.0704 -0.1653 -0.2157
 5691OCT     C211382   0.048  16.984  19.276  0.1672 -0.0974  0.1051
 5692OCT     C111383  17.323  18.499  19.861  0.1037 -0.1195  0.2371
 5692OCT     C211384  16.987  18.159  19.868 -0.1000 -0.0063 -0.1199
 5693OCT     C111385  17.585  22.191   7.068 -0.1155 -0.2565  0.0734
 5693OCT     C211386  17.317  22.538   7.058  0.0748  0.1524  0.0870
 5694OCT     C111387  20.158  18.876  22.206 -0.1274 -0.0235 -0.0719
 5694OCT     C211388  20.086  18.524  21.872 -0.0985 -0.1934  0.0276
 5695OCT     C111389  16.597  11.223  17.767  0.2317  0.0188 -0.3030
 5695OCT     C211390  17.048  11.025  17.787 -0.2136  0.1987  0.0193
 5696OCT     C111391   4.615  10.385   9.056 -0.0185  0.0291 -0.1545
 5696OCT     C211392   4.866  10.023   8.837 -0.0292  0.1403 -0.1456
 5697OCT     C111393   8.898  19.643  20.041  0.2838 -0.2041 -0.4659
 5697OCT     C211394   8.692  20.068  20.015 -0.1124  0.0974 -0.1085
 5698OCT     C111395  15.024  13.829  22.609  0.0358  0.0950  0.0652
 5698OCT     C211396  15.006  13.938  22.130  0.2527 -0.2951 -0.4559
 5699OCT     C111397   5.173  22.517   2.877  0.2204 -0.2130 -0.1312
 5699OCT     C211398   5.014  22.079   2.829  0.3522  0.2357 -0.3264
 5700OCT     C111399   1.098   4.843  20.668  0.2003  0.2710  0.2044
 5700OCT     C211400   0.737   4.847  20.393  0.0597 -0.2322 -0.1839
 5701OCT     C111401   6.950   4.835   3.392  0.2124 -0.1391  0.2567
 5701OCT     C211402   6.695   5.092   3.599  0.2214  0.0349  0.0081
 5702OCT     C111403   4.314  16.388   6.779 -0.1416 -0.1183  0.2258
 5702OCT     C211404   4.553  16.243   7.146  0.3872  0.2484 -0.1350
 5703OCT     C111405   8.762  16.114  23.243  0.1206 -0.1002  0.1925
 5703OCT     C211406   9.178  16.318  23.172  0.0261  0.2211 -0.1184
 5704OCT     C111407  20.296  11.088  18.159  0.1710 -0.0012 -0.0261
 5704OCT     C211408  19.975  10.875  18.326 -0.5036 -0.0668  0.2981
 5705OCT     C111409  21.773   5.033  21.750 -0.0190  0.2126  0.5117
 5705OCT     C211410  21.715   5.431  22.006 -0.1982  0.3898 -0.1079
 5706OCT     C111411   3.338  16.406  17.733 -0.3407 -0.0511  0.1242
 5706OCT     C211412   3.595  16.656  17.930 -0.1519  0.0982 -0.3858
 5707OCT     C111413  13.244   9.080  19.870 -0.2193  0.0749  0.0276
 5707OCT     C211414  12.943   9.405  19.710  0.0991  0.1479 -0.0029
 5708OCT     C111415  19.559   3.475  10.447 -0.2251  0.2160 -0.1798
 5708OCT     C211416  19.506   3.826  10.762  0.0664  0.1514  0.1964
 5709OCT     C111417  12.417  20.875   5.884  0.2935  0.0057  0.0818
 5709OCT     C211418  12.613  20.414   6.012 -0.1192 -0.1335  0.0924
 5710OCT     C111419  21.967   3.331  16.926  0.3471  0.1140  0.3154
 5710OCT     C211420  21.673   3.716  16.842 -0.2935 -0.2078 -0.1531
 5711OCT     C111421  12.848  23.335   6.289  0.1518  0.2500 -0.0169
 5711OCT     C211422  12.440  23.544   6.396  0.2111 -0.1742 -0.3447
 5712OCT     C111423  10.679  19.492  13.607  0.2791  0.0672  0.0312
 5712OCT     C211424  10.557  19.428  13.150 -0.1890 -0.0772  0.2873
 5713OCT     C111425   5.130   9.937  15.748 -0.1238 -0.3124  0.4865
 5713OCT     C211426   4.835   9.802  15.399 -0.1800  0.0685 -0.0545
 5714OCT     C111427  11.871  16.793   3.120 -0.0395 -0.3172 -0.3851
 5714OCT     C211428  11.841  16.672   3.603 -0.2548 -0.2671  0.3160
 5715OCT     C111429  17.113   3.514  21.914 -0.2093  0.0088 -0.1092
 5715OCT     C211430  17.136   3.006  21.818  0.1669  0.3330  0.0347
 5716OCT     C111431  22.728   8.166   9.413 -0.1039 -0.1903  0.2596
 5716OCT     C211432  22.934   8.122   9.008  0.3265  0.2199  0.2171
 5717OCT     C111433   9.475   7.707  14.615  0.0551 -0.0609  0.4603
 5717OCT     C211434   9.081   7.618  14.385 -0.0684  0.0703 -0.0748
 5718OCT     C111435   6.004   5.544   5.940 -0.0008  0.0722  0.3844
 5718OCT     C211436   5.999   5.612   6.337  0.0711 -0.1371  0.3032
 5719OCT     C111437  12.698  19.533   2.450  0.1204 -0.2318  0.2517
 5719OCT     C211438  12.786  20.028   2.429 -0.4346 -0.0475 -0.2089
 5720OCT     C111439   6.573  22.859  14.034 -0.2580  0.1691 -0.0511
 5720OCT     C211440   6.668  22.412  14.004 -0.0788 -0.2907 -0.2830
 5721OCT     C111441  22.106  14.118   8.930 -0.1040 -0.3018 -0.2463
 5721OCT     C211442  21.644  14.293   8.946 -0.1756  0.2742 -0.3852
 5722OCT     C111443  12.923   7.214   8.185 -0.0403  0.1915 -0.1297
 5722OCT     C211444  13.059   7.625   8.201  0.1191  0.1454 -0.1977
 5723OCT     C111445   1.442  18.453  11.901  0.0832 -0.0204  0.2183
 5723OCT     C211446   1.278  18.054  12.102  0.0498 -0.5835 -0.1239
 5724OCT     C111447  12.193  22.661  10.329 -0.0507  0.4011  0.2773
 5724OCT     C211448  12.057  22.512   9.980  0.0861  0.1053  0.3536
 5725OCT     C111449  11.936   3.746  17.514 -0.0234 -0.0302 -0.1738
 5725OCT     C211450  12.158   3.602  17.931 -0.1012  0.5138  0.0423
 5726OCT     C111451  19.465   1.798   2.894 -0.0778  0.1532  0.1196
 5726OCT     C211452  19.041   1.958   2.849  0.4607  0.0290 -0.0720
 5727OCT     C111453  23.504   9.290   0.140  0.2203  0.2876 -0.1240
 5727OCT     C211454  23.214   9.041  23.602 -0.2928 -0.2775  0.0337
 5728OCT     C111455   2.549   8.209   1.932 -0.0851  0.2618 -0.0486
 5728OCT     C211456   2.339   8.145   2.383  0.2268  0.1554  0.0359
 5729OCT     C111457   1.349  16.745  14.144  0.0847  0.0383 -0.0582
 5729OCT     C211458   1.119  16.302  14.107 -0.0114  0.1088 -0.1706
 5730OCT     C111459  21.943  12.506   0.948  0.3640  0.1974  0.2485
 5730OCT     C211460  21.600  12.794   1.019 -0.0590 -0.3161  0.1339
 5731OCT     C111461  21.503   5.287   0.323  0.1729  0.2271  0.0889
 5731OCT     C211462  21.344   5.042  23.651  0.0040  0.1472 -0.0008
 5732OCT     C111463  18.807  15.144  11.610 -0.0350 -0.1452  0.0573
 5732OCT     C211464  18.768  15.451  11.869 -0.1024  0.0186 -0.3383
 5733OCT     C111465   6.612  23.444  14.018  0.2775 -0.0242  0.0360
 5733OCT     C211466   6.668  23.497  13.567 -0.1762  0.3464  0.1684
 5734OCT     C111467  20.194  19.717  21.052  0.0422  0.1790 -0.1668
 5734OCT     C211468  20.040  19.585  21.485  0.0886 -0.1983 -0.0508
 5735OCT     C111469  20.702  15.139   9.541  0.1709 -0.1611 -0.2314
 5735OCT     C211470  20.918  14.905   9.189  0.2311 -0.3150  0.2909
 5736OCT     C111471   7.089  12.205  11.138  0.1971  0.4759 -0.0450
 5736OCT     C211472   6.851  12.085  10.708  0.3716 -0.1079  0.0227
 5737OCT     C111473  14.522  12.764   1.663  0.0956  0.2862 -0.2442
 5737OCT     C211474  14.540  12.489   1.271 -0.4436  0.1274  0.1164
 5738OCT     C111475   5.149   2.636   9.572 -0.1885  0.2819 -0.3070
 5738OCT     C211476   4.917   2.295   9.367 -0.0238 -0.1110 -0.1854
 5739OCT     C111477  12.908   6.997  18.785 -0.2036 -0.0029  0.1257
 5739OCT     C211478  12.978   6.654  19.054  0.0444  0.0614  0.0557
 5740OCT     C111479  15.563   7.047  18.326 -0.1932 -0.2064  0.4039
 5740OCT     C211480  15.245   7.223  18.576  0.3707  0.2478 -0.0212
 5741OCT     C111481   2.724  20.217  23.591 -0.2936 -0.1624 -0.0505
 5741OCT     C211482   2.339  19.998   0.010 -0.2713 -0.0902  0.1100
 5742OCT     C111483   8.277  21.434   3.411  0.0911 -0.2317  0.1030
 5742OCT     C211484   8.668  21.124   3.456  0.0058  0.3070 -0.2417
 5743OCT     C111485   1.069  20.979   3.711  0.0096 -0.0437  0.2102
 5743OCT     C211486   1.395  21.182   3.473 -0.0143  0.1285  0.3259
 5744OCT     C111487   4.632  12.249  16.563  0.3250  0.0773  0.0687
 5744OCT     C211488   4.680  12.233  16.103  0.0473  0.1144  0.2563
 5745OCT     C111489  13.377   2.677  13.664 -0.0470 -0.2904  0.1625
 5745OCT     C211490  13.799   2.862  13.442  0.0788  0.4817  0.1420
 5746OCT     C111491  15.462   3.011   8.337 -0.3413 -0.0093 -0.0090
 5746OCT     C211492  15.055   2.786   8.336 -0.0198  0.1695  0.1544
 5747OCT     C111493   2.418   6.534  15.569  0.1305 -0.0477 -0.2094
 5747OCT     C211494   2.292   6.117  15.697 -0.1183  0.3179  0.0471
 5748OCT     C111495  18.574   6.900  20.802 -0.1189 -0.1147 -0.1119
 5748OCT     C211496  18.628   7.196  20.461 -0.0284  0.0809 -0.0292
 5749OCT     C111497   4.155  21.705   4.049 -0.0913 -0.0433  0.1179
 5749OCT     C211498   3.845  21.425   3.870  0.1309 -0.1717 -0.1937
 5750OCT     C111499   1.678   0.338   5.270  0.2080 -0.0436  0.3990
 5750OCT     C211500   1.473   0.082   5.627 -0.1759  0.0618  0.0528
 5751OCT     C111501   7.853  22.194  22.134  0.0359  0.0179  0.0843
 5751OCT     C211502   8.073  21.779  22.216  0.0331 -0.4351  0.1861
 5752OCT     C111503   0.040   2.579  14.007  0.4105 -0.1472 -0.0384
 5752OCT     C211504  23.339   2.543  13.820 -0.2886 -0.2333 -0.4720
 5753OCT     C111505  18.773  16.089  17.839  0.0080 -0.3644  0.0566
 5753OCT     C211506  19.159  16.349  18.069  0.0924  0.0211 -0.1593
 5754OCT     C111507   4.891  15.720   5.497 -0.4890 -0.0448 -0.1173
 5754OCT     C211508   4.505  16.057   5.521  0.1271 -0.0684  0.1955
 5755OCT     C111509  12.980  21.403  18.583 -0.3540  0.2892 -0.0241
 5755OCT     C211510  13.330  21.118  18.735  0.0890 -0.3589 -0.5145
 5756OCT     C111511   5.006   5.064   0.433 -0.3050  0.1530  0.0577
 5756OCT     C211512   4.829   4.668   0.605  0.0416  0.0898 -0.1287
 5757OCT     C111513   0.527   9.297  21.710 -0.3817 -0.1131  0.1451
 5757OCT     C211514   0.985   9.260  21.616 -0.0255  0.3956 -0.0406
 5758OCT     C111515   9.271   0.342   6.191  0.0155  0.2339 -0.0539
 5758OCT     C211516   8.954   0.590   6.400 -0.0934 -0.2554 -0.2027
 5759OCT     C111517   1.204  19.991  10.467  0.1544 -0.0797 -0.0142
 5759OCT     C211518   1.247  20.068  10.936  0.2995 -0.1379 -0.2215
 5760OCT     C111519  21.641  17.799  15.473  0.4512  0.0824 -0.0928
 5760OCT     C211520  21.706  18.042  15.044 -0.0114 -0.0505 -0.0975
 5761OCT     C111521  14.488  17.919  15.426  0.1337  0.0030 -0.1166
 5761OCT     C211522  14.594  17.473  15.327  0.2234 -0.0020  0.3493
 5762OCT     C111523  13.714   2.704   0.822  0.1971  0.2323 -0.0899
 5762OCT     C211524  13.853   3.017   0.506 -0.4443  0.0727 -0.1116
 5763OCT     C111525   3.206   6.620   7.091  0.0204 -0.2218 -0.2296
 5763OCT     C211526   3.407   6.404   7.419  0.0961 -0.1284  0.1190
 5764OCT     C111527   0.544   0.411  11.485 -0.1155  0.2073 -0.0499
 5764OCT     C211528   0.331  23.741  11.534 -0.1903  0.0687 -0.3111
 5765OCT     C111529   4.186   4.655   5.285 -0.3750  0.0499  0.0019
 5765OCT     C211530   4.255   4.875   4.864 -0.2288 -0.2282 -0.1497
 5766OCT     C111531   9.251  17.694   2.446  0.1582 -0.1927  0.1219
 5766OCT     C211532   9.276  17.250   2.408 -0.4100 -0.0342  0.1821
 5767OCT     C111533   3.163  17.800   1.605  0.1833  0.1763 -0.1679
 5767OCT     C211534   3.135  18.156   1.304  0.2830  0.4975 -0.3741
 5768OCT     C111535  10.448   0.618   6.399 -0.1571  0.0741  0.0000
 5768OCT     C211536  10.122   0.461   6.067 -0.2515  0.1644 -0.2186
 5769OCT     C111537  23.660  13.425  14.304  0.1295  0.3517  0.0433
 5769OCT     C211538  23.388  13.066  14.415  0.4449 -0.1292  0.0851
 5770OCT     C111539   0.575  15.428   3.149  0.1273  0.0408 -0.0239
 5770OCT     C211540   0.179  15.602   3.168  0.3628 -0.0586 -0.1032
 5771OCT     C111541  15.630   7.203  21.159  0.0188 -0.1583  0.1810
 5771OCT     C211542  15.393   6.865  21.169 -0.0175  0.1345  0.3846
 5772OCT     C111543   8.068   2.544  11.339  0.2714 -0.1894  0.0178
 5772OCT     C211544   7.903   2.646  11.755  0.0672  0.2252  0.0172
 5773OCT     C111545  19.733  20.281  10.809  0.2579  0.3416  0.1222
 5773OCT     C211546  20.159  20.112  10.758 -0.1310 -0.2134 -0.2818
 5774OCT     C111547   7.247  12.548  21.729 -0.0828  0.1340 -0.0605
 5774OCT     C211548   7.055  12.902  21.598 -0.0058  0.0767 -0.1490
 5775OCT     C111549  21.433  20.502   7.579  0.0895 -0.3299  0.0846
 5775OCT     C211550  21.602  20.288   7.178  0.2509  0.0321  0.1197
 5776OCT     C111551  12.784  23.418  21.538 -0.1437  0.1657  0.3926
 5776OCT     C211552  12.924  23.000  21.461 -0.2504 -0.1929  0.1802
 5777OCT     C111553   7.596   0.421   6.660  0.1005  0.2287  0.1877
 5777OCT     C211554   7.364   0.777   6.490  0.2179 -0.3059  0.4490
 5778OCT     C111555   2.446   0.451  18.024 -0.1232  0.2027 -0.1413
 5778OCT     C211556   2.538   0.870  18.217 -0.3832  0.0094  0.1479
 5779OCT     C111557   9.246  15.116  15.433 -0.2609  0.3266 -0.0745
 5779OCT     C211558   9.354  14.784  15.760  0.2420 -0.3335  0.3223
 5780OCT     C111559  15.323  14.460  12.725 -0.1391 -0.3325  0.7129
 5780OCT     C211560  15.457  14.476  12.286 -0.1730 -0.3302 -0.2004
 5781OCT     C111561  12.053   8.588   9.667 -0.0247  0.3084 -0.0516
 5781OCT     C211562  11.828   8.978   9.810  0.0015  0.1556 -0.0623
 5782OCT     C111563  16.241   6.322   2.216 -0.1820 -0.1414  0.1789
 5782OCT     C211564  16.184   5.867   2.409  0.0209 -0.0670 -0.1175
 5783OCT     C111565  22.146  14.633   4.388  0.1358  0.1861  0.1653
 5783OCT     C211566  22.336  14.253   4.344 -0.1059 -0.0616 -0.1056
 5784OCT     C111567   7.625  14.596  20.184  0.2078  0.1072  0.0346
 5784OCT     C211568   7.926  14.867  20.381 -0.0678 -0.1436  0.0613
 5785OCT     C111569  11.088   6.151   3.365  0.0335  0.0952  0.3285
 5785OCT     C211570  10.835   5.754   3.525 -0.3750 -0.2836  0.0005
 5786OCT     C111571  21.889  17.785  20.555  0.0906  0.0628 -0.1296
 5786OCT     C211572  21.688  17.551  20.280 -0.0190  0.0318 -0.2083
 5787OCT     C111573  10.723   3.639   0.153 -0.3486  0.0965 -0.0204
 5787OCT     C211574  10.365   3.366   0.211 -0.1991 -0.0068 -0.1078
 5788OCT     C111575  20.392   7.038   1.091 -0.1342  0.2064  0.1967
 5788OCT     C211576  20.892   7.006   1.072 -0.1166 -0.2534  0.0386
 5789OCT     C111577  11.556   1.319  22.167  0.1171  0.1015 -0.1163
 5789OCT     C211578  11.282   0.887  22.162  0.1623  0.2830  0.0080
 5790OCT     C111579  15.674  21.101  23.543 -0.0107  0.0494 -0.2004
 5790OCT     C211580  15.640  21.354   0.157 -0.1059  0.0496 -0.1379
 5791OCT     C111581  14.422  15.955   2.770 -0.0087  0.0607 -0.2055
 5791OCT     C211582  14.308  15.638   2.453 -0.0076 -0.1043  0.1882
 5792OCT     C111583  11.338  10.578   0.919 -0.3468 -0.1785 -0.0192
 5792OCT     C211584  11.340  10.149   0.705 -0.1633 -0.2671 -0.0117
 5793OCT     C111585   8.096   2.437  16.479 -0.1044  0.3010 -0.0439
 5793OCT     C211586   8.553   2.309  16.307 -0.2269 -0.1837  0.1407
 5794OCT     C111587  12.630   2.282  11.849  0.5225  0.1162 -0.0728
 5794OCT     C211588  12.972   2.494  11.846 -0.1035 -0.0188 -0.1886
 5795OCT     C111589   8.161   0.550   0.659 -0.0811 -0.1349 -0.4838
 5795OCT     C211590   8.152   0.881   0.342 -0.0349 -0.2441  0.0194
 5796OCT     C111591  15.509  18.419  22.852  0.1342  0.1354  0.3425
 5796OCT     C211592  15.007  18.497  22.811  0.1190  0.0486  0.2215
 5797OCT     C111593  19.894   9.213  15.894  0.0623 -0.0492 -0.0154
 5797OCT     C211594  20.207   8.917  15.742  0.2059  0.0998  0.1027
 5798OCT     C111595  16.196  15.572   0.773  0.1455 -0.0274 -0.1778
 5798OCT     C211596  15.718  15.349   0.895 -0.1288  0.1289  0.2670
 5799OCT     C111597  13.622  12.115  15.145 -0.1779  0.3446  0.2298
 5799OCT     C211598  13.307  11.903  15.368 -0.0120 -0.2657  0.2401
 5800OCT     C111599  12.046  16.729   0.076 -0.0525 -0.0574  0.1194
 5800OCT     C211600  12.190  16.325   0.106  0.2321  0.1377  0.1184
 5801OCT     C111601   7.774  19.588  19.206  0.0760 -0.1082  0.4460
 5801OCT     C211602   7.394  19.266  19.218 -0.2159  0.1140 -0.1388
 5802OCT     C111603  17.484   1.431  17.692  0.2552  0.0317  0.1478
 5802OCT     C211604  17.230   1.747  17.953  0.1285 -0.0111  0.1177
 5803OCT     C111605   0.026   3.481  17.214 -0.1923 -0.1571  0.0620
 5803OCT     C211606   0.051   3.707  16.802  0.3268  0.2790 -0.1561
 5804OCT     C111607  16.242   8.824  15.683 -0.0704 -0.0044 -0.0365
 5804OCT     C211608  16.725   8.764  15.678 -0.4246  0.1171 -0.0025
 5805OCT     C111609   4.588   3.940  19.758  0.1940  0.5648  0.0770
 5805OCT     C211610   4.564   4.075  20.182  0.2253 -0.3908  0.0563
 5806OCT     C111611  11.113   4.942  20.382 -0.0777 -0.1305 -0.0536
 5806OCT     C211612  10.899   5.352  20.460 -0.1251  0.0216  0.0233
 5807OCT     C111613  10.974  16.827  11.672 -0.0108 -0.1292  0.1621
 5807OCT     C211614  10.927  16.372  11.644 -0.1831 -0.1044 -0.1167
 5808OCT     C111615  16.496  20.399  13.181 -0.0684  0.1800 -0.0833
 5808OCT     C211616  16.388  20.558  12.770  0.1084  0.3112 -0.1864
 5809OCT     C111617  17.919   5.448  17.270  0.1795 -0.0434  0.2006
 5809OCT     C211618  17.445   5.440  17.370 -0.2262 -0.1509  0.0425
 5810OCT     C111619   3.800   8.411  13.671 -0.3414  0.0916 -0.4247
 5810OCT     C211620   3.519   8.689  13.501  0.1124  0.1580 -0.0351
 5811OCT     C111621   1.929  15.094   1.142 -0.2459 -0.0279 -0.0931
 5811OCT     C211622   1.972  15.567   1.164  0.0784 -0.0692 -0.0201
 5812OCT     C111623  21.469   7.465  13.633 -0.0291 -0.0172 -0.2871
 5812OCT     C211624  21.087   7.559  13.435  0.1847  0.0018  0.0826
 5813OCT     C111625   6.777   9.447   1.353  0.2853 -0.1851 -0.1934
 5813OCT     C211626   6.938   9.053   1.561 -0.0107 -0.0679  0.2666
 5814OCT     C111627   5.537  11.990  13.722 -0.0678  0.0075  0.1478
 5814OCT     C211628   5.610  12.410  13.574  0.1600  0.2175 -0.0836
 5815OCT     C111629  11.189  19.752   0.798  0.2260 -0.0733  0.0654
 5815OCT     C211630  11.667  19.713   0.918  0.0897  0.1507  0.1725
 5816OCT     C111631   2.438   7.618   4.280  0.2347 -0.2065  0.2465
 5816OCT     C211632   2.765   7.388   3.996  0.0596  0.1728 -0.1000
 5817OCT     C111633  12.440   4.171  13.250  0.0538  0.1552  0.3004
 5817OCT     C211634  12.172   3.839  13.385  0.0916  0.1878 -0.0592
 5818OCT     C111635  12.623  12.811   4.916  0.3457  0.0013 -0.1358
 5818OCT     C211636  12.886  12.535   4.631  0.3844  0.0884  0.1401
 5819OCT     C111637  19.425  22.869   4.509  0.3311 -0.1432 -0.3060
 5819OCT     C211638  19.469  22.995   4.104 -0.0521  0.0861  0.2282
 5820OCT     C111639   0.025  17.477  19.174 -0.1764  0.1075 -0.1312
 5820OCT     C211640   0.388  17.612  18.925  0.1408 -0.0210  0.5830
 5821OCT     C111641  17.055  19.708  17.391  0.1658 -0.1009 -0.1409
 5821OCT     C211642  16.727  19.525  17.156 -0.2308  0.1498  0.5171
 5822OCT     C111643   5.239   9.899   0.822 -0.1837 -0.0597  0.0289
 5822OCT     C211644   4.891   9.836   1.118  0.2376  0.0809 -0.1263
 5823OCT     C111645   5.628   2.636   2.595  0.0801 -0.0477  0.0462
 5823OCT     C211646   5.794   2.225   2.501 -0.1847 -0.1399  0.0944
 5824OCT     C111647  16.852  12.502  21.436  0.0941  0.0549  0.0532
 5824OCT     C211648  16.451  12.366  21.336  0.0036  0.3969 -0.1621
 5825OCT     C111649   3.708   7.237   0.315  0.0447 -0.1609  0.2012
 5825OCT     C211650   3.332   7.529   0.345  0.4381  0.2425 -0.0393
 5826OCT     C111651   3.675   4.567  17.091  0.0535 -0.1993 -0.0158
 5826OCT     C211652   3.158   4.504  17.175  0.1134 -0.1337  0.0804
 5827OCT     C111653  17.447  20.789  19.508 -0.1548  0.2514 -0.0455
 5827OCT     C211654  17.777  20.721  19.242 -0.1027 -0.1666  0.0006
 5828OCT     C111655  14.788  19.295   1.821  0.1271 -0.0151  0.1957
 5828OCT     C211656  14.821  18.949   1.478 -0.3920 -0.0594 -0.3589
 5829OCT     C111657  18.259  22.155   3.523  0.0660 -0.0638  0.0839
 5829OCT     C211658  18.129  22.385   3.137 -0.0736 -0.0918 -0.2119
 5830OCT     C111659   0.266   5.539   7.603 -0.0174 -0.0099 -0.0680
 5830OCT     C211660  23.580   5.742   7.500 -0.3529 -0.2832 -0.2542
 5831OCT     C111661  20.191  19.956  22.692  0.0008 -0.0456  0.0465
 5831OCT     C211662  20.138  19.884  22.222  0.5599  0.0231  0.1533
 5832OCT     C111663  10.030   6.039  10.508  0.5140  0.0692  0.0018
 5832OCT     C211664  10.442   6.022  10.506  0.3939  0.0607 -0.0534
 5833OCT     C111665  17.308   5.893   9.774 -0.3710 -0.1045  0.1349
 5833OCT     C211666  17.176   5.607  10.100 -0.0475 -0.0545 -0.2810
 5834OCT     C111667  22.454  20.378  22.424 -0.0387 -0.2699  0.7232
 5834OCT     C211668  22.482  20.791  22.235 -0.3360 -0.0040  0.2012
 5835OCT     C111669  18.110   1.039   5.941  0.0307 -0.1451 -0.3847
 5835OCT     C211670  17.722   0.727   5.936  0.1009  0.0290  0.1258
 5836OCT     C111671  13.669  19.550   9.121  0.3683 -0.1994 -0.1563
 5836OCT     C211672  13.364  19.258   8.867  0.2467 -0.0791  0.4955
 5837OCT     C111673  18.025   4.262  22.746 -0.1375 -0.1669 -0.1484
 5837OCT     C211674  18.057   4.419  23.182  0.4931 -0.2046 -0.3275
 5838OCT     C111675  13.156  19.627  12.105 -0.2162 -0.0784 -0.0387
 5838OCT     C211676  13.374  19.990  11.971  0.3617 -0.0719 -0.2048
 5839OCT     C111677  11.058  12.370  18.497  0.1953 -0.1428  0.1524
 5839OCT     C211678  11.418  12.167  18.704 -0.7126  0.2119 -0.0146
 5840OCT     C111679   2.632   6.625  16.450  0.0607  0.3778 -0.1490
 5840OCT     C211680   2.204   6.409  16.495  0.1708  0.0722 -0.0226
 5841OCT     C111681  21.167  16.988   7.906 -0.3167  0.0880 -0.3529
 5841OCT     C211682  21.222  17.173   7.490  0.2296 -0.2975  0.3333
 5842OCT     C111683   1.761  11.792  14.084 -0.0357  0.1784  0.1616
 5842OCT     C211684   1.379  11.748  14.310 -0.1358 -0.0750  0.0194
 5843OCT     C111685  11.344  13.728  23.723 -0.0078  0.2158  0.0219
 5843OCT     C211686  11.792  13.630   0.154  0.2977 -0.1155 -0.0883
 5844OCT     C111687   5.661  12.446  22.895  0.1026  0.1881  0.0147
 5844OCT     C211688   5.528  12.875  22.873  0.1356  0.3555 -0.3352
 5845OCT     C111689   3.807   5.234  22.653  0.0432 -0.2517  0.0457
 5845OCT     C211690   3.881   5.053  22.239  0.1776  0.1547  0.2201
 5846OCT     C111691  17.700  18.304   0.905  0.0547  0.2251  0.0690
 5846OCT     C211692  17.786  18.003   1.250  0.1191 -0.0172 -0.0292
 5847OCT     C111693   8.685  11.488  13.189 -0.0480  0.0416 -0.1815
 5847OCT     C211694   8.592  11.821  12.878  0.1034  0.0962  0.0910
 5848OCT     C111695   9.455  22.914   6.658 -0.4077  0.0695 -0.0266
 5848OCT     C211696   9.352  23.364   6.624  0.2511  0.1896  0.1128
 5849OCT     C111697   6.555   9.482   4.788  0.0794  0.0531  0.0424
 5849OCT     C211698   6.370   9.703   4.385  0.0554  0.2374 -0.0215
 5850OCT     C111699   0.908   1.695   7.988  0.0689  0.0112 -0.0130
 5850OCT     C211700   1.079   1.971   7.659 -0.1515 -0.1615 -0.0032
 5851OCT     C111701  20.965   2.120  19.245 -0.1863  0.0926 -0.1897
 5851OCT     C211702  20.721   2.174  18.829  0.3122 -0.0129 -0.2477
 5852OCT     C111703  15.345  16.657   0.816 -0.0622  0.1649 -0.6814
 5852OCT     C211704  15.610  17.009   0.662 -0.0965  0.2121  0.0049
 5853OCT     C111705  22.801  21.819   8.114 -0.3805 -0.4850  0.1019
 5853OCT     C211706  22.905  21.817   7.659 -0.5051 -0.1155  0.3320
 5854OCT     C111707   4.855   9.021  20.465 -0.1087  0.1439 -0.1541
 5854OCT     C211708   4.966   8.649  20.216 -0.0468  0.2787  0.1321
 5855OCT     C111709  22.031   7.779  17.603 -0.2018  0.1266 -0.0298
 5855OCT     C211710  22.431   8.053  17.512 -0.1173 -0.2774 -0.0518
 5856OCT     C111711  12.666  21.663   5.537  0.0138  0.3154  0.0909
 5856OCT     C211712  13.044  21.730   5.239 -0.1100 -0.4200  0.0807
 5857OCT     C111713   9.758   8.229  23.024 -0.1079 -0.3129 -0.2648
 5857OCT     C211714  10.152   8.150  23.210  0.0751  0.1801 -0.2573
 5858OCT     C111715  18.077  14.558  16.359 -0.1572 -0.3913 -0.3151
 5858OCT     C211716  18.502  14.847  16.304 -0.6190  0.0049  0.1195
 5859OCT     C111717   5.663   5.492   6.820 -0.0827  0.1118  0.1897
 5859OCT     C211718   5.214   5.384   6.862  0.0840 -0.4640 -0.2881
 5860OCT     C111719   5.995  11.559  20.329 -0.0492 -0.1964 -0.1317
 5860OCT     C211720   5.840  11.923  20.581 -0.1414  0.0879 -0.3478
 5861OCT     C111721  13.567  21.161  16.182 -0.3017  0.0435  0.4122
 5861OCT     C211722  13.980  21.048  16.288  0.1208 -0.0862 -0.0490
 5862OCT     C111723  12.691  20.133  23.292 -0.2504  0.0159 -0.1399
 5862OCT     C211724  12.418  19.739  23.324 -0.0031 -0.0678  0.1134
 5863OCT     C111725  11.865  13.175  11.529  0.1146 -0.0953  0.0931
 5863OCT     C211726  12.061  13.409  11.858  0.1069 -0.1633  0.2008
 5864OCT     C111727  16.020  18.991  20.294 -0.0328  0.4343  0.3787
 5864OCT     C211728  15.700  18.718  20.491  0.0520  0.1514 -0.0034
 5865OCT     C111729  10.443   2.103   6.259  0.0841  0.3108  0.1705
 5865OCT     C211730  10.482   2.453   6.513  0.3319 -0.3685 -0.0138
 5866OCT     C111731   5.870  13.942   6.411  0.3848 -0.0498  0.0960
 5866OCT     C211732   5.708  14.193   6.109 -0.2054  0.2348  0.1065
 5867OCT     C111733  17.807   4.372  14.080 -0.0748  0.2227  0.0539
 5867OCT     C211734  17.353   4.432  14.115  0.0019 -0.3892 -0.0144
 5868OCT     C111735  15.872  11.964   8.655 -0.1122 -0.0977 -0.2176
 5868OCT     C211736  15.919  12.215   8.262 -0.5832 -0.4378 -0.3484
 5869OCT     C111737  13.988   5.937  10.514  0.1197 -0.1220 -0.1000
 5869OCT     C211738  13.696   5.661  10.308 -0.3036  0.3802  0.1354
 5870OCT     C111739  12.318   0.149   5.999 -0.3181  0.2360  0.1118
 5870OCT     C211740  12.121  23.628   5.726 -0.0948 -0.1514  0.0152
 5871OCT     C111741  12.201   0.572  11.974 -0.0503 -0.3287 -0.2133
 5871OCT     C211742  12.306   0.199  12.199  0.1480  0.0154 -0.0613
 5872OCT     C111743  22.005   7.150   4.731 -0.2626 -0.1837 -0.1420
 5872OCT     C211744  21.999   6.972   4.248  0.1323  0.0310 -0.2240
 5873OCT     C111745  15.801   7.279  20.013 -0.0980 -0.2554 -0.0333
 5873OCT     C211746  16.149   7.520  20.278  0.0854 -0.1067 -0.1177
 5874OCT     C111747   6.244   1.944  18.409 -0.0704 -0.0781  0.3286
 5874OCT     C211748   5.947   2.167  18.596  0.3206 -0.1255 -0.1709
 5875OCT     C111749   1.645  12.415  12.218  0.3703  0.1926  0.1581
 5875OCT     C211750   1.323  12.111  12.367 -0.1133 -0.0152 -0.2302
 5876OCT     C111751   2.682  20.758   9.966  0.0712  0.3385 -0.1011
 5876OCT     C211752   2.264  20.657   9.771  0.1745  0.1604 -0.4138
 5877OCT     C111753   2.054  12.519  22.477 -0.3909  0.1903  0.2035
 5877OCT     C211754   2.302  12.684  22.854  0.0878  0.6875  0.2097
 5878OCT     C111755  17.990  21.391  11.963 -0.1101 -0.4415 -0.2708
 5878OCT     C211756  17.813  21.219  11.596  0.1898  0.0737 -0.4403
 5879OCT     C111757  15.231   8.135  20.201 -0.1490  0.0071  0.0397
 5879OCT     C211758  15.493   7.748  20.301 -0.0867 -0.1176 -0.3071
 5880OCT     C111759   1.978   6.437  13.756  0.0184 -0.1616 -0.1057
 5880OCT     C211760   1.934   6.736  14.112 -0.0388  0.3118 -0.1047
 5881OCT     C111761  14.307   7.211  15.852 -0.0608 -0.1159  0.0068
 5881OCT     C211762  14.000   7.027  15.608  0.2697  0.1732  0.2367
 5882OCT     C111763   7.862  21.288   3.550 -0.0770 -0.1230  0.2122
 5882OCT     C211764   8.083  20.904   3.352  0.1337  0.2274 -0.2392
 5883OCT     C111765  21.630  15.794  12.869 -0.3807 -0.5357  0.1981
 5883OCT     C211766  21.174  15.754  12.921 -0.2913  0.1242  0.0739
 5884OCT     C111767  12.195  20.335  11.388 -0.3219 -0.1118 -0.1655
 5884OCT     C211768  11.985  19.945  11.417  0.4434 -0.2141  0.0202
 5885OCT     C111769  16.344  16.395   9.538  0.0655  0.5857 -0.0353
 5885OCT     C211770  16.566  16.119   9.267  0.3377 -0.2721 -0.1586
 5886OCT     C111771  18.693   7.114   6.091  0.0562 -0.0413  0.4513
 5886OCT     C211772  18.771   7.531   6.330  0.3590 -0.0002  0.4246
 5887OCT     C111773  23.371   5.284  23.451  0.0705  0.1846 -0.2129
 5887OCT     C211774  23.690   5.549  23.332  0.1867 -0.1169 -0.1253
 5888OCT     C111775  13.313  12.320   4.807 -0.6778  0.2152  0.2870
 5888OCT     C211776  13.093  12.648   5.051  0.1070  0.3613 -0.2478
 5889OCT     C111777  23.098  15.947   7.275 -0.0102 -0.0402 -0.1124
 5889OCT     C211778  22.966  15.619   6.965  0.1913 -0.0201 -0.3392
 5890OCT     C111779   3.729   7.148   3.094 -0.0973 -0.1071  0.3134
 5890OCT     C211780   4.183   7.028   3.173 -0.0694 -0.0489  0.4211
 5891OCT     C111781   1.582   1.882  20.026 -0.0070  0.0606  0.3968
 5891OCT     C211782   1.584   2.061  19.585 -0.2926  0.1885  0.0521
 5892OCT     C111783  20.882  22.165  15.235  0.1316  0.1949  0.0810
 5892OCT     C211784  20.984  21.846  14.972 -0.0688  0.0843  0.3547
 5893OCT     C111785   3.874  18.493   6.795  0.0824 -0.3932 -0.2898
 5893OCT     C211786   3.909  18.942   6.817  0.0716 -0.0067  0.1320
 5894OCT     C111787   4.383   2.308  19.784 -0.0939 -0.2216  0.1778
 5894OCT     C211788   4.560   2.750  19.580  0.1057  0.0430  0.1506
 5895OCT     C111789   2.709   2.051  11.145  0.1026 -0.0815  0.1237
 5895OCT     C211790   2.523   1.674  11.123  0.0486 -0.1378 -0.0565
 5896OCT     C111791   1.032  12.281   5.993  0.0815 -0.0534 -0.0811
 5896OCT     C211792   1.004  11.790   6.087  0.2105  0.2251  0.0522
 5897OCT     C111793  12.662  19.428  20.747  0.0662 -0.0194  0.0936
 5897OCT     C211794  12.662  19.590  20.291 -0.0252  0.2213  0.2423
 5898OCT     C111795   0.262   1.094  21.928  0.0589 -0.2380  0.0996
 5898OCT     C211796   0.218   0.698  22.129  0.1210  0.1637 -0.4905
 5899OCT     C111797  20.373   6.784  15.683  0.0291 -0.0150  0.1818
 5899OCT     C211798  20.689   7.171  15.775  0.4494 -0.2843 -0.4344
 5900OCT     C111799  23.380  13.893   7.883  0.0739 -0.2693 -0.4417
 5900OCT     C211800  23.648  13.580   8.144 -0.2416 -0.0803  0.0061
 5901OCT     C111801  19.681  18.640  16.371 -0.1949 -0.2337 -0.1109
 5901OCT     C211802  19.605  18.264  16.561 -0.0652 -0.0286 -0.2737
 5902OCT     C111803  10.703   2.623  13.316 -0.2550 -0.3781  0.4631
 5902OCT     C211804  11.109   2.442  13.357  0.0046 -0.0913  0.1198
 5903OCT     C111805  16.577   3.480  10.444  0.0236 -0.1444  0.0469
 5903OCT     C211806  16.884   3.806  10.304 -0.3087  0.2163  0.2696
 5904OCT     C111807   2.038   9.055  23.651 -0.0386 -0.1044 -0.0146
 5904OCT     C211808   1.862   9.244   0.358  0.0999 -0.0766  0.2001
 5905OCT     C111809  22.402  13.345   1.192 -0.3646  0.0213  0.1093
 5905OCT     C211810  22.716  13.025   1.169  0.0507  0.0884  0.1774
 5906OCT     C111811  14.382  19.848   0.619  0.2832  0.1407  0.1110
 5906OCT     C211812  14.024  19.862   0.266  0.1231 -0.0567  0.1601
 5907OCT     C111813  17.165  17.583   4.194 -0.2608 -0.0892 -0.0189
 5907OCT     C211814  17.295  17.884   3.792  0.1032  0.1220  0.1315
 5908OCT     C111815   6.070  15.859  12.615  0.0303  0.1488 -0.3925
 5908OCT     C211816   6.259  15.433  12.605 -0.0743  0.1919  0.0805
 5909OCT     C111817  11.729  20.855   3.569  0.1620 -0.1261 -0.0364
 5909OCT     C211818  11.399  20.863   3.196  0.0996 -0.2885 -0.4029
 5910OCT     C111819  21.748  16.003   6.553 -0.0378  0.6312  0.2846
 5910OCT     C211820  22.121  16.099   6.275  0.3087 -0.1661  0.2875
 5911OCT     C111821   5.738   5.473  13.470  0.0960  0.2070 -0.0599
 5911OCT     C211822   5.936   5.099  13.661  0.0188 -0.1103 -0.2656
 5912OCT     C111823   3.398   0.533  18.113 -0.3150 -0.1584  0.1761
 5912OCT     C211824   2.959   0.663  17.922 -0.4648  0.1319  0.1921
 5913OCT     C111825  14.720  21.167  21.533 -0.1237 -0.1204 -0.0680
 5913OCT     C211826  14.943  21.242  21.948  0.2729 -0.4002 -0.1606
 5914OCT     C111827  12.414  23.596   2.685 -0.1581 -0.0814 -0.1571
 5914OCT     C211828  12.315   0.312   2.809  0.2616 -0.1504 -0.0717
 5915OCT     C111829   2.338   7.511   9.812  0.1863 -0.3310 -0.3780
 5915OCT     C211830   2.406   7.193  10.201 -0.2587  0.1999  0.1055
 5916OCT     C111831   0.199  23.114  19.794 -0.1174 -0.0046  0.0871
 5916OCT     C211832   0.211  23.630  19.856 -0.0136  0.0771 -0.2430
 5917OCT     C111833  23.455  10.849  19.503  0.1603  0.2502 -0.0957
 5917OCT     C211834  23.446  10.345  19.576  0.0894 -0.0363  0.3478
 5918OCT     C111835   8.951   5.448   3.538  0.1266 -0.4542 -0.0694
 5918OCT     C211836   8.957   5.358   3.030  0.3951 -0.0392  0.1582
 5919OCT     C111837  14.453  12.988   8.913  0.3212 -0.2500 -0.0392
 5919OCT     C211838  14.766  12.686   8.739  0.2581  0.3191 -0.1551
 5920OCT     C111839  22.361  11.186   4.374 -0.0717  0.0227  0.0080
 5920OCT     C211840  22.764  11.235   4.145  0.1069  0.2566  0.2596
 5921OCT     C111841  11.382   3.241   9.240 -0.0351  0.2563 -0.1439
 5921OCT     C211842  11.521   3.429   9.685 -0.3123 -0.1697 -0.1331
 5922OCT     C111843  16.581  22.905  14.245  0.4073 -0.0135 -0.1541
 5922OCT     C211844  16.346  22.919  13.781 -0.0740 -0.0891 -0.1321
 5923OCT     C111845  13.258  19.309   4.792  0.0366  0.1342  0.5603
 5923OCT     C211846  13.299  19.548   4.457  0.0687 -0.0413 -0.3618
 5924OCT     C111847   9.819   1.109  15.678 -0.4536  0.0545 -0.2649
 5924OCT     C211848  10.043   1.452  15.789 -0.2956 -0.1722  0.1792
 5925OCT     C111849   6.990   2.812  11.962  0.6059  0.3003  0.2758
 5925OCT     C211850   6.718   3.236  12.032 -0.2626  0.4232 -0.0600
 5926OCT     C111851   4.402  20.362  20.014  0.0905  0.0259 -0.0211
 5926OCT     C211852   4.307  19.945  19.839 -0.1573 -0.0483 -0.3020
 5927OCT     C111853  10.078  20.285   3.263  0.1907 -0.1712  0.1715
 5927OCT     C211854   9.795  19.933   3.173  0.0697  0.5949  0.0411
 5928OCT     C111855   2.784   2.218   8.797  0.0777 -0.2558  0.4430
 5928OCT     C211856   2.860   2.120   9.237  0.2089 -0.2318  0.0810
 5929OCT     C111857   8.910  20.616  12.943  0.0794 -0.2349 -0.4266
 5929OCT     C211858   9.117  20.538  13.384 -0.0566  0.3033  0.0337
 5930OCT     C111859  15.834   6.952  16.326 -0.0988 -0.0893  0.3455
 5930OCT     C211860  15.644   6.682  15.976  0.0072  0.1207  0.0534
 5931OCT     C111861  19.530  15.906  11.574 -0.2489  0.1259  0.3618
 5931OCT     C211862  19.683  15.485  11.358 -0.3509 -0.3054 -0.2515
 5932OCT     C111863  20.749  18.109  18.507  0.3716  0.1182  0.0102
 5932OCT     C211864  20.852  17.685  18.718  0.1433  0.0463 -0.0040
 5933OCT     C111865  12.864   4.421  11.477 -0.1193 -0.1193 -0.0672
 5933OCT     C211866  12.763   4.343  11.932 -0.0995 -0.0135 -0.4432
 5934OCT     C111867   9.710   3.809  11.886  0.1327  0.0198 -0.0858
 5934OCT     C211868   9.781   3.992  11.501  0.4333  0.3097 -0.2100
 5935OCT     C111869   7.170   0.660  20.247  0.1768  0.2453  0.0145
 5935OCT     C211870   7.391   0.342  20.444 -0.1574  0.0332 -0.4723
 5936OCT     C111871   7.094   9.370  23.274  0.1890  0.0651  0.1837
 5936OCT     C211872   6.829   9.148  22.982 -0.1459  0.2330 -0.5178
 5937OCT     C111873   9.176  11.258   6.085  0.0174  0.1142 -0.2439
 5937OCT     C211874   9.212  11.640   5.851 -0.0133  0.1780  0.4154
 5938OCT     C111875  14.583   7.124  16.306 -0.3157 -0.0224 -0.0339
 5938OCT     C211876  14.373   6.806  16.137 -0.2150  0.0778 -0.3061
 5939OCT     C111877   4.079  17.171  13.226 -0.1243  0.0852  0.2993
 5939OCT     C211878   3.858  17.553  13.272 -0.1790 -0.2313 -0.2474
 5940OCT     C111879  18.151   1.570  19.182  0.0346 -0.2056 -0.2418
 5940OCT     C211880  18.300   1.865  19.515 -0.1070 -0.0561 -0.2095
 5941OCT     C111881   9.190   3.637  13.551  0.2561  0.0460 -0.0635
 5941OCT     C211882   9.106   3.196  13.539  0.1325  0.0897  0.2021
 5942OCT     C111883   1.260  17.536  16.085 -0.0662  0.3391 -0.2562
 5942OCT     C211884   1.579  17.491  16.408 -0.1322  0.0768  0.0880
 5943OCT     C111885   9.570  20.905  22.438 -0.0696 -0.0325 -0.1506
 5943OCT     C211886   9.320  20.488  22.418  0.2523 -0.1390 -0.3065
 5944OCT     C111887  18.380  12.732  22.500  0.0306 -0.1272  0.2192
 5944OCT     C211888  18.780  12.443  22.387 -0.1735 -0.0621 -0.2442
 5945OCT     C111889   7.887  22.736  13.048  0.1785 -0.3210 -0.0468
 5945OCT     C211890   7.595  22.513  13.327 -0.1095 -0.4051 -0.0089
 5946OCT     C111891  21.973   7.790   3.171 -0.0169 -0.1803  0.2429
 5946OCT     C211892  22.265   7.952   2.786  0.0562  0.1182  0.0060
 5947OCT     C111893  16.694  12.910   4.310 -0.4125  0.0260 -0.1168
 5947OCT     C211894  16.778  12.469   4.205 -0.0539 -0.0748 -0.0080
 5948OCT     C111895   3.332  13.645   2.285 -0.1428 -0.1209  0.0008
 5948OCT     C211896   3.414  13.871   1.873 -0.1928  0.4238 -0.0433
 5949OCT     C111897   8.278   1.256   3.506 -0.4666  0.3049  0.0422
 5949OCT     C211898   8.097   0.798   3.568 -0.4610 -0.0060  0.0090
 5950OCT     C111899  18.786   0.122  15.194  0.2385 -0.3447 -0.1243
 5950OCT     C211900  18.933  23.551  14.864  0.0641  0.0681  0.0769
 5951OCT     C111901   4.149   0.696  14.728  0.4386 -0.1619  0.0757
 5951OCT     C211902   3.805   0.372  14.757  0.3543  0.1006  0.2803
 5952OCT     C111903  18.517   4.081   2.177  0.3592  0.0724 -0.2786
 5952OCT     C211904  18.270   4.446   2.336 -0.0348 -0.1435  0.0090
 5953OCT     C111905  11.459  19.349  11.031 -0.0062 -0.2087  0.0693
 5953OCT     C211906  11.306  18.921  11.032  0.0366 -0.1227 -0.3149
 5954OCT     C111907  17.995  19.896   0.053  0.0325  0.1048 -0.1357
 5954OCT     C211908  17.878  19.481   0.224 -0.2245 -0.1132  0.2192
 5955OCT     C111909   6.223  12.246  11.407  0.0183 -0.2368 -0.1229
 5955OCT     C211910   5.997  12.329  11.851 -0.1619 -0.1509  0.3413
 5956OCT     C111911  14.856   9.688   0.315 -0.1478 -0.0056 -0.0190
 5956OCT     C211912  14.997   9.185   0.283 -0.3166  0.0513 -0.2916
 5957OCT     C111913  16.398   5.823   7.322  0.3695  0.2948 -0.0960
 5957OCT     C211914  16.593   6.232   7.406  0.1063 -0.0622  0.2183
 5958OCT     C111915  23.274  22.182   4.907  0.0255  0.0267  0.1355
 5958OCT     C211916  23.354  22.633   4.913 -0.0607  0.0963  0.2284
 5959OCT     C111917   1.418   7.234  11.726  0.4173  0.5588  0.1020
 5959OCT     C211918   1.862   7.337  11.631 -0.0676  0.0741 -0.0360
 5960OCT     C111919  20.965  10.926   5.297 -0.1710 -0.0590 -0.0560
 5960OCT     C211920  21.353  11.207   5.274  0.1613 -0.0129 -0.1950
 5961OCT     C111921   1.351   1.467  22.312  0.0197 -0.3430 -0.1468
 5961OCT     C211922   1.751   1.394  22.503 -0.1258 -0.0688 -0.0912
 5962OCT     C111923  12.244   7.156  11.238 -0.1783 -0.0466  0.0392
 5962OCT     C211924  12.333   6.695  11.322  0.1931 -0.0303 -0.1972
 5963OCT     C111925  14.344   9.518  15.203 -0.0403 -0.0760 -0.2110
 5963OCT     C211926  14.010   9.121  15.197  0.0788 -0.4835 -0.3176
 5964OCT     C111927  18.198   5.400  14.816  0.2302  0.0944  0.1564
 5964OCT     C211928  18.496   5.395  14.447 -0.4500 -0.0296  0.0546
 5965OCT     C111929  19.155  13.406   2.635  0.1929 -0.2540  0.2349
 5965OCT     C211930  18.926  13.210   2.974 -0.3927  0.1116  0.2800
 5966OCT     C111931  10.159  12.809   8.894  0.2518 -0.2840 -0.0854
 5966OCT     C211932  10.203  12.839   8.388 -0.3163 -0.0812  0.3751
 5967OCT     C111933   0.031   5.887   1.749  0.0599  0.1522  0.4079
 5967OCT     C211934  23.427   5.686   2.089 -0.4232 -0.0184  0.3689
 5968OCT     C111935   6.575   6.588   2.015 -0.0020  0.0870  0.3380
 5968OCT     C211936   6.495   6.577   1.513 -0.4303  0.1003 -0.0016
 5969OCT     C111937  17.590  17.946   5.458  0.1694 -0.3530  0.2944
 5969OCT     C211938  17.255  17.662   5.674 -0.0667 -0.1285  0.3835
 5970OCT     C111939  19.207   7.798   3.739  0.2085  0.0783 -0.1113
 5970OCT     C211940  19.352   8.266   3.632  0.2744 -0.1768  0.0669
 5971OCT     C111941  10.693   1.250   7.095  0.1556  0.1446  0.1044
 5971OCT     C211942  10.597   0.919   6.776  0.2209  0.1099  0.0534
 5972OCT     C111943   6.354   2.932  22.949  0.1906 -0.0701  0.1830
 5972OCT     C211944   6.524   3.164  22.594  0.2875  0.2700 -0.2483
 5973OCT     C111945   1.512   7.090  13.378  0.1119  0.1564  0.0514
 5973OCT     C211946   1.785   7.326  13.084  0.0625  0.0193 -0.1194
 5974OCT     C111947  16.816   4.406  21.423 -0.1272 -0.4649  0.0174
 5974OCT     C211948  16.554   4.644  21.800 -0.1069  0.6947 -0.0934
 5975OCT     C111949   7.374   0.765   6.955 -0.1249 -0.2097 -0.0956
 5975OCT     C211950   7.755   0.717   7.264  0.3776  0.0555 -0.0174
 5976OCT     C111951   7.314   6.668   9.539  0.1213  0.0269 -0.0978
 5976OCT     C211952   6.946   6.385   9.555 -0.0197 -0.1216  0.3920
 5977OCT     C111953  18.021  22.046  19.307 -0.0322 -0.3526  0.0481
 5977OCT     C211954  18.451  21.958  19.302 -0.2675  0.0801  0.3144
 5978OCT     C111955  12.042  18.665  11.514  0.0505  0.4588 -0.1066
 5978OCT     C211956  12.204  18.748  11.131 -0.0377 -0.0007  0.1191
 5979OCT     C111957   8.147   0.593  11.859 -0.1617 -0.0652  0.1857
 5979OCT     C211958   8.224   0.163  11.845 -0.1053 -0.0712 -0.2335
 5980OCT     C111959  12.383  15.394  19.345  0.2201 -0.1953  0.2044
 5980OCT     C211960  12.203  15.131  19.678  0.0845  0.0854  0.0657
 5981OCT     C111961  12.432   2.681   4.055  0.2666 -0.1271 -0.1025
 5981OCT     C211962  12.625   2.477   4.422  0.0616  0.1660 -0.0435
 5982OCT     C111963   8.076   9.900  14.745  0.2714  0.2285 -0.1819
 5982OCT     C211964   8.264   9.595  15.000 -0.3337 -0.0127 -0.1364
 5983OCT     C111965  19.639   4.491  16.352 -0.1390  0.0391  0.2561
 5983OCT     C211966  19.210   4.708  16.318  0.1113  0.2210 -0.2103
 5984OCT     C111967  22.295  21.776  12.258 -0.0591 -0.1715  0.1769
 5984OCT     C211968  22.443  21.665  12.714 -0.0787 -0.3934  0.1033
 5985OCT     C111969  20.645  20.133  20.314  0.0822  0.0370  0.0231
 5985OCT     C211970  20.490  19.653  20.310  0.2009  0.0569 -0.2631
 5986OCT     C111971   0.263  12.308  23.624 -0.1368  0.3028  0.0204
 5986OCT     C211972   0.588  12.117  23.445 -0.1978 -0.2608  0.1810
 5987OCT     C111973   6.708  21.475   8.335 -0.0731 -0.0808 -0.0970
 5987OCT     C211974   6.858  21.462   7.851 -0.1304  0.2104 -0.2885
 5988OCT     C111975   5.125  13.009   5.408  0.0818  0.2144  0.0914
 5988OCT     C211976   5.370  12.973   5.766 -0.0469 -0.1177 -0.2365
 5989OCT     C111977   1.536   9.493   3.853 -0.2102  0.0426  0.0108
 5989OCT     C211978   1.590   9.795   4.201  0.0355 -0.1007 -0.0235
 5990OCT     C111979  19.651   2.226   7.550  0.2141  0.3841  0.1616
 5990OCT     C211980  19.324   2.199   7.232  0.0796 -0.0909  0.2969
 5991OCT     C111981  14.727   9.775   4.397  0.5084 -0.4443  0.0171
 5991OCT     C211982  15.126   9.603   4.376  0.1116 -0.3492 -0.0112
 5992OCT     C111983  23.686  16.572   0.321 -0.0864  0.0796  0.1124
 5992OCT     C211984  23.311  16.834   0.382  0.0727  0.1259  0.4882
 5993OCT     C111985   9.434  19.966  22.270 -0.2143  0.2203 -0.2279
 5993OCT     C211986   9.011  19.886  22.449  0.3955  0.0978 -0.1061
 5994OCT     C111987  14.563  22.358   8.886  0.2275 -0.1705 -0.3006
 5994OCT     C211988  14.785  22.467   8.487 -0.0805 -0.0331  0.1452
 5995OCT     C111989  11.768   0.048   4.758 -0.0109 -0.1591 -0.0127
 5995OCT     C211990  11.321   0.270   4.925  0.1375 -0.0826  0.0512
 5996OCT     C111991   7.451  18.945  15.675 -0.1991  0.6975 -0.2090
 5996OCT     C211992   7.021  19.097  15.888 -0.0977 -0.0274 -0.0582
 5997OCT     C111993   4.223  22.981   0.879  0.3516 -0.2202  0.4986
 5997OCT     C211994   3.789  22.987   1.011 -0.2753 -0.3400  0.0179
 5998OCT     C111995   3.217  11.704   0.601  0.0310  0.1956 -0.0027
 5998OCT     C211996   3.084  11.384   0.306 -0.2005 -0.5940 -0.3566
 5999OCT     C111997  19.679   7.545  11.664  0.3288  0.1331 -0.0260
 5999OCT     C211998  19.993   7.742  11.947  0.2573 -0.0478  0.3232
 6000OCT     C111999  14.714   6.841  13.020  0.0638 -0.0257  0.0983
 6000OCT     C212000  14.344   6.524  13.160 -0.3487  0.1006  0.2396
 6001OCT     C112001  14.638  18.374  15.229  0.0742  0.0685 -0.0368
 6001OCT     C212002  14.778  17.998  14.877 -0.0770 -0.2511  0.0673
 6002OCT     C112003   2.920   2.517   3.520  0.0082 -0.0372 -0.2965
 6002OCT     C212004   2.564   2.281   3.248 -0.1070  0.0793  0.2571
 6003OCT     C112005  15.028   8.181  16.204 -0.1405  0.0639  0.3408
 6003OCT     C212006  15.068   7.755  16.122 -0.0446 -0.0237  0.2732
 6004OCT     C112007   2.016   9.931  19.003 -0.1372 -0.0714 -0.0587
 6004OCT     C212008   2.130  10.391  19.173 -0.2208 -0.0372 -0.1442
 6005OCT     C112009   6.651  13.799  15.012 -0.2086  0.1897 -0.1687
 6005OCT     C212010   6.923  13.413  15.091  0.1646  0.0546  0.1890
 6006OCT     C112011  10.411  22.783   4.077  0.2389 -0.2268 -0.0250
 6006OCT     C212012  10.074  23.058   3.803  0.1371  0.1157 -0.4466
 6007OCT     C112013   0.182  14.304   4.472 -0.0751  0.1391 -0.1282
 6007OCT     C212014   0.455  13.933   4.548  0.0320 -0.0987  0.3781
 6008OCT     C112015  14.951  10.898  12.672 -0.2755  0.1594 -0.1359
 6008OCT     C212016  14.633  10.851  13.017 -0.1268 -0.0151 -0.2419
 6009OCT     C112017  23.548  20.526  20.922 -0.0983  0.1757  0.2486
 6009OCT     C212018   0.038  20.595  20.527 -0.4838  0.1834  0.2084
 6010OCT     C112019  16.950  22.942  12.054 -0.2505  0.0810 -0.0250
 6010OCT     C212020  16.681  22.935  11.608  0.2321 -0.2199 -0.1666
 6011OCT     C112021  21.367   4.615   9.764  0.1427  0.0435  0.1615
 6011OCT     C212022  21.243   4.974   9.541 -0.1714  0.1125 -0.2511
 6012OCT     C112023  22.565  12.573   8.968 -0.1893 -0.3478  0.3367
 6012OCT     C212024  23.017  12.472   8.931  0.0451  0.2697  0.0077
 6013OCT     C112025  12.134  21.959   6.298  0.1914 -0.0779 -0.0910
 6013OCT     C212026  11.995  22.403   6.393  0.3461 -0.0383  0.0597
 6014OCT     C112027   8.440  20.805   8.146  0.2628 -0.0199  0.2567
 6014OCT     C212028   8.265  21.178   7.917 -0.2120 -0.1130  0.0269
 6015OCT     C112029   4.477   1.557   5.337 -0.2614 -0.1383  0.4518
 6015OCT     C212030   4.254   1.898   5.565  0.1134  0.4480 -0.0611
 6016OCT     C112031  12.065  17.222  22.412  0.0974 -0.0769  0.0598
 6016OCT     C212032  12.386  17.479  22.247 -0.4901 -0.1867 -0.1941
 6017OCT     C112033  20.837   6.663   7.423  0.1835  0.2915 -0.0911
 6017OCT     C212034  21.043   6.663   7.858  0.1376 -0.1891 -0.3266
 6018OCT     C112035  17.837   6.859   1.407 -0.1044  0.0154  0.0446
 6018OCT     C212036  17.789   7.356   1.295 -0.2783 -0.1998  0.2513
 6019OCT     C112037  11.181   8.710  14.052 -0.3559 -0.1682 -0.0799
 6019OCT     C212038  11.493   8.329  14.161  0.0795  0.2351 -0.0248
 6020OCT     C112039  21.194   4.515  23.513 -0.2169 -0.0638  0.4129
 6020OCT     C212040  20.829   4.808  23.493 -0.0861  0.0083  0.2158
 6021OCT     C112041  14.265   2.748  13.652  0.1767 -0.1342 -0.2849
 6021OCT     C212042  14.110   2.434  13.313  0.1081  0.4807 -0.1541
 6022OCT     C112043  19.963   5.628  18.426  0.1741 -0.1010 -0.0939
 6022OCT     C212044  19.893   5.256  18.183  0.1269  0.1552 -0.2171
 6023OCT     C112045   5.148  21.651   2.637 -0.5642 -0.2269 -0.0186
 6023OCT     C212046   4.708  21.708   2.842  0.1657 -0.2031  0.1974
 6024OCT     C112047  19.579  17.355  18.330  0.0290  0.0906 -0.2017
 6024OCT     C212048  20.049  17.408  18.348 -0.1100  0.3427  0.0688
 6025OCT     C112049   3.072   9.253   0.230  0.1990 -0.1896 -0.2607
 6025OCT     C212050   3.291   9.278  23.563  0.0437  0.2645  0.2626
 6026OCT     C112051  12.314   9.411  20.459  0.0917  0.1355  0.1577
 6026OCT     C212052  12.194   9.442  20.887  0.3326 -0.1001 -0.4266
 6027OCT     C112053  20.749  16.875   6.651  0.0144  0.4494  0.4590
 6027OCT     C212054  20.791  16.474   6.855  0.0129 -0.3138 -0.0887
 6028OCT     C112055   5.655   1.268   6.207 -0.0535 -0.5887  0.0820
 6028OCT     C212056   5.605   0.808   6.407 -0.0753 -0.2300 -0.0407
 6029OCT     C112057  20.827  10.326   9.859 -0.3102 -0.2737  0.0856
 6029OCT     C212058  20.469  10.172   9.644 -0.2938  0.2407  0.0816
 6030OCT     C112059  12.159  14.919   9.223 -0.0949  0.3763  0.2079
 6030OCT     C212060  12.187  14.848   8.782  0.1912 -0.1529  0.0309
 6031OCT     C112061   8.266  12.098   0.560  0.3161  0.0159 -0.3134
 6031OCT     C212062   8.369  12.281   0.989 -0.2370 -0.0715  0.1084
 6032OCT     C112063   7.765   7.163  20.635 -0.3348  0.0505 -0.1900
 6032OCT     C212064   7.688   7.383  20.204  0.1299  0.1302  0.0244
 6033OCT     C112065   5.364  21.182  10.255  0.3718  0.1726 -0.0025
 6033OCT     C212066   5.168  21.269  10.692  0.4587  0.1918  0.2266
 6034OCT     C112067   6.580   2.111   8.502 -0.0818 -0.2892  0.2278
 6034OCT     C212068   6.247   2.322   8.730  0.1303  0.0405 -0.4667
 6035OCT     C112069  10.847   1.963   3.548  0.0957 -0.0592  0.0588
 6035OCT     C212070  10.843   1.556   3.423  0.0240  0.7353  0.3609
 6036OCT     C112071  16.709  21.014  10.948 -0.0609  0.0425 -0.0479
 6036OCT     C212072  16.591  20.893  10.492 -0.1614 -0.1190  0.4343
 6037OCT     C112073  11.478  20.585  10.230 -0.1612  0.4338 -0.1225
 6037OCT     C212074  11.161  20.891  10.187 -0.2300 -0.2903 -0.1452
 6038OCT     C112075   9.108  20.423  11.922 -0.0169  0.1207 -0.0618
 6038OCT     C212076   8.933  20.077  11.666  0.0067 -0.3367 -0.5671
 6039OCT     C112077  10.421  20.035   5.198 -0.0016  0.0252  0.4547
 6039OCT     C212078  10.700  20.275   5.492 -0.3209  0.2110 -0.4080
 6040OCT     C112079  13.956  20.852   1.465 -0.2863 -0.2804  0.2122
 6040OCT     C212080  13.944  20.517   1.119 -0.0764 -0.2119 -0.1402
 6041OCT     C112081  20.248   1.540   8.770 -0.0590 -0.2563  0.0850
 6041OCT     C212082  20.544   1.157   8.957 -0.0209 -0.2180  0.3317
 6042OCT     C112083  19.631  16.352  17.807  0.3487 -0.7152  0.1445
 6042OCT     C212084  19.508  15.978  18.005  0.1462  0.0370  0.0365
 6043OCT     C112085  14.430   6.733  20.027  0.1072  0.0195  0.2382
 6043OCT     C212086  14.256   7.137  20.100  0.1044 -0.0921  0.1022
 6044OCT     C112087  20.471  12.773   3.011  0.0128  0.1685  0.0517
 6044OCT     C212088  20.159  13.040   3.306 -0.0183  0.0997  0.3830
 6045OCT     C112089  10.134  14.970   8.591 -0.1481 -0.1876  0.0896
 6045OCT     C212090  10.314  15.044   8.995 -0.3227  0.1384 -0.1721
 6046OCT     C112091  21.894  22.392  19.838 -0.0721 -0.0343  0.1480
 6046OCT     C212092  22.246  22.641  20.114  0.0160 -0.2681  0.2642
 6047OCT     C112093  11.750  13.854  11.664  0.1207  0.0412 -0.1766
 6047OCT     C212094  11.523  14.168  11.411  0.1498 -0.1030  0.3649
 6048OCT     C112095   3.856   8.865   6.575  0.3173  0.1752 -0.2254
 6048OCT     C212096   3.497   8.809   6.241  0.0720 -0.0319 -0.1940
 6049OCT     C112097   1.224  16.708   6.881 -0.2111  0.2897 -0.0209
 6049OCT     C212098   0.800  16.541   6.802 -0.1369 -0.0650  0.1156
 6050OCT     C112099   3.688   4.894  15.535  0.0874  0.1729 -0.1737
 6050OCT     C212100   3.365   4.640  15.746  0.1479 -0.2030  0.0352
 6051OCT     C112101   1.101   8.386  17.745 -0.0225  0.1374  0.1933
 6051OCT     C212102   1.075   7.940  17.919  0.1485  0.2516  0.0331
 6052OCT     C112103   2.255  16.744   7.773 -0.2838 -0.0078 -0.3786
 6052OCT     C212104   2.065  16.476   8.116  0.0140  0.0617  0.0351
 6053OCT     C112105   0.876  16.091  16.307 -0.1127  0.1770 -0.2794
 6053OCT     C212106   0.772  16.278  16.727 -0.0286  0.2380  0.0713
 6054OCT     C112107  22.451  13.005   8.682 -0.2744  0.0895  0.1627
 6054OCT     C212108  22.087  13.018   8.977 -0.3590 -0.1049  0.2711
 6055OCT     C112109  10.076  13.246   9.358 -0.0441  0.3017 -0.1709
 6055OCT     C212110   9.724  13.520   9.335  0.0074 -0.0836 -0.2463
 6056OCT     C112111  19.090   7.179  23.060  0.1128  0.0443 -0.1349
 6056OCT     C212112  19.188   7.639  23.074  0.0220 -0.2109  0.0664
 6057OCT     C112113   8.233  17.195   3.097 -0.0771 -0.1189  0.0695
 6057OCT     C212114   8.027  17.211   3.478 -0.0748 -0.0720 -0.2826
 6058OCT     C112115  14.473   2.052   9.397 -0.1488  0.2022  0.2952
 6058OCT     C212116  14.614   2.021   8.922  0.1769  0.0540 -0.1755
 6059OCT     C112117  18.815  22.849   1.506  0.0471  0.1197 -0.0708
 6059OCT     C212118  18.759  22.401   1.565 -0.0014 -0.0589 -0.0556
 6060OCT     C112119   3.030  13.995  22.079 -0.2678 -0.0305 -0.1086
 6060OCT     C212120   3.227  13.612  21.832 -0.1741  0.0843  0.1834
 6061OCT     C112121   7.555  14.510   2.700  0.4213  0.0430  0.2025
 6061OCT     C212122   7.152  14.743   2.795  0.1769 -0.0263  0.1657
 6062OCT     C112123  18.578   8.225  13.868  0.3592 -0.0884 -0.1913
 6062OCT     C212124  18.371   8.580  13.627  0.0117 -0.0650  0.0857
 6063OCT     C112125   5.455   9.198   8.653  0.1801  0.3864 -0.1627
 6063OCT     C212126   5.160   9.508   8.339 -0.0990 -0.0146 -0.1229
 6064OCT     C112127  10.301   4.505   8.427  0.1244  0.4041  0.3556
 6064OCT     C212128   9.847   4.333   8.357  0.1172  0.1403  0.1323
 6065OCT     C112129   8.018  12.518  10.677 -0.3574  0.1640 -0.0353
 6065OCT     C212130   8.202  12.547  11.135  0.0422  0.0017 -0.1802
 6066OCT     C112131  18.353   0.260  17.509 -0.0925 -0.0663  0.2937
 6066OCT     C212132  18.701   0.595  17.419 -0.0840  0.3842 -0.0483
 6067OCT     C112133   3.416  18.336  18.357  0.1185  0.0624  0.5103
 6067OCT     C212134   3.312  17.921  18.409  0.2705  0.0597 -0.0977
 6068OCT     C112135  20.800  16.124   6.039 -0.0991 -0.0544  0.0728
 6068OCT     C212136  20.370  16.080   5.784  0.1042  0.1117 -0.2090
 6069OCT     C112137  22.932  17.456   1.451 -0.0603 -0.0285 -0.2486
 6069OCT     C212138  22.715  17.867   1.438 -0.1604 -0.0063  0.1323
 6070OCT     C112139   3.625   4.641  18.691  0.1053 -0.0870  0.2040
 6070OCT     C212140   3.296   4.893  18.513  0.0935  0.1237  0.2786
 6071OCT     C112141  22.160   4.099  17.733  0.1153  0.0997  0.0356
 6071OCT     C212142  22.247   4.549  17.835 -0.1473 -0.0593  0.1223
 6072OCT     C112143  19.193  14.199  19.977 -0.0425  0.0069 -0.1417
 6072OCT     C212144  19.253  13.780  19.777 -0.0084 -0.1711 -0.0075
 6073OCT     C112145   0.685   3.428  18.415  0.1115 -0.1987 -0.0882
 6073OCT     C212146   1.136   3.475  18.584  0.0843 -0.3330 -0.0005
 6074OCT     C112147  17.046   2.439  21.736  0.0085  0.0516  0.0300
 6074OCT     C212148  17.343   2.257  21.410 -0.2259 -0.3813 -0.0999
 6075OCT     C112149   5.743   3.787  20.285  0.0338  0.2186 -0.1395
 6075OCT     C212150   5.498   3.921  19.836 -0.2271 -0.4068  0.0819
 6076OCT     C112151  18.254   2.539   8.882  0.2599 -0.0395 -0.0469
 6076OCT     C212152  18.681   2.600   8.705  0.3193 -0.2233  0.0942
 6077OCT     C112153   2.584  16.849   8.460  0.1677  0.1737  0.2477
 6077OCT     C212154   2.714  17.108   8.156 -0.1724  0.4092  0.1634
 6078OCT     C112155  12.713  13.532  21.473  0.0451 -0.0734 -0.4803
 6078OCT     C212156  12.945  13.122  21.532 -0.0329  0.2857 -0.0658
 6079OCT     C112157   4.438  16.420  16.686 -0.2121 -0.1158 -0.0611
 6079OCT     C212158   4.715  16.019  16.667 -0.4124  0.1210 -0.1072
 6080OCT     C112159   9.881  17.270   4.501  0.1092 -0.0241  0.2233
 6080OCT     C212160   9.783  17.735   4.500 -0.1680 -0.0935  0.0375
 6081OCT     C112161   7.615  17.570   3.896 -0.3729  0.2911 -0.0494
 6081OCT     C212162   7.363  17.463   4.308  0.0394  0.1353 -0.1880
 6082OCT     C112163   2.102  14.037   0.737  0.0785  0.1836 -0.0093
 6082OCT     C212164   2.577  13.991   0.835  0.1242  0.2108  0.3217
 6083OCT     C112165  18.518  10.026  10.040 -0.3124 -0.0612  0.3220
 6083OCT     C212166  18.630  10.351   9.742 -0.1096  0.0005  0.2433
 6084OCT     C112167  13.570   7.635   8.128 -0.0383 -0.0367  0.0693
 6084OCT     C212168  13.729   7.539   7.661 -0.0864  0.0235  0.2691
 6085OCT     C112169  15.675   1.829  11.689  0.2543 -0.0717  0.1411
 6085OCT     C212170  15.517   2.241  11.844  0.3859 -0.0323  0.0635
 6086OCT     C112171   9.602  17.465  19.940  0.2035 -0.0153  0.0014
 6086OCT     C212172   9.398  17.821  20.084  0.0932  0.2683  0.0684
 6087OCT     C112173  15.544   7.630   6.586 -0.1311  0.1386 -0.1940
 6087OCT     C212174  15.917   7.904   6.493  0.0400  0.2681 -0.1776
 6088OCT     C112175   8.449   0.362  18.343  0.1366  0.1008  0.0752
 6088OCT     C212176   8.527   0.187  17.916  0.0952 -0.1011  0.1520
 6089OCT     C112177  15.296   0.845  15.434 -0.0529 -0.1234  0.1114
 6089OCT     C212178  15.419   1.269  15.401 -0.2263  0.1501  0.1069
 6090OCT     C112179  20.975   4.146  11.072 -0.1415 -0.4520  0.5728
 6090OCT     C212180  20.692   4.442  10.809  0.0974  0.1458  0.2071
 6091OCT     C112181  12.877  21.668   3.458  0.1170  0.0089 -0.1468
 6091OCT     C212182  12.789  21.352   3.148 -0.0203  0.0276  0.2189
 6092OCT     C112183  12.873  10.042   7.594 -0.2335 -0.3648  0.0760
 6092OCT     C212184  12.962  10.484   7.742 -0.0524 -0.0229 -0.1195
 6093OCT     C112185  15.916  10.217   2.344  0.2206  0.2138 -0.3534
 6093OCT     C212186  16.028  10.601   2.166  0.2199 -0.1807  0.0520
 6094OCT     C112187  10.194  15.977  10.536 -0.0372  0.1885  0.5956
 6094OCT     C212188   9.972  15.664  10.269  0.0321  0.2160  0.0135
 6095OCT     C112189  13.845  13.071   9.599  0.1379 -0.5112  0.2668
 6095OCT     C212190  13.975  12.844   9.233  0.0203 -0.3171  0.1389
 6096OCT     C112191  12.052   9.005  18.412  0.3089  0.3265  0.1574
 6096OCT     C212192  12.019   8.747  18.765  0.0412 -0.0867  0.1792
 6097OCT     C112193  23.291  22.527  15.147 -0.0741 -0.2524  0.1814
 6097OCT     C212194  23.143  22.570  14.676 -0.1167  0.2198 -0.2407
 6098OCT     C112195  11.513  20.862  19.560  0.1613 -0.0941 -0.0270
 6098OCT     C212196  11.620  20.358  19.573  0.3262 -0.0857 -0.1263
 6099OCT     C112197  13.346   7.830  19.739 -0.0073  0.1713 -0.0013
 6099OCT     C212198  12.947   8.088  19.769  0.0024 -0.0866 -0.1881
 6100OCT     C112199  21.542   9.544   6.454  0.1594 -0.1649  0.0054
 6100OCT     C212200  21.516   9.650   6.936 -0.2538 -0.3137 -0.1972
 6101OCT     C112201  10.916  13.051  10.570 -0.0054 -0.1135  0.2025
 6101OCT     C212202  10.926  12.615  10.362 -0.1738 -0.1753  0.2482
 6102OCT     C112203  22.724  15.991  10.030  0.1339 -0.1635 -0.2950
 6102OCT     C212204  23.014  15.632  10.050 -0.3562  0.0471  0.2909
 6103OCT     C112205   4.623   2.503  21.061  0.0449  0.2698 -0.1889
 6103OCT     C212206   5.043   2.604  20.906  0.2131  0.1292  0.3346
 6104OCT     C112207  16.062   7.239  17.386 -0.2391 -0.2188  0.1169
 6104OCT     C212208  16.312   7.600  17.525  0.1275 -0.0065  0.3088
 6105OCT     C112209   0.010  12.822  15.059 -0.0096 -0.0773 -0.0217
 6105OCT     C212210  23.695  12.417  15.219  0.0409  0.1520 -0.1007
 6106OCT     C112211   2.417   9.289  17.937  0.0460  0.0380 -0.1074
 6106OCT     C212212   2.391   9.719  17.739 -0.2975 -0.0846 -0.3594
 6107OCT     C112213   9.855  13.244  19.174  0.1313  0.4289  0.0299
 6107OCT     C212214  10.154  12.935  19.401  0.0365 -0.1449 -0.2794
 6108OCT     C112215  11.463  20.033  16.872 -0.0725  0.1261  0.1643
 6108OCT     C212216  11.616  19.555  16.958 -0.1500 -0.5032 -0.0217
 6109OCT     C112217   4.771   2.921  12.562  0.1391 -0.1958  0.1112
 6109OCT     C212218   4.611   2.917  13.036 -0.1015 -0.3824  0.1456
 6110OCT     C112219   1.237   6.170   1.488  0.2211  0.2214 -0.1282
 6110OCT     C212220   1.270   6.172   1.959  0.1742  0.3266 -0.1151
 6111OCT     C112221  17.362   8.297   1.091  0.2364  0.1787 -0.1986
 6111OCT     C212222  17.118   8.465   0.685  0.1415  0.2540  0.0059
 6112OCT     C112223   7.333   8.918   7.694 -0.2436  0.1790  0.1601
 6112OCT     C212224   6.913   8.938   7.449  0.0074 -0.1394 -0.1020
 6113OCT     C112225  16.966  17.076  11.050  0.0197 -0.0912 -0.1248
 6113OCT     C212226  17.238  17.127  10.692 -0.2448  0.0971 -0.2297
 6114OCT     C112227   8.251  18.740  16.598 -0.0443 -0.1090 -0.0060
 6114OCT     C212228   8.164  18.935  16.242 -0.2563  0.2688  0.2689
 6115OCT     C112229  20.621   7.880   1.825  0.1215 -0.0045  0.1478
 6115OCT     C212230  20.489   7.928   1.369  0.0531  0.1386  0.0617
 6116OCT     C112231   6.620   5.735   4.380  0.3844 -0.0119  0.0427
 6116OCT     C212232   6.267   5.397   4.358 -0.2494 -0.1424  0.2017
 6117OCT     C112233   7.316  21.591  23.116  0.1693  0.3441  0.0701
 6117OCT     C212234   6.921  21.553  22.837 -0.2245  0.1008 -0.0485
 6118OCT     C112235  18.314   2.646   8.358  0.0186 -0.1042 -0.2812
 6118OCT     C212236  17.925   2.752   8.043 -0.1093  0.1067 -0.0814
 6119OCT     C112237  15.836   0.403  20.217  0.2453  0.1346 -0.0220
 6119OCT     C212238  15.726   0.293  19.780  0.0167  0.0519  0.1778
 6120OCT     C112239   6.513  16.373  22.585  0.1006 -0.2273 -0.2602
 6120OCT     C212240   6.852  16.657  22.775  0.1459 -0.1304  0.2515
 6121OCT     C112241   6.554  22.648  12.531 -0.1180  0.1042 -0.0127
 6121OCT     C212242   6.915  22.361  12.432 -0.1120 -0.1618 -0.1521
 6122OCT     C112243   4.694   4.726   8.301 -0.2626 -0.1835 -0.1535
 6122OCT     C212244   4.834   4.354   8.486  0.0591  0.0901  0.0986
 6123OCT     C112245  14.809  19.755   2.188 -0.2825 -0.0938 -0.1124
 6123OCT     C212246  14.693  19.967   2.562  0.2270 -0.2065 -0.1990
 6124OCT     C112247  17.204   3.210   8.886 -0.2151  0.3086  0.2929
 6124OCT     C212248  16.800   3.077   8.611  0.0770  0.0360  0.1983
 6125OCT     C112249   0.245  13.672  22.223  0.2273 -0.4014  0.0451
 6125OCT     C212250   0.676  13.579  22.444 -0.1429 -0.5319 -0.1029
 6126OCT     C112251  14.231   6.196  16.041 -0.3059 -0.0443  0.1678
 6126OCT     C212252  14.474   6.347  16.410 -0.0099 -0.0794  0.0107
 6127OCT     C112253   4.060   0.191  10.170  0.0625  0.4443 -0.0849
 6127OCT     C212254   4.162   0.452  10.536 -0.0456 -0.3131  0.0180
 6128OCT     C112255  12.950  18.241   7.947 -0.0684 -0.1256  0.2061
 6128OCT     C212256  12.508  18.209   7.993 -0.1332 -0.2277 -0.1249
 6129OCT     C112257   4.718   8.653   5.443  0.1199  0.2411 -0.2295
 6129OCT     C212258   4.504   8.341   5.203  0.4033  0.0933 -0.3832
 6130OCT     C112259   1.430  13.635  20.425 -0.2411  0.0732 -0.0555
 6130OCT     C212260   1.581  13.684  19.945  0.0113 -0.1875  0.4210
 6131OCT     C112261  10.007   6.462  22.581 -0.0383 -0.0172  0.2675
 6131OCT     C212262   9.951   6.013  22.637  0.1307 -0.2586 -0.1394
 6132OCT     C112263  18.120  18.828   3.541 -0.3237  0.0548 -0.0494
 6132OCT     C212264  17.851  19.211   3.413 -0.0633  0.2413  0.2920
 6133OCT     C112265   0.801   8.015  11.390  0.1544 -0.0111 -0.0438
 6133OCT     C212266   1.147   8.215  11.536  0.1417  0.0942 -0.1687
 6134OCT     C112267   5.225  16.580   3.621 -0.0491 -0.1842 -0.2339
 6134OCT     C212268   4.852  16.335   3.670  0.1358 -0.2438 -0.0881
 6135OCT     C112269   0.600  20.914   9.341  0.3099  0.1274  0.3070
 6135OCT     C212270   0.459  21.365   9.384 -0.4554  0.0462 -0.0985
 6136OCT     C112271  10.784  20.657   1.675 -0.0964  0.1600  0.0083
 6136OCT     C212272  11.121  20.741   1.407  0.4437  0.0431 -0.0632
 6137OCT     C112273   0.032  22.184   8.373  0.1617  0.0937 -0.2542
 6137OCT     C212274   0.036  21.789   8.096 -0.0990 -0.0090  0.6054
 6138OCT     C112275   1.089  22.125   3.005 -0.1757  0.2793  0.3427
 6138OCT     C212276   1.545  22.076   3.009 -0.0132  0.1185 -0.1232
 6139OCT     C112277  23.483  11.623   0.166 -0.1522  0.2650  0.1148
 6139OCT     C212278  23.035  11.438   0.191  0.1511 -0.3122  0.1677
 6140OCT     C112279  10.009  12.124   9.387 -0.1386  0.2829 -0.1508
 6140OCT     C212280  10.249  12.370   9.112  0.0762  0.0707  0.2766
 6141OCT     C112281  14.931  15.783   9.823 -0.0827 -0.0119 -0.0887
 6141OCT     C212282  15.299  15.477   9.883 -0.2964 -0.2164 -0.1002
 6142OCT     C112283  18.204  16.197  23.504 -0.0770 -0.2326 -0.3149
 6142OCT     C212284  17.771  16.238  23.380 -0.0887 -0.1952 -0.0839
 6143OCT     C112285   4.336   2.594   3.872  0.0730  0.0322  0.0406
 6143OCT     C212286   4.728   2.281   3.781  0.2923  0.1099 -0.2517
 6144OCT     C112287   8.634  23.345   3.152 -0.1759 -0.0679  0.2788
 6144OCT     C212288   8.888  22.942   3.160  0.4313  0.1037  0.2427
 6145OCT     C112289  13.750   2.675   2.740  0.2925  0.0549  0.0817
 6145OCT     C212290  14.135   2.908   2.893  0.0877  0.1266 -0.5962
 6146OCT     C112291   3.458  14.922  13.833  0.1555 -0.0178 -0.2250
 6146OCT     C212292   3.805  15.259  13.945  0.0076 -0.1755  0.0468
 6147OCT     C112293   7.678  18.106  11.213 -0.0536 -0.2005  0.1704
 6147OCT     C212294   7.277  17.794  11.165  0.4625 -0.2134  0.0948
 6148OCT     C112295  16.390  18.214   5.982  0.4598  0.1151 -0.0598
 6148OCT     C212296  16.288  18.142   5.521  0.1830 -0.3659  0.0817
 6149OCT     C112297  21.736   7.623   8.350  0.0787  0.0133  0.3011
 6149OCT     C212298  21.254   7.606   8.389  0.1309 -0.0407  0.0945
 6150OCT     C112299  19.256  13.810  12.047  0.1095 -0.1285 -0.0158
 6150OCT     C212300  19.135  13.393  11.949  0.0261 -0.4159  0.0027
 6151OCT     C112301   6.000   2.314  15.418 -0.0424 -0.3022  0.2013
 6151OCT     C212302   6.036   2.753  15.356  0.5033  0.1930 -0.0394
 6152OCT     C112303  15.944   1.373  10.904 -0.2476 -0.2514  0.2965
 6152OCT     C212304  16.102   1.029  10.615  0.3012 -0.0802  0.1111
 6153OCT     C112305   4.046  22.393   8.431 -0.1666  0.1053  0.0454
 6153OCT     C212306   3.522  22.416   8.396  0.1709  0.1496 -0.3071
 6154OCT     C112307   2.386   4.445   8.840  0.3129 -0.0232 -0.2688
 6154OCT     C212308   2.354   4.316   9.289 -0.1825  0.1373 -0.1147
 6155OCT     C112309  21.248  12.571  19.662  0.0822 -0.4707  0.2666
 6155OCT     C212310  21.254  12.272  19.244 -0.0177  0.1479 -0.5659
 6156OCT     C112311  18.132   4.521  18.537 -0.1502 -0.0177 -0.1702
 6156OCT     C212312  18.309   4.755  18.936 -0.2061  0.3150  0.0167
 6157OCT     C112313  15.156  20.459   8.105 -0.1365 -0.3647  0.2261
 6157OCT     C212314  15.556  20.559   8.257  0.0125 -0.1961 -0.0914
 6158OCT     C112315  14.323  12.153   0.954 -0.0537 -0.1465  0.1277
 6158OCT     C212316  14.277  12.066   1.409 -0.2051  0.2855 -0.0908
 6159OCT     C112317  12.200  21.379  18.200  0.1492  0.1456 -0.0623
 6159OCT     C212318  11.896  21.578  17.904 -0.0508 -0.3112  0.1311
 6160OCT     C112319  21.383  16.034  21.024 -0.0743 -0.1129 -0.1654
 6160OCT     C212320  21.637  16.323  20.743 -0.0489 -0.0119 -0.2580
 6161OCT     C112321  19.417  20.182   0.483 -0.1183 -0.3315 -0.1240
 6161OCT     C212322  19.812  19.935   0.573 -0.1566  0.0912 -0.3328
 6162OCT     C112323  12.939   2.497  14.738  0.0885  0.4316  0.0304
 6162OCT     C212324  13.420   2.432  14.702 -0.0234  0.3138  0.2956
 6163OCT     C112325   4.034  16.467  12.209  0.2970  0.3403 -0.1346
 6163OCT     C212326   3.868  16.141  12.507  0.0123  0.1299 -0.1321
 6164OCT     C112327  11.888  20.829  11.456  0.1104 -0.1966 -0.1037
 6164OCT     C212328  12.255  20.759  11.221 -0.1597 -0.2992 -0.1577
 6165OCT     C112329   8.178  16.892  13.732 -0.0918  0.0894  0.1166
 6165OCT     C212330   7.906  17.240  13.889 -0.1237  0.2074  0.4435
 6166OCT     C112331   1.642  15.004  14.205 -0.0010 -0.3706 -0.0018
 6166OCT     C212332   1.775  15.317  13.856 -0.3478 -0.0770  0.1357
 6167OCT     C112333  21.655   0.774   0.067  0.2671 -0.2876  0.2846
 6167OCT     C212334  21.573   1.082   0.465  0.0672 -0.1232 -0.3219
 6168OCT     C112335   5.447  23.464  17.897 -0.2199  0.0485  0.0224
 6168OCT     C212336   5.862  23.728  17.747 -0.0080 -0.1444 -0.3407
 6169OCT     C112337  20.507   5.938   3.976  0.2795  0.1386  0.2454
 6169OCT     C212338  20.585   6.372   3.871  0.2843  0.2148  0.1240
 6170OCT     C112339   1.892  10.967  15.429  0.1873 -0.1684 -0.0223
 6170OCT     C212340   1.714  10.572  15.656  0.3455  0.4248 -0.0531
 6171OCT     C112341   3.675  10.588  16.632  0.0805  0.1302  0.1151
 6171OCT     C212342   3.597  10.687  16.171 -0.0275  0.2592 -0.1112
 6172OCT     C112343  21.919   5.294   3.808  0.4125 -0.1231  0.1597
 6172OCT     C212344  22.044   5.682   3.999  0.3804 -0.2309  0.2330
 6173OCT     C112345  21.738  18.316  20.824  0.2287 -0.1628  0.1134
 6173OCT     C212346  21.636  18.764  20.804  0.3392 -0.0794  0.1725
 6174OCT     C112347   1.072   6.770   3.401  0.0974 -0.0983 -0.0882
 6174OCT     C212348   0.917   6.446   3.706  0.3169  0.0095 -0.2350
 6175OCT     C112349  13.848  19.571   0.760  0.1046  0.0081  0.2193
 6175OCT     C212350  13.417  19.627   0.713  0.4648 -0.1414  0.1298
 6176OCT     C112351   5.255   3.129   1.889 -0.3278  0.2964  0.1192
 6176OCT     C212352   5.493   2.840   2.160 -0.1558 -0.4089 -0.0298
 6177OCT     C112353  16.105  23.496  16.369 -0.0534 -0.1991 -0.0736
 6177OCT     C212354  15.950  23.420  16.843  0.5063  0.0239  0.0122
 6178OCT     C112355  15.977   4.033   7.485  0.0219  0.0824 -0.1387
 6178OCT     C212356  15.855   4.167   7.080 -0.2478  0.2427  0.0169
 6179OCT     C112357  11.966   1.131  19.476 -0.2783 -0.1320  0.2464
 6179OCT     C212358  11.689   0.779  19.567 -0.2626 -0.2154  0.1466
 6180OCT     C112359  13.815  16.925   9.305 -0.1387  0.0975  0.0994
 6180OCT     C212360  13.571  16.543   9.224 -0.1917  0.1331 -0.0439
 6181OCT     C112361  20.848  12.655   8.493  0.1432 -0.1401 -0.1648
 6181OCT     C212362  20.663  13.100   8.530  0.4873  0.0595  0.1226
 6182OCT     C112363  10.104  13.275  16.195  0.0065 -0.5017 -0.0089
 6182OCT     C212364  10.060  13.284  16.639  0.2996  0.1096 -0.3920
 6183OCT     C112365   1.805  15.353   8.970  0.4760  0.0495 -0.3351
 6183OCT     C212366   1.746  15.023   9.361  0.0824 -0.0972  0.2187
 6184OCT     C112367  15.587  12.098   3.258 -0.0434 -0.3026  0.4156
 6184OCT     C212368  15.217  12.079   2.963 -0.3371 -0.1139 -0.1963
 6185OCT     C112369  18.813   8.906  22.783 -0.0669  0.1115  0.2295
 6185OCT     C212370  18.656   8.901  23.220 -0.3659  0.2495 -0.0646
 6186OCT     C112371  14.619  22.350  13.960  0.2648  0.1510  0.1047
 6186OCT     C212372  14.654  22.780  13.964  0.1599  0.0584  0.0288
 6187OCT     C112373   2.174  15.800  12.936  0.0397  0.5932 -0.2312
 6187OCT     C212374   2.284  16.106  12.633  0.1324 -0.0322  0.2290
 6188OCT     C112375   2.997   7.897  23.258  0.1108 -0.0212  0.2517
 6188OCT     C212376   2.939   7.364  23.289  0.0655 -0.2356  0.0142
 6189OCT     C112377   1.393  14.204  19.192  0.4224 -0.0202  0.1326
 6189OCT     C212378   1.040  14.096  19.485 -0.1377  0.2718 -0.0334
 6190OCT     C112379  20.992  19.695   8.497  0.1674 -0.1844 -0.0884
 6190OCT     C212380  20.875  20.172   8.401  0.1583  0.1180  0.2533
 6191OCT     C112381  22.067  10.650  13.427  0.0599  0.0527 -0.1792
 6191OCT     C212382  22.056  10.247  13.526  0.0166  0.2893  0.2533
 6192OCT     C112383   9.357   9.232  18.324  0.0875  0.2017  0.1022
 6192OCT     C212384   8.924   9.204  18.563  0.3909  0.1693 -0.1329
 6193OCT     C112385  11.753   1.257  17.521  0.3238 -0.2159 -0.0525
 6193OCT     C212386  11.391   1.025  17.417 -0.0685 -0.0575  0.1022
 6194OCT     C112387   5.010  13.840  18.133  0.3487 -0.0050  0.1813
 6194OCT     C212388   5.265  13.426  18.083 -0.0624 -0.4684 -0.0633
 6195OCT     C112389  20.186   3.931  21.723  0.0029 -0.3324 -0.1842
 6195OCT     C212390  20.161   3.476  21.809 -0.1610 -0.1810  0.1568
 6196OCT     C112391   9.361  12.732  21.774  0.2545 -0.2704 -0.0277
 6196OCT     C212392   9.685  12.794  21.441 -0.2470  0.1792 -0.0698
 6197OCT     C112393  19.320  11.190   1.744 -0.1185 -0.1564  0.0720
 6197OCT     C212394  19.717  11.453   1.628  0.5237 -0.1815 -0.0266
 6198OCT     C112395  14.881   0.557   4.505 -0.3788  0.2454  0.2252
 6198OCT     C212396  15.308   0.637   4.306 -0.0379 -0.1266 -0.0979
 6199OCT     C112397   7.811   9.211  16.429 -0.4636  0.1721  0.2068
 6199OCT     C212398   7.438   9.457  16.432 -0.3223  0.2367 -0.1088
 6200OCT     C112399  12.697  14.804   7.135  0.1560 -0.0965  0.2089
 6200OCT     C212400  12.953  15.140   6.935 -0.2629  0.0903  0.0209
 6201OCT     C112401  11.372   3.104  19.476  0.3372 -0.4268  0.2317
 6201OCT     C212402  11.557   3.535  19.583  0.1234  0.1179  0.0079
 6202OCT     C112403   4.743  21.870  17.220  0.0670 -0.0855  0.0484
 6202OCT     C212404   4.326  22.003  17.441 -0.0038 -0.0490 -0.0567
 6203OCT     C112405  14.233   6.177   9.714 -0.1619 -0.1132  0.2571
 6203OCT     C212406  14.507   5.930   9.427 -0.2627 -0.1233 -0.0390
 6204OCT     C112407  17.404  23.313   4.769 -0.1267  0.0771 -0.2200
 6204OCT     C212408  17.547  23.483   4.361  0.2977  0.1947  0.2935
 6205OCT     C112409  19.621   8.188  11.268 -0.5921  0.1621  0.0849
 6205OCT     C212410  19.506   7.984  11.700  0.1690 -0.2003  0.1210
 6206OCT     C112411  13.957  19.135  20.814  0.0224 -0.2623 -0.1029
 6206OCT     C212412  13.620  19.114  21.111 -0.1318 -0.0639  0.0365
 6207OCT     C112413   9.632   2.833  18.117  0.2595  0.1092 -0.1626
 6207OCT     C212414   9.932   3.198  18.185 -0.0091  0.2488 -0.2815
 6208OCT     C112415   5.226  12.888   6.665 -0.2265  0.0464 -0.1054
 6208OCT     C212416   5.170  12.960   6.216  0.1533 -0.4253  0.0168
 6209OCT     C112417  15.870  14.688   2.939 -0.4595 -0.2912 -0.1164
 6209OCT     C212418  15.993  14.199   2.971 -0.1710 -0.0235  0.1162
 6210OCT     C112419  18.559  22.020  22.604 -0.3125  0.0579  0.0659
 6210OCT     C212420  18.164  21.752  22.575  0.1647  0.3846 -0.0490
 6211OCT     C112421  23.358  10.168  14.280  0.4925  0.0259 -0.0747
 6211OCT     C212422  23.047  10.060  14.666 -0.0136  0.1974  0.1509
 6212OCT     C112423   8.600  20.046   9.377 -0.2455 -0.0294  0.0742
 6212OCT     C212424   8.642  20.488   9.272  0.0824  0.3133 -0.1780
 6213OCT     C112425  23.338  22.754  17.582  0.0812  0.1642 -0.1465
 6213OCT     C212426  23.686  23.022  17.650 -0.1123 -0.1729  0.0938
 6214OCT     C112427  18.420  22.730  16.507 -0.3182 -0.1755 -0.0596
 6214OCT     C212428  18.810  22.869  16.714 -0.5329 -0.0389  0.0145
 6215OCT     C112429   8.779   6.913  17.948  0.0224  0.2427 -0.1083
 6215OCT     C212430   9.220   6.951  17.828  0.3536 -0.0932  0.0547
 6216OCT     C112431   2.476  10.284   8.013 -0.0825 -0.1128  0.1558
 6216OCT     C212432   2.454  10.581   8.435  0.0798  0.0802 -0.0442
 6217OCT     C112433   4.388   2.195   9.215 -0.1026 -0.1189 -0.0836
 6217OCT     C212434   4.418   1.835   8.993 -0.1874 -0.0433  0.0781
 6218OCT     C112435   4.334  23.432  16.295 -0.2553  0.2092 -0.1436
 6218OCT     C212436   4.325   0.175  16.215  0.0298  0.5299  0.0753
 6219OCT     C112437   5.379  13.828  16.476  0.2474  0.0403  0.4626
 6219OCT     C212438   5.242  13.745  15.980  0.0073  0.2674 -0.1906
 6220OCT     C112439  11.678   5.408  13.224 -0.0830  0.0549  0.3441
 6220OCT     C212440  11.424   5.510  13.561 -0.1674  0.0132 -0.0345
 6221OCT     C112441   8.130   2.420   6.331 -0.1940 -0.0632  0.2149
 6221OCT     C212442   7.870   2.026   6.215  0.1552  0.2022  0.3171
 6222OCT     C112443   1.446  22.807   0.771  0.1614  0.0537  0.3608
 6222OCT     C212444   1.044  23.075   0.807 -0.2816 -0.1325  0.2735
 6223OCT     C112445  16.623  10.442  18.359 -0.2857  0.0746  0.1668
 6223OCT     C212446  16.725  10.533  18.792 -0.1035  0.2614 -0.1625
 6224OCT     C112447  11.591   0.043  23.622  0.1044  0.1534  0.3204
 6224OCT     C212448  12.037   0.075   0.058 -0.2497  0.1506  0.2464
 6225OCT     C112449  10.850  10.476  12.809 -0.3185  0.4617 -0.0739
 6225OCT     C212450  10.457  10.734  12.713  0.0139  0.1403 -0.0830
 6226OCT     C112451   4.969  15.541   8.665 -0.0677 -0.1725  0.0070
 6226OCT     C212452   4.715  15.225   8.565  0.2104 -0.0604  0.1963
 6227OCT     C112453  15.324   5.052   9.777  0.1164  0.1418 -0.2315
 6227OCT     C212454  15.173   4.645   9.823 -0.0693  0.3692  0.0356
 6228OCT     C112455   4.587  22.207  23.669  0.0896  0.0426  0.2690
 6228OCT     C212456   4.622  22.565  23.329  0.0416  0.0966  0.1843
 6229OCT     C112457  15.981   5.273  17.004 -0.0491 -0.1627  0.3398
 6229OCT     C212458  16.323   5.230  17.302  0.2645  0.1293  0.1320
 6230OCT     C112459  17.842   3.238  15.150 -0.2707 -0.2720  0.0928
 6230OCT     C212460  17.674   3.330  14.709 -0.2131  0.1050 -0.0738
 6231OCT     C112461  11.266   6.451   4.616 -0.0548 -0.0995  0.1521
 6231OCT     C212462  11.551   6.095   4.430  0.0904 -0.4800 -0.1045
 6232OCT     C112463   5.640  13.060  17.971  0.2684 -0.3474  0.2166
 6232OCT     C212464   5.639  12.796  18.365 -0.0882  0.6275  0.0225
 6233OCT     C112465   3.162  20.223   0.702  0.1801 -0.0843 -0.3022
 6233OCT     C212466   2.947  20.345   1.069  0.1220 -0.0640  0.0697
 6234OCT     C112467  18.192  21.527   9.385 -0.2079 -0.0681 -0.3265
 6234OCT     C212468  17.928  21.903   9.210  0.0812  0.2501 -0.1462
 6235OCT     C112469  12.586  17.569  10.690 -0.3586 -0.2176  0.1861
 6235OCT     C212470  12.149  17.519  10.555 -0.4139  0.0777  0.1599
 6236OCT     C112471  23.607  14.906   8.978  0.0937  0.1382 -0.1801
 6236OCT     C212472  23.503  14.437   8.794 -0.0881 -0.1553 -0.2045
 6237OCT     C112473   1.815  18.778   8.750  0.0917  0.0732  0.0326
 6237OCT     C212474   2.055  19.129   8.471 -0.1386 -0.0344  0.1266
 6238OCT     C112475  20.193  16.149  16.632  0.3133  0.2201 -0.0592
 6238OCT     C212476  20.661  15.933  16.628 -0.0279  0.0097  0.0157
 6239OCT     C112477   5.372  14.031   2.746 -0.3450  0.0541  0.1612
 6239OCT     C212478   4.933  13.864   2.676  0.1051 -0.1041  0.2550
 6240OCT     C112479  20.972   9.591   5.140  0.3365 -0.2959  0.0784
 6240OCT     C212480  20.717   9.988   5.106  0.2339 -0.3267  0.1010
 6241OCT     C112481   4.460  15.754  12.074 -0.2897  0.1772 -0.0984
 6241OCT     C212482   4.780  15.446  12.256  0.0753  0.0380  0.1730
 6242OCT     C112483   7.376  18.715  16.603 -0.0701  0.4023 -0.0314
 6242OCT     C212484   7.446  18.430  16.936  0.4120 -0.0610  0.0797
 6243OCT     C112485   1.620  13.888   2.369 -0.1509 -0.3735 -0.2586
 6243OCT     C212486   1.482  14.192   1.976  0.1425 -0.0395 -0.1931
 6244OCT     C112487   4.397   9.216  23.077 -0.1407  0.2515 -0.4238
 6244OCT     C212488   4.573   8.909  23.423  0.0550  0.1156 -0.3964
 6245OCT     C112489  19.985   0.593  18.989  0.0083  0.1747 -0.2871
 6245OCT     C212490  19.891   0.068  18.919 -0.3005 -0.2381  0.0012
 6246OCT     C112491  10.972   1.416   1.968  0.1051 -0.2978 -0.0542
 6246OCT     C212492  10.534   1.589   2.071 -0.1124 -0.3590  0.1951
 6247OCT     C112493  23.302   4.015   2.196  0.0004  0.4572 -0.2010
 6247OCT     C212494  22.864   3.929   2.234 -0.2313  0.0463 -0.1217
 6248OCT     C112495  21.909   0.874  20.742 -0.0099  0.3415 -0.1174
 6248OCT     C212496  21.804   0.835  21.172  0.0353  0.0495 -0.2430
 6249OCT     C112497  13.629  16.341   4.631  0.0798 -0.2953 -0.2225
 6249OCT     C212498  13.902  16.621   4.889 -0.1926  0.1761  0.1031
 6250OCT     C112499   2.572   5.350   0.680  0.4217  0.0933 -0.2359
 6250OCT     C212500   2.942   5.619   0.687 -0.2802  0.0326  0.0278
 6251OCT     C112501   8.255   1.274   4.321 -0.0738  0.0400 -0.4208
 6251OCT     C212502   7.887   1.554   4.352 -0.0066 -0.2885  0.2661
 6252OCT     C112503   3.395   8.177   0.535 -0.0666 -0.2570 -0.2013
 6252OCT     C212504   3.451   7.942   0.952 -0.0110 -0.0797 -0.0151
 6253OCT     C112505  13.378  14.756  22.533 -0.2260 -0.0406  0.1688
 6253OCT     C212506  13.405  14.977  22.132 -0.1381  0.1031 -0.0583
 6254OCT     C112507   7.198  15.008  21.223  0.2570 -0.0600  0.1090
 6254OCT     C212508   7.028  14.686  20.915 -0.2676 -0.2105  0.3657
 6255OCT     C112509  19.020  23.340  22.853 -0.0043  0.2424  0.0882
 6255OCT     C212510  19.035   0.041  22.850  0.0419  0.0170 -0.1281
 6256OCT     C112511   9.163   1.432  20.065  0.2322 -0.2262 -0.1926
 6256OCT     C212512   9.238   1.845  20.133  0.3206 -0.2125 -0.1672
 6257OCT     C112513  15.453   7.261   2.976 -0.0805 -0.0273  0.4439
 6257OCT     C212514  15.405   7.647   3.288  0.3332 -0.0818 -0.1385
 6258OCT     C112515   7.091   0.771  23.121  0.1388  0.2089 -0.0258
 6258OCT     C212516   6.631   0.577  23.249 -0.1210  0.0614 -0.0154
 6259OCT     C112517   7.014  20.638   9.761  0.0782  0.2036 -0.3694
 6259OCT     C212518   7.420  20.898   9.829 -0.2089  0.1035  0.0170
 6260OCT     C112519  14.290   9.847   2.798  0.0261  0.0176  0.0118
 6260OCT     C212520  14.599   9.798   3.192 -0.4274  0.3104 -0.1227
 6261OCT     C112521  13.569  23.132   9.971  0.0735  0.2587  0.0445
 6261OCT     C212522  13.568  22.637  10.054 -0.0263  0.1633  0.5371
 6262OCT     C112523   7.154  19.134  22.687 -0.0319  0.2106 -0.1944
 6262OCT     C212524   7.192  19.580  22.519 -0.0905  0.0183  0.1184
 6263OCT     C112525   0.801  23.198  21.532 -0.0071 -0.2206 -0.1518
 6263OCT     C212526   0.951  23.005  21.145  0.0428  0.3827  0.3727
 6264OCT     C112527   8.505  16.493   2.668  0.5702  0.1817 -0.1377
 6264OCT     C212528   8.175  16.136   2.831  0.2562 -0.1798 -0.2393
 6265OCT     C112529   9.883   8.802   7.930  0.1834  0.4461  0.1222
 6265OCT     C212530   9.616   8.477   7.702  0.2358 -0.2390  0.1128
 6266OCT     C112531   0.262  21.366   6.720  0.0877 -0.5546 -0.0164
 6266OCT     C212532   0.668  21.604   6.556 -0.1308 -0.1593 -0.1683
 6267OCT     C112533   4.831   2.533  10.661  0.2014  0.1387 -0.0624
 6267OCT     C212534   5.107   2.778  10.449  0.0677 -0.3529  0.0978
 6268OCT     C112535   7.919  22.552   5.827  0.2714  0.0553  0.2147
 6268OCT     C212536   8.243  22.198   5.780  0.3023 -0.2526  0.0287
 6269OCT     C112537   3.596  21.151  20.811  0.3132  0.1909 -0.0079
 6269OCT     C212538   3.430  21.387  21.165 -0.3665  0.4983 -0.1594
 6270OCT     C112539  21.513   3.193  22.086 -0.0306  0.4206 -0.0029
 6270OCT     C212540  21.814   3.543  22.254 -0.1471  0.2807  0.2475
 6271OCT     C112541  21.782  19.320   7.436  0.2911  0.0051  0.0659
 6271OCT     C212542  21.764  18.929   7.214  0.4094  0.0171 -0.4882
 6272OCT     C112543   6.367  11.864   9.823  0.1788  0.2073  0.0852
 6272OCT     C212544   6.372  11.603   9.400 -0.0068  0.1598 -0.2095
 6273OCT     C112545   4.088   0.570  22.642  0.1028  0.1460  0.0043
 6273OCT     C212546   3.719   0.825  22.839  0.3504 -0.1569  0.0263
 6274OCT     C112547  21.857  18.813  15.644 -0.1137  0.2907 -0.0314
 6274OCT     C212548  21.699  18.432  15.394  0.2589  0.1937  0.3283
 6275OCT     C112549   7.030  10.654   8.855 -0.0365  0.3710 -0.1162
 6275OCT     C212550   6.791  10.328   9.163 -0.2044 -0.1005 -0.0163
 6276OCT     C112551   0.454   1.065  21.463  0.1308  0.1517 -0.2447
 6276OCT     C212552   0.112   0.761  21.498 -0.0050 -0.3091 -0.3465
 6277OCT     C112553  22.051   2.743   0.213  0.3008  0.0000  0.1434
 6277OCT     C212554  22.365   3.079   0.337 -0.2174 -0.0026  0.3018
 6278OCT     C112555  19.073   5.490  13.834  0.0020  0.0895  0.1632
 6278OCT     C212556  18.831   5.280  13.475  0.3169  0.0225  0.3711
 6279OCT     C112557  22.414  21.889  16.068 -0.0522 -0.0388  0.1587
 6279OCT     C212558  22.863  21.770  16.245 -0.1381 -0.0016 -0.2286
 6280OCT     C112559   3.502   2.598  10.923  0.0499  0.2371  0.1232
 6280OCT     C212560   3.596   2.672  11.385 -0.0337 -0.1349  0.1535
 6281OCT     C112561  16.492  21.199  14.878  0.2163 -0.0834  0.1130
 6281OCT     C212562  16.156  20.935  14.776 -0.0804  0.1829  0.1552
 6282OCT     C112563  22.412  12.822   0.722  0.0402 -0.1162  0.1229
 6282OCT     C212564  22.022  12.962   0.696  0.1244  0.2341 -0.0806
 6283OCT     C112565  11.262   0.924  12.615 -0.2109 -0.2816 -0.1468
 6283OCT     C212566  11.454   0.452  12.660 -0.4395 -0.0245  0.0137
 6284OCT     C112567  22.018   4.835   6.292  0.3390  0.1265 -0.0040
 6284OCT     C212568  22.290   4.722   5.914  0.3023 -0.0807 -0.0109
 6285OCT     C112569  13.060  23.722  17.866  0.0167  0.1956 -0.0821
 6285OCT     C212570  12.620   0.131  17.922  0.1225 -0.0973  0.0753
 6286OCT     C112571  13.399  14.349   8.613  0.2030 -0.2086 -0.1413
 6286OCT     C212572  13.019  14.359   8.910 -0.1167  0.4133 -0.1432
 6287OCT     C112573   2.170   9.578   5.844 -0.0543  0.1804  0.0235
 6287OCT     C212574   2.302   9.577   5.400  0.3692  0.1794  0.5964
 6288OCT     C112575  10.300   2.414   4.434 -0.1782 -0.0713  0.2456
 6288OCT     C212576  10.798   2.407   4.496  0.0691 -0.3616 -0.1673
 6289OCT     C112577  22.195  19.450   4.679 -0.1258 -0.3793  0.0925
 6289OCT     C212578  21.962  19.077   4.779  0.2729  0.2092  0.1923
 6290OCT     C112579  16.887  20.346  16.308  0.2842 -0.3603  0.0081
 6290OCT     C212580  16.407  20.226  16.378 -0.2526 -0.0871 -0.0204
 6291OCT     C112581   5.591  17.420   2.420 -0.2426 -0.0422 -0.1643
 6291OCT     C212582   5.165  17.427   2.391  0.0108  0.1553  0.1927
 6292OCT     C112583   5.587  12.840  19.720  0.3295  0.2941 -0.2125
 6292OCT     C212584   5.316  12.388  19.779 -0.3377  0.1916 -0.2151
 6293OCT     C112585  11.757  11.313   6.068  0.0725 -0.2129  0.0191
 6293OCT     C212586  11.928  11.043   6.388 -0.1518  0.1637 -0.0470
 6294OCT     C112587  11.764  13.503   5.027  0.3558 -0.0210  0.4058
 6294OCT     C212588  11.545  13.426   4.608  0.4788  0.1704 -0.0818
 6295OCT     C112589  14.666  22.879  10.910 -0.5415 -0.2575 -0.2302
 6295OCT     C212590  14.523  23.311  11.038 -0.1860 -0.3012 -0.2630
 6296OCT     C112591   2.706   9.405  14.531  0.3094 -0.2519  0.2435
 6296OCT     C212592   2.994   9.168  14.837  0.1942  0.0003 -0.0285
 6297OCT     C112593   1.731  21.677   3.584  0.0954 -0.0055 -0.3854
 6297OCT     C212594   1.417  21.677   3.272 -0.1173 -0.0427 -0.1047
 6298OCT     C112595   2.149   2.706  11.220 -0.0088  0.0449  0.0464
 6298OCT     C212596   2.291   3.087  11.203 -0.2457 -0.1682  0.0206
 6299OCT     C112597   0.332   2.507  19.756  0.0517  0.0133  0.2615
 6299OCT     C212598   0.652   2.875  19.708 -0.2433  0.0676  0.1247
 6300OCT     C112599  10.371  19.384   8.205 -0.0235  0.0309  0.0879
 6300OCT     C212600  10.717  19.653   8.397  0.2985 -0.3076  0.0316
 6301OCT     C112601   2.436  21.599  21.603 -0.0721 -0.2156  0.2342
 6301OCT     C212602   2.820  21.460  21.661  0.1846  0.1637 -0.0380
 6302OCT     C112603  20.347   5.945  20.498 -0.2582 -0.2862 -0.2627
 6302OCT     C212604  20.044   5.654  20.374  0.1985 -0.2297 -0.1668
 6303OCT     C112605  23.344   2.775  21.958 -0.4091 -0.1109 -0.0058
 6303OCT     C212606  23.258   3.054  21.588 -0.1942 -0.1658 -0.3838
 6304OCT     C112607  11.522  13.783  22.252 -0.2714 -0.0426  0.0436
 6304OCT     C212608  11.518  13.744  22.736  0.0817  0.3904  0.0370
 6305OCT     C112609   7.229   4.954  10.838  0.0742 -0.0553 -0.0304
 6305OCT     C212610   7.412   5.092  10.473  0.1675 -0.1734 -0.0877
 6306OCT     C112611  14.230  19.650  12.069 -0.1128  0.3209  0.0785
 6306OCT     C212612  14.079  19.247  11.947 -0.4975  0.0685  0.3713
 6307OCT     C112613   2.888  15.359   2.513  0.0221  0.0217 -0.2495
 6307OCT     C212614   2.670  15.355   2.946  0.0840 -0.0821 -0.2203
 6308OCT     C112615  14.790  11.390  14.063  0.1425 -0.1835 -0.6702
 6308OCT     C212616  14.356  11.372  13.909 -0.1460  0.3307 -0.0538
 6309OCT     C112617  11.471   7.447   5.693 -0.1843 -0.2242  0.0981
 6309OCT     C212618  11.007   7.389   5.623 -0.1037  0.2483 -0.1326
 6310OCT     C112619   3.738  18.797  20.101 -0.0463  0.0669 -0.0919
 6310OCT     C212620   3.752  19.268  20.163  0.0605 -0.4416  0.0746
 6311OCT     C112621  14.986  19.389  21.319 -0.0742 -0.0584  0.0871
 6311OCT     C212622  15.363  19.360  21.026 -0.2645 -0.1078 -0.1328
 6312OCT     C112623   7.248   1.920   5.499  0.0196 -0.1060  0.3013
 6312OCT     C212624   7.292   2.331   5.393 -0.4855 -0.1406  0.2969
 6313OCT     C112625  22.020  23.215  16.457  0.1196  0.1338  0.1731
 6313OCT     C212626  21.562  23.336  16.184 -0.2665  0.3144  0.0802
 6314OCT     C112627   0.601   6.137   4.715  0.3243  0.1596 -0.0508
 6314OCT     C212628   0.247   6.220   5.044 -0.0746 -0.1776  0.1539
 6315OCT     C112629  17.979  13.012   6.047 -0.0941 -0.2339 -0.0787
 6315OCT     C212630  17.990  13.504   5.987  0.0219  0.3381 -0.0787
 6316OCT     C112631   0.504  23.389  16.875  0.1038 -0.2972 -0.1010
 6316OCT     C212632   0.514  23.149  17.294 -0.0983 -0.0092  0.2054
 6317OCT     C112633   4.547   0.114  19.103 -0.2833 -0.1454 -0.0114
 6317OCT     C212634   4.273  23.552  18.984 -0.1743  0.0063  0.2351
 6318OCT     C112635  20.604  12.580  12.635  0.0110 -0.2416  0.1708
 6318OCT     C212636  20.926  12.253  12.791  0.1987 -0.1084 -0.4047
 6319OCT     C112637   6.822   3.742  14.628 -0.0826  0.2311 -0.1511
 6319OCT     C212638   6.612   4.132  14.496 -0.0937  0.0473  0.0230
 6320OCT     C112639   4.711  17.555  16.298 -0.0208 -0.4851 -0.3817
 6320OCT     C212640   4.718  17.212  16.593 -0.3204  0.0875  0.0123
 6321OCT     C112641   7.396  22.212   0.306  0.1339  0.5679  0.2096
 6321OCT     C212642   7.813  22.124   0.515 -0.1058  0.0750 -0.2722
 6322OCT     C112643   6.485  12.511   3.542 -0.3103 -0.2820  0.2742
 6322OCT     C212644   6.724  12.132   3.762  0.1796  0.3963 -0.0607
 6323OCT     C112645  16.329  14.682  12.119 -0.1021 -0.3347 -0.0195
 6323OCT     C212646  15.855  14.837  12.195 -0.1190 -0.2311  0.0371
 6324OCT     C112647   0.488  11.101  12.273  0.2626  0.2633  0.1986
 6324OCT     C212648   0.448  10.797  11.891  0.1200 -0.3251  0.3137
 6325OCT     C112649  10.256   6.798  21.992 -0.1172 -0.0422 -0.1029
 6325OCT     C212650   9.809   6.732  22.175  0.3122  0.0626 -0.1350
 6326OCT     C112651  16.267  17.805  21.798  0.2176 -0.1313  0.0977
 6326OCT     C212652  16.313  18.238  21.685  0.0282 -0.2191 -0.1859
 6327OCT     C112653  11.319  18.387   6.587 -0.1406 -0.0490 -0.2172
 6327OCT     C212654  11.198  18.569   6.170 -0.0846 -0.0226 -0.1229
 6328OCT     C112655   4.166  10.357  10.468  0.1310  0.2098  0.0409
 6328OCT     C212656   4.516  10.568  10.689 -0.2263  0.0665  0.0830
 6329OCT     C112657  13.157  19.268   8.306  0.1815 -0.1564 -0.3777
 6329OCT     C212658  12.750  19.049   8.265  0.3244  0.2482  0.0597
 6330OCT     C112659  11.625   1.598   4.240  0.3444  0.0824  0.0634
 6330OCT     C212660  11.656   1.712   4.644 -0.0751 -0.0589  0.2957
 6331OCT     C112661  11.343  19.778  23.547 -0.2664  0.0174  0.0598
 6331OCT     C212662  11.072  19.708  23.190 -0.2485 -0.0669  0.1847
 6332OCT     C112663  18.237   4.961  15.780 -0.2129  0.1051  0.2711
 6332OCT     C212664  18.676   5.120  15.755  0.0702  0.0870  0.2447
 6333OCT     C112665   2.129   4.010  22.234  0.2075  0.0171 -0.0762
 6333OCT     C212666   1.821   3.730  22.403  0.0693 -0.1470  0.2085
 6334OCT     C112667  20.064  16.157  14.644 -0.2859  0.1126  0.2254
 6334OCT     C212668  19.777  16.287  14.991 -0.3625  0.1036  0.3666
 6335OCT     C112669  15.697  12.894  22.423 -0.0454  0.1423  0.1657
 6335OCT     C212670  15.603  13.132  22.098 -0.2965 -0.2129  0.0924
 6336OCT     C112671  13.443   5.894   4.024  0.0750  0.2050 -0.0894
 6336OCT     C212672  13.635   6.146   3.707  0.2581 -0.0216  0.6939
 6337OCT     C112673   6.587   1.535  16.712 -0.1015 -0.0121  0.1984
 6337OCT     C212674   6.611   1.224  16.327 -0.0784 -0.0451 -0.1352
 6338OCT     C112675  16.041  12.563   4.981 -0.0365  0.0633  0.1768
 6338OCT     C212676  15.586  12.391   5.104  0.0344  0.1437 -0.1607
 6339OCT     C112677  21.668  22.811  21.565 -0.3654  0.1247  0.3056
 6339OCT     C212678  21.709  22.454  21.284 -0.3683 -0.0999 -0.2239
 6340OCT     C112679  15.893  11.010  11.839  0.0836  0.0603  0.2412
 6340OCT     C212680  16.090  11.424  11.779 -0.5430  0.1981 -0.3578
 6341OCT     C112681   5.286  20.796  14.214 -0.2038  0.3281 -0.0286
 6341OCT     C212682   5.219  21.236  14.288  0.2042  0.0353 -0.1513
 6342OCT     C112683  12.969   0.669  22.942 -0.2297  0.0075 -0.3702
 6342OCT     C212684  13.275   1.034  22.998 -0.4408  0.2425  0.4388
 6343OCT     C112685  21.963  12.546   7.886 -0.1006 -0.1336 -0.2114
 6343OCT     C212686  21.636  12.513   7.539 -0.1198 -0.1008 -0.0721
 6344OCT     C112687   3.425  14.602  10.509  0.0975 -0.3285  0.1437
 6344OCT     C212688   3.584  14.255  10.366  0.1767  0.1004 -0.3466
 6345OCT     C112689   2.284  10.943  10.515  0.0607  0.4769  0.2118
 6345OCT     C212690   2.562  11.196  10.217 -0.1305 -0.2022  0.0607
 6346OCT     C112691  18.664   2.108   0.484  0.0112  0.3697  0.0987
 6346OCT     C212692  18.482   2.477   0.295  0.2693 -0.3093  0.2242
 6347OCT     C112693  13.726  15.458   9.044 -0.0138 -0.0457 -0.1885
 6347OCT     C212694  13.552  15.219   8.733  0.0107  0.1926  0.3744
 6348OCT     C112695   1.936   4.595  19.915 -0.1557 -0.1491 -0.0398
 6348OCT     C212696   1.835   5.003  19.719  0.0460  0.0128 -0.0866
 6349OCT     C112697   7.332  23.543  11.971 -0.1944 -0.0952 -0.4144
 6349OCT     C212698   7.069   0.126  12.211 -0.1553  0.0454  0.2317
 6350OCT     C112699  14.676   3.556   5.463  0.2493 -0.0489 -0.1510
 6350OCT     C212700  14.712   3.840   5.147 -0.4054  0.1689 -0.2612
 6351OCT     C112701   2.364  20.141  13.032  0.2677 -0.3815 -0.2092
 6351OCT     C212702   2.615  19.791  12.819 -0.0028  0.2789  0.1948
 6352OCT     C112703   4.271   1.683  13.360  0.0080  0.0206  0.2161
 6352OCT     C212704   4.652   1.837  13.490 -0.3543 -0.3330 -0.0804
 6353OCT     C112705  12.379  16.036   2.550  0.1660  0.0736 -0.4134
 6353OCT     C212706  12.377  15.779   2.937  0.1012 -0.1067  0.0768
 6354OCT     C112707  15.908  10.151  11.351 -0.4182  0.1619  0.4435
 6354OCT     C212708  15.912   9.719  11.564 -0.2183 -0.3251  0.2302
 6355OCT     C112709   5.499  19.904  17.794 -0.2411  0.2701  0.1030
 6355OCT     C212710   5.391  19.505  17.989 -0.0648  0.1162  0.1432
 6356OCT     C112711   1.019   1.678   3.327  0.1731  0.2737  0.1347
 6356OCT     C212712   1.228   2.043   3.118 -0.0421 -0.0543 -0.3017
 6357OCT     C112713   3.047  11.655  21.719  0.1477 -0.3153  0.0915
 6357OCT     C212714   3.024  11.784  21.259 -0.1391 -0.0879  0.0287
 6358OCT     C112715   2.469  12.134   4.804 -0.0326 -0.3273  0.1452
 6358OCT     C212716   2.758  12.458   4.727 -0.2254 -0.1856 -0.0836
 6359OCT     C112717  19.091  18.011  13.187 -0.2915 -0.0035  0.4950
 6359OCT     C212718  19.116  18.431  12.992 -0.0016 -0.4106  0.1547
 6360OCT     C112719  23.199   1.629   9.864  0.0071 -0.1903  0.0040
 6360OCT     C212720  23.308   1.757   9.471 -0.2368 -0.0522  0.0500
 6361OCT     C112721  15.452  14.717  17.471  0.0331  0.2873 -0.0652
 6361OCT     C212722  15.368  14.595  17.916 -0.2145 -0.1006  0.1851
 6362OCT     C112723   9.452  10.771  19.664 -0.1340  0.0170 -0.0353
 6362OCT     C212724   9.470  10.287  19.634  0.0044 -0.0785 -0.0197
 6363OCT     C112725  16.809  19.344   7.189 -0.2002 -0.2723  0.0903
 6363OCT     C212726  16.776  19.266   7.606  0.1272  0.0230 -0.2736
 6364OCT     C112727  20.416   7.370   6.912 -0.1460  0.3803  0.0514
 6364OCT     C212728  20.441   7.828   6.986 -0.1676  0.0486 -0.2393
 6365OCT     C112729   8.103   0.578   6.629  0.0228  0.2298  0.2699
 6365OCT     C212730   7.861   0.929   6.812  0.0485 -0.1060  0.1318
 6366OCT     C112731   0.709   0.921   9.052 -0.1866 -0.0867  0.0518
 6366OCT     C212732   0.362   0.771   9.311  0.1483  0.0962 -0.0065
 6367OCT     C112733  14.604  15.883  12.275  0.2245  0.1286 -0.0188
 6367OCT     C212734  14.698  15.413  12.173  0.0056 -0.1794 -0.0886
 6368OCT     C112735  19.992  12.760   4.265 -0.0668 -0.2746  0.2296
 6368OCT     C212736  20.275  12.863   3.928  0.0638  0.1852  0.2085
 6369OCT     C112737  22.178  11.223  14.350  0.1026 -0.1132  0.5963
 6369OCT     C212738  22.008  10.827  14.464 -0.0939 -0.3005  0.6803
 6370OCT     C112739  23.579   7.315   2.523  0.2496  0.4090 -0.0223
 6370OCT     C212740  23.516   7.761   2.462  0.4736 -0.1874  0.0639
 6371OCT     C112741   2.788   6.984  17.639 -0.2487 -0.1506 -0.1467
 6371OCT     C212742   2.915   6.531  17.520 -0.2875 -0.0493  0.0436
 6372OCT     C112743  23.334  18.468   1.911  0.1631  0.3233 -0.0465
 6372OCT     C212744  23.585  18.787   2.109 -0.2335  0.2558  0.2578
 6373OCT     C112745  13.023  15.226  16.733  0.2953 -0.2884  0.1610
 6373OCT     C212746  12.759  14.886  16.541  0.1318 -0.1665  0.1234
 6374OCT     C112747  17.560  16.617  18.861 -0.1503  0.1578  0.0170
 6374OCT     C212748  17.198  16.529  19.114  0.0224  0.0299  0.1816
 6375OCT     C112749  21.980   7.057  10.552  0.0258  0.2073 -0.3319
 6375OCT     C212750  22.395   7.181  10.375  0.3134 -0.1222 -0.0765
 6376OCT     C112751  23.536  15.335   4.699  0.1209  0.0971 -0.2602
 6376OCT     C212752  23.335  15.473   5.134  0.1888 -0.4078 -0.1522
 6377OCT     C112753  21.461  23.181  14.830  0.0701  0.1965 -0.2987
 6377OCT     C212754  21.528  23.616  14.737  0.1738 -0.3262 -0.1041
 6378OCT     C112755  16.286  16.383   5.031 -0.2069  0.0647 -0.3570
 6378OCT     C212756  16.057  16.483   4.674 -0.1235  0.0537 -0.1152
 6379OCT     C112757   0.428  14.669  11.368 -0.0144 -0.0707  0.3536
 6379OCT     C212758   0.097  14.453  11.611 -0.1424 -0.3068  0.3776
 6380OCT     C112759   8.917  18.349  17.949 -0.0849  0.3045  0.0267
 6380OCT     C212760   9.032  18.409  18.365 -0.0090 -0.0428  0.2994
 6381OCT     C112761   0.258   9.677   4.211 -0.0271  0.5161 -0.2833
 6381OCT     C212762   0.457   9.446   3.849  0.0848 -0.3406  0.3106
 6382OCT     C112763  18.190   3.411  12.857 -0.2328  0.2181 -0.1951
 6382OCT     C212764  18.479   3.017  12.846 -0.5447  0.2037  0.3316
 6383OCT     C112765   6.790   2.812  12.454 -0.0350  0.3482  0.4347
 6383OCT     C212766   6.931   2.725  12.930 -0.0526 -0.0976  0.1252
 6384OCT     C112767   7.197  12.578   2.937 -0.0625 -0.4136 -0.0688
 6384OCT     C212768   6.857  12.791   3.204 -0.1661 -0.0390 -0.0925
 6385OCT     C112769  14.347  15.306  15.742  0.0694 -0.1916 -0.2273
 6385OCT     C212770  14.509  15.406  15.306  0.1197 -0.0810 -0.2096
 6386OCT     C112771  22.405  13.352   9.719  0.1159  0.4743  0.2338
 6386OCT     C212772  22.333  12.919   9.531  0.1263  0.1083 -0.0069
 6387OCT     C112773   0.268  16.601   2.731  0.3130  0.2120 -0.4118
 6387OCT     C212774   0.147  16.298   3.042 -0.4776  0.1598  0.1485
 6388OCT     C112775  19.685  12.241  10.185 -0.2292  0.2752 -0.0996
 6388OCT     C212776  19.719  12.722  10.050  0.1626 -0.1780 -0.2181
 6389OCT     C112777  13.256  13.478   5.524 -0.5535 -0.1911 -0.2871
 6389OCT     C212778  13.501  13.815   5.793 -0.2948 -0.1832  0.1784
 6390OCT     C112779  11.413   9.718   2.063  0.2928  0.0307 -0.2737
 6390OCT     C212780  11.196   9.451   2.395  0.0095  0.1066 -0.3372
 6391OCT     C112781  20.841   4.949  13.190  0.0930 -0.0801 -0.0675
 6391OCT     C212782  20.610   4.552  13.455 -0.0129 -0.1983 -0.1495
 6392OCT     C112783   3.557  13.071  15.752  0.1113  0.1776  0.1128
 6392OCT     C212784   3.784  13.518  15.678  0.1331  0.1337  0.2739
 6393OCT     C112785  16.077   3.523  23.542 -0.4177 -0.2288  0.1032
 6393OCT     C212786  16.257   3.121  23.709  0.2944  0.1147 -0.1371
 6394OCT     C112787  18.482   6.175  13.306  0.0579  0.2682  0.1537
 6394OCT     C212788  18.530   6.322  13.699  0.1874  0.2547 -0.3492
 6395OCT     C112789  11.743   9.955  17.750 -0.0899  0.0151 -0.0872
 6395OCT     C212790  11.955  10.193  18.093  0.0411  0.0609 -0.0278
 6396OCT     C112791  21.778  14.284   0.404  0.2390  0.8172 -0.1091
 6396OCT     C212792  21.736  14.706   0.192 -0.1135  0.1001 -0.0133
 6397OCT     C112793  18.450  15.795   2.923  0.3474 -0.0276  0.0696
 6397OCT     C212794  18.624  15.362   3.019  0.1283 -0.0557 -0.3552
 6398OCT     C112795   6.466  12.304   5.984 -0.1558 -0.1089 -0.3933
 6398OCT     C212796   6.881  12.467   6.108  0.0989 -0.1304  0.0283
 6399OCT     C112797  19.879  11.471  18.068  0.3542 -0.3048  0.0174
 6399OCT     C212798  19.527  11.221  18.048  0.4674 -0.0519 -0.1275
 6400OCT     C112799  20.894   0.618   4.036  0.2217  0.3852 -0.0789
 6400OCT     C212800  21.313   0.842   4.037  0.0904 -0.2925 -0.1524
 6401OCT     C112801  13.731   5.658   9.110  0.0320  0.0518  0.3731
 6401OCT     C212802  14.033   5.879   9.295 -0.2142 -0.0941  0.0460
 6402OCT     C112803   3.769  20.706  16.961  0.3660  0.3999 -0.1086
 6402OCT     C212804   3.454  20.899  17.218  0.2161  0.4297  0.4857
 6403OCT     C112805  17.294   7.609   6.153  0.2593  0.1475  0.5122
 6403OCT     C212806  16.961   7.468   5.885  0.5249 -0.0739  0.0757
 6404OCT     C112807   6.958  15.233   2.682 -0.3065 -0.0808 -0.3058
 6404OCT     C212808   7.333  15.511   2.599  0.2746 -0.1201 -0.0060
 6405OCT     C112809  21.559   6.111  20.921  0.1594 -0.0716  0.1369
 6405OCT     C212810  21.197   6.168  20.601  0.0443 -0.0370  0.1920
 6406OCT     C112811  21.030   1.633   5.035 -0.0465 -0.4164 -0.1223
 6406OCT     C212812  21.370   1.938   5.144 -0.0938 -0.2472  0.3756
 6407OCT     C112813  18.940   9.594  15.714  0.1096  0.0322 -0.0332
 6407OCT     C212814  18.937  10.023  15.565  0.3120 -0.0525 -0.1910
 6408OCT     C112815   8.764  14.850   6.303 -0.1401  0.4148 -0.1304
 6408OCT     C212816   8.311  14.882   6.290 -0.0622 -0.1315  0.2729
 6409OCT     C112817  13.910  10.557   1.873  0.1832 -0.1833  0.1607
 6409OCT     C212818  13.890  10.532   2.351  0.2088  0.1394 -0.1919
 6410OCT     C112819  19.839  18.381  17.201 -0.2321 -0.1089  0.1430
 6410OCT     C212820  19.606  18.734  17.041 -0.2368 -0.1484  0.0395
 6411OCT     C112821   3.890  16.706  14.581  0.3486  0.2109 -0.3546
 6411OCT     C212822   3.901  16.283  14.714  0.0438  0.0348  0.1022
 6412OCT     C112823   1.894   0.289   1.653  0.0338  0.0209  0.4407
 6412OCT     C212824   2.280   0.456   1.842 -0.1940 -0.1895 -0.0580
 6413OCT     C112825   5.120  13.937  23.571 -0.1369  0.2783  0.3672
 6413OCT     C212826   5.146  14.220   0.189 -0.0491  0.1862  0.3286
 6414OCT     C112827  19.234   9.855  22.354 -0.5267  0.0031 -0.0301
 6414OCT     C212828  18.884  10.195  22.520  0.1608  0.2096  0.3266
 6415OCT     C112829  17.765   6.702  11.941 -0.0099 -0.0275 -0.2784
 6415OCT     C212830  17.899   6.757  12.361  0.3266 -0.2549 -0.2586
 6416OCT     C112831   5.788  14.998  13.309  0.1929 -0.0964  0.1764
 6416OCT     C212832   5.548  14.631  13.207  0.4115  0.2060  0.2949
 6417OCT     C112833  11.862  19.300   1.314  0.2056 -0.0078  0.2263
 6417OCT     C212834  12.129  19.393   0.906  0.0646 -0.2876  0.0564
 6418OCT     C112835   4.679   5.044  14.988 -0.0681 -0.2156 -0.0981
 6418OCT     C212836   4.562   5.135  14.600  0.1055 -0.2037  0.3339
 6419OCT     C112837  13.948  14.792  16.887 -0.1243 -0.0330 -0.0824
 6419OCT     C212838  14.229  14.733  16.508 -0.0513  0.3352  0.1552
 6420OCT     C112839   3.164  18.631   0.019  0.0367  0.2484  0.3711
 6420OCT     C212840   3.380  19.045   0.132 -0.1803  0.3236  0.6611
 6421OCT     C112841  19.244  13.998  18.656 -0.1603 -0.0203  0.0691
 6421OCT     C212842  19.215  14.346  19.005  0.2434  0.0174  0.1430
 6422OCT     C112843  13.048  18.871  16.023  0.2754  0.2447  0.2643
 6422OCT     C212844  13.118  19.236  16.231  0.3848 -0.1502  0.0615
 6423OCT     C112845   4.759   1.540  22.720  0.0433  0.4728  0.0120
 6423OCT     C212846   4.843   1.960  22.583  0.1107 -0.1096 -0.2220
 6424OCT     C112847  13.521  19.514  18.207  0.1685 -0.0565 -0.1267
 6424OCT     C212848  13.507  19.982  18.229  0.5989 -0.3681 -0.2092
 6425OCT     C112849  18.068  18.061   8.715 -0.2166 -0.0909  0.1022
 6425OCT     C212850  18.514  18.094   8.500 -0.2580  0.3487 -0.2851
 6426OCT     C112851   8.663  12.314  19.280 -0.0866  0.1931  0.3454
 6426OCT     C212852   8.463  11.925  19.151 -0.2302 -0.1880 -0.1622
 6427OCT     C112853  17.010   9.678  20.137 -0.0101 -0.0201 -0.0604
 6427OCT     C212854  17.327   9.710  19.823  0.1838 -0.1959 -0.2452
 6428OCT     C112855  19.449   3.847  21.881 -0.1890  0.1797 -0.1046
 6428OCT     C212856  19.636   3.427  21.981 -0.0629 -0.2383 -0.2317
 6429OCT     C112857  14.442   8.635  22.275 -0.1945  0.1333 -0.1145
 6429OCT     C212858  14.137   8.774  21.922  0.1689 -0.4873  0.1604
 6430OCT     C112859   2.763   1.021  17.215 -0.2276  0.5314 -0.0825
 6430OCT     C212860   3.019   1.121  16.851 -0.1139 -0.1550  0.0879
 6431OCT     C112861  21.285  21.068   9.833 -0.2431  0.0440  0.7544
 6431OCT     C212862  21.654  21.196  10.158 -0.0055 -0.1855  0.1060
 6432OCT     C112863  18.663  11.807   0.068 -0.0257  0.1948 -0.1609
 6432OCT     C212864  18.542  11.904   0.557  0.2957 -0.1097  0.0953
 6433OCT     C112865  16.752   4.938  19.042  0.0925  0.1356  0.4061
 6433OCT     C212866  17.228   4.899  19.093  0.1419 -0.0091  0.3750
 6434OCT     C112867   2.207   9.553  22.185  0.0872  0.0221  0.1179
 6434OCT     C212868   2.349   9.989  21.989  0.0506  0.1821 -0.0916
 6435OCT     C112869  18.476   3.188  15.173  0.3310  0.2074  0.2252
 6435OCT     C212870  18.264   3.558  15.200 -0.0875  0.5253  0.4005
 6436OCT     C112871  10.121   7.625  16.022  0.0778  0.4012  0.3127
 6436OCT     C212872  10.343   7.733  15.636 -0.0879 -0.3764 -0.1007
 6437OCT     C112873  14.487  18.650   0.737 -0.0778 -0.3362  0.1394
 6437OCT     C212874  14.451  18.979   1.071  0.5652 -0.0457 -0.3533
 6438OCT     C112875  18.483  18.381  14.043 -0.2507  0.0757  0.1317
 6438OCT     C212876  18.137  18.602  13.914  0.5927 -0.1636  0.2520
 6439OCT     C112877  14.275  15.434  11.838  0.0288 -0.0483 -0.0879
 6439OCT     C212878  14.128  15.250  11.398  0.0106 -0.3201  0.2006
 6440OCT     C112879   8.202   3.424  14.159 -0.0063  0.0713 -0.2627
 6440OCT     C212880   8.274   3.846  14.062 -0.2101 -0.0079 -0.0232
 6441OCT     C112881  18.777  22.184  12.828  0.0417  0.2025 -0.5134
 6441OCT     C212882  18.779  22.265  12.365  0.0856  0.3440  0.2351
 6442OCT     C112883   0.527  21.963  21.451 -0.5364 -0.2224  0.0398
 6442OCT     C212884   0.970  22.134  21.404  0.1525 -0.1762  0.0927
 6443OCT     C112885  19.023   4.370  23.213  0.2094  0.0925 -0.0207
 6443OCT     C212886  18.826   4.819  23.218  0.2000  0.0295  0.1644
 6444OCT     C112887  15.178  19.945   0.777  0.3156  0.0271 -0.0649
 6444OCT     C212888  15.091  20.393   0.897 -0.0151 -0.0636 -0.0055
 6445OCT     C112889  20.909   5.232  21.792 -0.0276  0.1995 -0.0573
 6445OCT     C212890  21.221   5.593  21.777  0.5393  0.0923 -0.1371
 6446OCT     C112891  19.545   0.284   8.899 -0.1573 -0.2169  0.1159
 6446OCT     C212892  19.507  23.609   8.609  0.0668 -0.1406 -0.3907
 6447OCT     C112893   7.345  10.002   1.378 -0.1612 -0.2022 -0.0644
 6447OCT     C212894   7.013  10.344   1.444 -0.0044  0.4447  0.2202
 6448OCT     C112895   2.095  11.829  18.102  0.0297  0.2416  0.2459
 6448OCT     C212896   2.305  12.179  18.374  0.0785  0.1968 -0.0430
 6449OCT     C112897   7.524   0.487   3.995  0.0198 -0.1083  0.0549
 6449OCT     C212898   7.880   0.321   3.718 -0.2188 -0.2932  0.1195
 6450OCT     C112899  23.527  23.582   7.419 -0.7315  0.0368 -0.1498
 6450OCT     C212900  23.448   0.213   7.691 -0.0700  0.1182  0.3563
 6451OCT     C112901  21.612  12.165  19.544 -0.1975  0.1498 -0.2730
 6451OCT     C212902  21.678  12.523  19.903 -0.3533  0.2676  0.1021
 6452OCT     C112903  22.267  18.749  20.043 -0.0335  0.1009  0.1135
 6452OCT     C212904  22.129  18.919  19.627  0.0089  0.2812 -0.0085
 6453OCT     C112905  11.721  17.116  18.956  0.1544  0.1481 -0.1300
 6453OCT     C212906  11.647  16.712  19.259  0.0771 -0.0148 -0.0476
 6454OCT     C112907   7.913   7.826  13.945  0.1187 -0.1031  0.3615
 6454OCT     C212908   7.811   8.179  14.245  0.1243  0.0087  0.0633
 6455OCT     C112909   4.754   9.307   8.315  0.0772 -0.1080  0.2017
 6455OCT     C212910   4.962   9.067   8.603 -0.4139  0.3449  0.0931
 6456OCT     C112911   8.000  20.746  21.496 -0.0541  0.0483  0.3620
 6456OCT     C212912   8.060  20.318  21.692  0.1829  0.1790  0.1283
 6457OCT     C112913   3.675  21.628   1.308 -0.1212  0.3452 -0.2379
 6457OCT     C212914   3.592  21.676   1.782 -0.1664  0.1823 -0.1466
 6458OCT     C112915  17.476  16.799   5.663 -0.1460  0.4662  0.4584
 6458OCT     C212916  17.609  16.428   5.913 -0.1525  0.2204 -0.0859
 6459OCT     C112917  18.315  10.295  11.072 -0.0187  0.0885  0.0463
 6459OCT     C212918  18.614  10.509  10.790  0.1936  0.1468  0.2736
 6460OCT     C112919   6.272  12.678   6.252  0.2466  0.1428  0.3798
 6460OCT     C212920   6.684  12.855   6.302 -0.1056 -0.3594  0.0047
 6461OCT     C112921   7.032  14.166  10.399 -0.0575 -0.0606  0.1845
 6461OCT     C212922   7.060  14.573  10.170 -0.1349 -0.3143  0.1510
 6462OCT     C112923  11.598  16.444  22.153  0.5638  0.3029  0.1013
 6462OCT     C212924  11.321  16.135  22.278  0.2384  0.1041 -0.1219
 6463OCT     C112925  21.421   9.033   1.612  0.0768  0.0982 -0.4543
 6463OCT     C212926  21.886   9.087   1.776  0.0433  0.0590 -0.3206
 6464OCT     C112927  11.386  18.979   0.212 -0.2427 -0.0415  0.0389
 6464OCT     C212928  11.362  18.570  23.676 -0.2194  0.0853  0.3301
 6465OCT     C112929  11.074   5.915   1.325  0.0179 -0.1133  0.3056
 6465OCT     C212930  11.447   5.725   1.180 -0.0712 -0.3400 -0.0003
 6466OCT     C112931   0.101  22.283  15.295  0.0767  0.2082  0.2485
 6466OCT     C212932  23.688  21.870  15.031 -0.1178 -0.1096  0.1213
 6467OCT     C112933  19.428  18.287   9.364 -0.4728  0.2395  0.0042
 6467OCT     C212934  19.842  18.108   9.291  0.3647 -0.0446  0.3393
 6468OCT     C112935  19.353  14.648   1.784  0.1632 -0.0399  0.3614
 6468OCT     C212936  19.842  14.669   1.774 -0.2834 -0.0994 -0.2943
 6469OCT     C112937   0.937  13.910   8.929  0.3274  0.0665 -0.0751
 6469OCT     C212938   0.683  13.859   8.486 -0.2500  0.5423  0.1182
 6470OCT     C112939  15.115   7.661  14.805  0.1680  0.1778 -0.1796
 6470OCT     C212940  15.456   7.874  14.577  0.0059 -0.0258  0.1992
 6471OCT     C112941  22.213   2.433  20.769  0.1408 -0.0193  0.0845
 6471OCT     C212942  22.462   2.320  21.187  0.3896 -0.0906  0.0393
 6472OCT     C112943  20.125  14.735   5.567 -0.4336  0.0836  0.0889
 6472OCT     C212944  20.327  14.541   5.255 -0.0538  0.2871 -0.2664
 6473OCT     C112945   4.817   6.475  10.600  0.1782 -0.1093 -0.4439
 6473OCT     C212946   4.862   6.639  10.160 -0.0445  0.2189 -0.1671
 6474OCT     C112947  11.350  17.161  12.694  0.3279 -0.4110 -0.4069
 6474OCT     C212948  11.553  16.863  12.406  0.0822 -0.0247 -0.1366
 6475OCT     C112949  23.626   8.434  18.401 -0.3530  0.3699  0.2644
 6475OCT     C212950  23.570   8.059  18.710  0.1034 -0.0022 -0.0090
 6476OCT     C112951  18.649   0.485  23.587 -0.1411 -0.4840 -0.0115
 6476OCT     C212952  18.693   0.798   0.140  0.1439  0.0350 -0.2728
 6477OCT     C112953  17.793   3.066   9.613  0.3284 -0.2845  0.0518
 6477OCT     C212954  17.638   3.119   9.214 -0.0467 -0.1886 -0.2452
 6478OCT     C112955  23.424  18.036   9.035  0.0209 -0.0148  0.1955
 6478OCT     C212956  22.920  18.143   8.973  0.0366 -0.1074 -0.3490
 6479OCT     C112957  23.355  22.197   7.700 -0.1438  0.3137 -0.1656
 6479OCT     C212958  23.171  22.025   7.281 -0.2748  0.1344  0.3447
 6480OCT     C112959  13.620  18.592   7.981  0.0852 -0.0856  0.3305
 6480OCT     C212960  13.933  18.451   8.228 -0.1331  0.2415 -0.0513
 6481OCT     C112961   6.860  22.557  21.315  0.0030 -0.0008 -0.5075
 6481OCT     C212962   6.737  22.562  20.913  0.1533  0.0066  0.2031
 6482OCT     C112963  12.333   8.958  14.926 -0.2925  0.0269  0.1003
 6482OCT     C212964  12.367   8.456  14.860 -0.0077  0.1646  0.2293
 6483OCT     C112965   4.917  12.462  13.669 -0.0027  0.1237  0.0027
 6483OCT     C212966   5.224  12.261  13.988 -0.0660 -0.0221 -0.2289
 6484OCT     C112967   5.966  20.749   4.905  0.0400  0.2733 -0.0297
 6484OCT     C212968   6.335  20.745   4.630 -0.0130  0.0305  0.0467
 6485OCT     C112969  21.893   4.783  23.415 -0.2693 -0.0057  0.0352
 6485OCT     C212970  21.573   4.612  23.135  0.3778  0.1546 -0.2692
 6486OCT     C112971   1.538  16.377   9.872 -0.0542 -0.0282  0.0689
 6486OCT     C212972   1.681  16.862   9.956  0.3724 -0.1997 -0.0064
 6487OCT     C112973   9.415  14.553  22.778 -0.2442 -0.0871 -0.2093
 6487OCT     C212974   9.028  14.349  22.656 -0.0469 -0.2276  0.0063
 6488OCT     C112975   3.105   5.867  20.001 -0.1288 -0.0784 -0.2902
 6488OCT     C212976   3.465   5.917  20.294  0.1192  0.1219  0.1748
 6489OCT     C112977  12.410   9.599  21.511 -0.1858  0.0515 -0.2494
 6489OCT     C212978  12.615   9.222  21.727 -0.0010  0.0894 -0.2917
 6490OCT     C112979   7.240  16.915   4.439 -0.0668 -0.0628 -0.1811
 6490OCT     C212980   7.245  17.083   4.013 -0.0902 -0.3635 -0.1679
 6491OCT     C112981   0.511  17.435  15.245 -0.1872  0.1339  0.3234
 6491OCT     C212982   0.574  16.938  15.180  0.3972 -0.2712 -0.0902
 6492OCT     C112983  13.670   4.850  11.415  0.1413 -0.1115 -0.1513
 6492OCT     C212984  13.432   4.751  11.811 -0.1784 -0.0964 -0.0787
 6493OCT     C112985   0.954   4.798  12.397 -0.0069  0.1061  0.2864
 6493OCT     C212986   0.542   4.960  12.244 -0.2491  0.0160 -0.0407
 6494OCT     C112987  22.073  21.488  14.506 -0.2155 -0.0230  0.0844
 6494OCT     C212988  22.423  21.184  14.385 -0.4006  0.1472 -0.0109
 6495OCT     C112989   3.491   8.207   1.861  0.0833  0.1673 -0.3918
 6495OCT     C212990   3.413   8.611   1.728 -0.2127  0.2801 -0.1867
 6496OCT     C112991  17.195  17.198   5.497  0.4360  0.2458  0.1459
 6496OCT     C212992  17.692  17.267   5.583  0.0732  0.0441 -0.3652
 6497OCT     C112993  16.649  21.155   0.998 -0.0263  0.1386  0.0094
 6497OCT     C212994  16.423  21.434   0.642  0.1252  0.0445 -0.3762
 6498OCT     C112995   9.938  14.273   3.557  0.2562  0.3280  0.0111
 6498OCT     C212996  10.048  13.878   3.484  0.1190 -0.3774 -0.0665
 6499OCT     C112997  17.452   8.876   2.231 -0.1176 -0.3028  0.3147
 6499OCT     C212998  17.045   8.988   2.056  0.0627  0.1066  0.0140
 6500OCT     C112999  16.909  15.657  22.199 -0.0425 -0.1206  0.1043
 6500OCT     C213000  17.124  15.764  22.635  0.0200 -0.3184  0.0191
 6501OCT     C113001  17.458   9.996  23.657 -0.0269 -0.1455  0.1249
 6501OCT     C213002  17.312   9.793  23.255 -0.2268  0.0989 -0.1412
 6502OCT     C113003  19.021  13.367   0.425  0.2514  0.0672 -0.2800
 6502OCT     C213004  19.081  13.523   0.845 -0.0885 -0.3212  0.1680
 6503OCT     C113005  14.665   7.073  21.735  0.0725  0.1804 -0.0663
 6503OCT     C213006  15.035   7.264  21.836 -0.1217  0.0372  0.1163
 6504OCT     C113007  20.743  12.999  13.778  0.1227  0.1617  0.0635
 6504OCT     C213008  20.659  12.558  13.747 -0.1674  0.1760 -0.2482
 6505OCT     C113009  14.840   8.040  14.540 -0.0599 -0.2763 -0.2391
 6505OCT     C213010  14.921   8.397  14.813 -0.1524  0.2690 -0.1743
 6506OCT     C113011   9.887  21.804   8.044 -0.0715 -0.1995  0.2623
 6506OCT     C213012   9.735  22.154   8.297  0.2825 -0.2650 -0.0799
 6507OCT     C113013   5.431   1.704  18.936  0.1545 -0.0200 -0.0849
 6507OCT     C213014   5.816   1.639  18.689  0.0230  0.0448 -0.0675
 6508OCT     C113015  20.264  15.676  20.589  0.2390 -0.1505 -0.1174
 6508OCT     C213016  19.894  15.901  20.833 -0.2567 -0.1875  0.2366
 6509OCT     C113017  18.675  17.021   5.749  0.1119 -0.1758  0.1435
 6509OCT     C213018  18.785  16.789   5.409 -0.1850 -0.0821 -0.0112
 6510OCT     C113019   0.739  21.486  19.538  0.0949  0.1622 -0.5619
 6510OCT     C213020   0.862  21.104  19.268 -0.0953  0.1228 -0.1190
 6511OCT     C113021   3.875  17.639  16.493  0.3964  0.0691  0.0879
 6511OCT     C213022   3.745  17.249  16.205 -0.0770  0.2878  0.3116
 6512OCT     C113023  12.492   0.533   1.440  0.1057 -0.1805  0.1816
 6512OCT     C213024  12.370   0.129   1.274  0.0195 -0.4232  0.3928
 6513OCT     C113025   4.059  17.580  15.550  0.3691  0.2585  0.2890
 6513OCT     C213026   3.653  17.362  15.680  0.0049  0.2670 -0.0790
 6514OCT     C113027  18.452  10.074   1.330  0.0605  0.3861 -0.0839
 6514OCT     C213028  18.850   9.869   1.201  0.1265  0.3574 -0.3429
 6515OCT     C113029   2.323   0.760  13.739  0.2239 -0.0257 -0.5072
 6515OCT     C213030   2.028   1.088  13.837 -0.0458  0.3163 -0.0461
 6516OCT     C113031   4.987  20.679   6.560 -0.0642  0.0314  0.4710
 6516OCT     C213032   4.932  21.128   6.728  0.1979 -0.1428  0.1791
 6517OCT     C113033  10.167  11.701  17.835 -0.0656  0.4873 -0.2698
 6517OCT     C213034  10.408  12.118  17.793 -0.1949  0.0287 -0.0696
 6518OCT     C113035  14.575  17.928  17.012 -0.1185 -0.0558 -0.0893
 6518OCT     C213036  15.006  17.702  16.950  0.3105 -0.0104 -0.0570
 6519OCT     C113037  15.802   4.119  17.724  0.0439 -0.2327 -0.1659
 6519OCT     C213038  16.265   4.049  17.814  0.2110  0.1182 -0.0017
 6520OCT     C113039   6.346   6.551  19.919 -0.0894  0.1597  0.3666
 6520OCT     C213040   6.414   6.126  19.715  0.0528 -0.1799 -0.0896
 6521OCT     C113041   7.154   9.568  15.865  0.4559  0.0056  0.2367
 6521OCT     C213042   6.684   9.665  15.975 -0.2082 -0.0306 -0.2300
 6522OCT     C113043  17.674  11.889   9.399 -0.3012 -0.1020  0.1008
 6522OCT     C213044  17.504  11.865   8.983 -0.2396 -0.1464  0.2414
 6523OCT     C113045  13.389   4.057   4.773  0.0011  0.1393  0.2796
 6523OCT     C213046  13.853   3.914   4.917 -0.0426 -0.0009  0.3395
 6524OCT     C113047   3.679   8.803  18.926 -0.0398  0.0017 -0.1135
 6524OCT     C213048   3.208   8.775  19.052 -0.0034 -0.1586  0.1668
 6525OCT     C113049   1.086   9.945  19.235  0.2364 -0.0370 -0.0083
 6525OCT     C213050   1.086   9.955  18.753  0.1146  0.2322  0.1093
 6526OCT     C113051   1.873   0.349   8.744  0.1921  0.0361  0.7204
 6526OCT     C213052   1.806   0.240   8.311  0.1134  0.0394  0.2927
 6527OCT     C113053  10.525   7.046  16.503 -0.0645  0.0677 -0.1778
 6527OCT     C213054  10.975   6.980  16.746  0.2195 -0.0498 -0.1944
 6528OCT     C113055   2.042   4.307   5.782 -0.0431 -0.3800 -0.2156
 6528OCT     C213056   1.620   4.223   5.958  0.1278 -0.0246 -0.0138
 6529OCT     C113057  15.948  18.961   0.035  0.2460  0.3445 -0.1212
 6529OCT     C213058  16.072  19.346   0.238  0.1074 -0.1392 -0.0280
 6530OCT     C113059  22.974  10.387  10.956  0.0339  0.1974  0.4611
 6530OCT     C213060  23.356  10.212  10.718 -0.3553 -0.7113 -0.0054
 6531OCT     C113061  12.392   4.260   7.370 -0.1660 -0.0393 -0.2382
 6531OCT     C213062  12.801   4.269   7.434  0.1779  0.1557 -0.1445
 6532OCT     C113063  14.114  11.415  13.009  0.2870 -0.0064  0.1157
 6532OCT     C213064  14.185  11.727  12.699 -0.0240  0.3327  0.1539
 6533OCT     C113065   1.757   6.434   2.051  0.5382 -0.3898  0.3604
 6533OCT     C213066   1.805   6.833   1.803 -0.1621  0.2879  0.3539
 6534OCT     C113067   7.548  20.396  15.983  0.0097 -0.2940  0.1573
 6534OCT     C213068   7.520  20.064  16.308 -0.2861 -0.2412  0.0625
 6535OCT     C113069  14.409  22.867  23.217 -0.0197  0.3253  0.1596
 6535OCT     C213070  14.263  22.902  22.819 -0.2199  0.2264 -0.0064
 6536OCT     C113071   8.954  12.296  12.731 -0.3306  0.1787  0.1858
 6536OCT     C213072   8.690  12.356  13.129 -0.0247 -0.0242 -0.3164
 6537OCT     C113073   1.266   8.416  22.600 -0.1121 -0.0215  0.0406
 6537OCT     C213074   1.242   7.940  22.423  0.1250  0.0863 -0.1987
 6538OCT     C113075   6.371   1.766  21.462 -0.0816  0.0767  0.3722
 6538OCT     C213076   6.794   1.596  21.270  0.5215 -0.0965 -0.2720
 6539OCT     C113077   5.695   1.051  16.791  0.0044  0.1222  0.1230
 6539OCT     C213078   5.330   1.209  16.802  0.1559 -0.0251 -0.1890
 6540OCT     C113079  23.007   0.318  16.589 -0.0279 -0.0606 -0.3470
 6540OCT     C213080  22.809   0.778  16.496  0.1295  0.2073 -0.0957
 6541OCT     C113081   8.178  20.067   5.458 -0.2082 -0.1066  0.3014
 6541OCT     C213082   8.394  19.743   5.671 -0.3628  0.1477  0.1614
 6542OCT     C113083  17.802   8.008  14.172  0.2779  0.0841  0.1253
 6542OCT     C213084  17.987   8.327  13.887 -0.1160  0.3086  0.0635
 6543OCT     C113085  11.227  11.159  16.815 -0.0809  0.0353  0.0849
 6543OCT     C213086  11.436  11.523  16.658  0.0166 -0.1605 -0.2620
 6544OCT     C113087   4.748  12.712  22.484  0.2552 -0.2430 -0.4033
 6544OCT     C213088   4.540  12.605  22.128  0.1585 -0.0492 -0.2402
 6545OCT     C113089   7.241  14.738   4.790  0.1899 -0.2543 -0.1474
 6545OCT     C213090   7.304  14.287   4.646 -0.0476  0.2801  0.1089
 6546OCT     C113091   6.328   7.161   8.179  0.1416 -0.3018 -0.0235
 6546OCT     C213092   5.901   7.310   8.263  0.1260  0.1326 -0.2169
 6547OCT     C113093  20.231   1.292   5.030 -0.1170  0.0848 -0.0932
 6547OCT     C213094  20.500   1.659   5.126 -0.3287  0.1425  0.0866
 6548OCT     C113095   3.013  17.546  21.264  0.1195 -0.1639 -0.1805
 6548OCT     C213096   3.021  17.988  21.140 -0.3367  0.0403 -0.0235
 6549OCT     C113097  19.196   6.063  14.265  0.1425  0.1338  0.3146
 6549OCT     C213098  18.817   5.805  14.107 -0.1058  0.1785  0.3319
 6550OCT     C113099  17.014  14.013   7.331  0.3613  0.0780  0.0319
 6550OCT     C213100  17.453  13.961   7.218 -0.0209  0.1544 -0.0079
 6551OCT     C113101  19.143   6.568  19.074 -0.1787  0.1365  0.2533
 6551OCT     C213102  18.886   6.245  19.054  0.2508 -0.1965  0.1590
 6552OCT     C113103  18.299   4.348  12.573  0.0706 -0.0858  0.3986
 6552OCT     C213104  18.575   4.029  12.373  0.5283 -0.1831 -0.0063
 6553OCT     C113105   5.175  10.370   6.843 -0.1632  0.2410 -0.1251
 6553OCT     C213106   5.274   9.941   6.894  0.0656 -0.0238  0.5588
 6554OCT     C113107  20.455   0.511   8.445 -0.0339 -0.2079  0.2053
 6554OCT     C213108  20.819   0.425   8.714 -0.3159 -0.1872  0.6404
 6555OCT     C113109   8.830  22.421   3.680 -0.0328 -0.2206  0.0805
 6555OCT     C213110   8.390  22.582   3.796  0.3017  0.1270  0.1953
 6556OCT     C113111   5.567   5.309   5.823 -0.1875 -0.2726 -0.2464
 6556OCT     C213112   5.654   5.684   5.559 -0.0676  0.3188  0.1766
 6557OCT     C113113  23.624   0.752   2.533  0.1959  0.3069  0.1495
 6557OCT     C213114  23.494   0.479   2.195 -0.3682  0.4649  0.2622
 6558OCT     C113115  19.473  17.466   9.317 -0.0878  0.0557 -0.0486
 6558OCT     C213116  19.041  17.479   9.096  0.0693 -0.2498  0.0963
 6559OCT     C113117   7.876   0.078  12.680  0.0861 -0.1358  0.1730
 6559OCT     C213118   8.341   0.289  12.644  0.0271  0.0099  0.3158
 6560OCT     C113119  19.876  13.448   0.982  0.1743 -0.1123 -0.3334
 6560OCT     C213120  19.582  13.252   0.707 -0.1135 -0.2541 -0.0611
 6561OCT     C113121  14.974  20.041  20.351 -0.0855  0.2901  0.3159
 6561OCT     C213122  14.707  19.924  20.019 -0.1614  0.1764  0.2799
 6562OCT     C113123  14.555   0.927  17.074  0.3484 -0.1713 -0.0657
 6562OCT     C213124  14.975   1.109  16.976 -0.1210 -0.0549  0.1180
 6563OCT     C113125   8.705  10.779  17.617  0.1418  0.1237  0.1503
 6563OCT     C213126   9.006  10.463  17.783 -0.3602 -0.2454 -0.0861
 6564OCT     C113127  19.869  18.598  13.317 -0.0089  0.0292  0.2584
 6564OCT     C213128  19.448  18.826  13.243  0.0465 -0.0852  0.3378
 6565OCT     C113129  13.582  18.701  23.216  0.1347 -0.0964 -0.3580
 6565OCT     C213130  13.199  18.485  23.154  0.2770 -0.1285 -0.2719
 6566OCT     C113131  19.660   5.122   2.837 -0.2144  0.1851  0.2789
 6566OCT     C213132  19.473   5.167   2.408  0.0410 -0.1249 -0.3965
 6567OCT     C113133  19.357   0.323  11.374  0.2260  0.1378 -0.2051
 6567OCT     C213134  19.225   0.022  11.731  0.0362 -0.0974 -0.3595
 6568OCT     C113135   8.105  19.368  21.418  0.2113  0.0909  0.0133
 6568OCT     C213136   7.811  19.153  21.080 -0.0566  0.2208 -0.2741
 6569OCT     C113137  20.337  11.465  17.779 -0.0704 -0.0949 -0.1404
 6569OCT     C213138  20.246  11.011  17.594  0.0872  0.2000  0.0258
 6570OCT     C113139   1.365   5.589   9.797 -0.0772  0.3223  0.0788
 6570OCT     C213140   1.537   5.140   9.856  0.0553 -0.0978  0.2686
 6571OCT     C113141   5.860   8.662   4.042  0.0794 -0.2203 -0.0482
 6571OCT     C213142   6.288   8.899   4.084  0.3329  0.2738  0.0150
 6572OCT     C113143   4.224   6.158  21.523 -0.0478 -0.4440  0.1048
 6572OCT     C213144   4.608   6.080  21.257 -0.1921 -0.0548  0.1722
 6573OCT     C113145  23.687   9.377  21.294 -0.0475  0.2410 -0.3199
 6573OCT     C213146  23.525   8.971  21.147  0.0894  0.0715  0.0025
 6574OCT     C113147   1.204  12.396  13.717 -0.3267 -0.0660 -0.5468
 6574OCT     C213148   0.884  12.059  13.585  0.1715  0.1275  0.3692
 6575OCT     C113149  10.670  14.555  16.837 -0.0387  0.0818  0.4655
 6575OCT     C213150  10.892  14.409  17.245 -0.0778 -0.1053  0.2515
 6576OCT     C113151  15.956   5.532  12.581  0.0970 -0.3390 -0.2799
 6576OCT     C213152  15.484   5.557  12.827  0.0034 -0.1752  0.1110
 6577OCT     C113153  15.970   5.083   7.096  0.0705 -0.0024  0.1312
 6577OCT     C213154  15.828   4.629   7.260 -0.4424 -0.2514 -0.1438
 6578OCT     C113155   5.296  20.922  13.023 -0.1843 -0.0724 -0.2091
 6578OCT     C213156   5.600  20.589  12.960 -0.0973  0.1841  0.0401
 6579OCT     C113157  20.268  18.079  13.834  0.0697  0.5409 -0.0020
 6579OCT     C213158  20.401  17.903  14.209  0.0084  0.0009  0.2476
 6580OCT     C113159  18.674   4.787  15.414  0.2341 -0.2605 -0.0529
 6580OCT     C213160  18.831   4.577  15.001  0.0320 -0.0149  0.4515
 6581OCT     C113161  19.822  20.365  23.606 -0.0598  0.0811  0.1909
 6581OCT     C213162  19.667  19.979   0.030 -0.0111 -0.1567  0.0874
 6582OCT     C113163   2.831  14.254  11.717  0.3849 -0.0508  0.0761
 6582OCT     C213164   2.939  13.820  11.671  0.2069  0.3047  0.1178
 6583OCT     C113165  21.818   6.498  12.606  0.0511  0.0914  0.1601
 6583OCT     C213166  21.627   6.751  12.284  0.0238  0.3433 -0.2020
 6584OCT     C113167  15.690   9.944   6.732  0.1672  0.0239  0.1447
 6584OCT     C213168  15.243  10.015   6.921 -0.5186  0.0401 -0.2969
 6585OCT     C113169   8.731  15.823  17.336 -0.0272  0.2061  0.0979
 6585OCT     C213170   8.476  15.511  17.556 -0.1644  0.2437  0.2272
 6586OCT     C113171   1.822  10.199  21.917  0.1534  0.1079 -0.0914
 6586OCT     C213172   2.116  10.547  21.849  0.0716 -0.2444  0.0706
 6587OCT     C113173   2.830  18.981   3.549  0.0893 -0.2275  0.1232
 6587OCT     C213174   2.998  19.311   3.397 -0.0614 -0.3327  0.0198
 6588OCT     C113175  13.342  18.942  19.067 -0.2749 -0.3830 -0.1871
 6588OCT     C213176  13.170  19.397  19.095 -0.0658 -0.1759  0.2117
 6589OCT     C113177   6.328  15.276  21.211  0.4072 -0.2111 -0.0231
 6589OCT     C213178   6.326  15.530  20.887 -0.0052  0.1873  0.0580
 6590OCT     C113179  15.958  14.040  23.508  0.0671  0.1039  0.1738
 6590OCT     C213180  15.681  13.695  23.458 -0.2712 -0.3903  0.0178
 6591OCT     C113181  22.287  10.924   8.571 -0.1799 -0.1596  0.4091
 6591OCT     C213182  22.578  10.710   8.866  0.1999 -0.2721 -0.1029
 6592OCT     C113183  19.424  20.344  10.025  0.0706  0.3272 -0.0929
 6592OCT     C213184  19.410  20.056  10.422  0.2165  0.2035  0.1145
 6593OCT     C113185  12.957   5.130  12.564  0.3243 -0.0590  0.2018
 6593OCT     C213186  12.661   4.953  12.176  0.0712 -0.2767  0.1678
 6594OCT     C113187   1.733   0.671   7.922  0.1374  0.0981 -0.1529
 6594OCT     C213188   1.516   0.828   7.475 -0.1938  0.2088  0.0347
 6595OCT     C113189  10.045   5.860  16.703 -0.0840 -0.0443 -0.1034
 6595OCT     C213190   9.813   5.891  16.339  0.0752 -0.2044 -0.0161
 6596OCT     C113191   7.802   4.597   8.209  0.0506 -0.0245 -0.2154
 6596OCT     C213192   7.908   5.033   8.167  0.1652  0.0780 -0.0394
 6597OCT     C113193   9.320  14.822   0.808  0.0576 -0.1357 -0.2242
 6597OCT     C213194   8.983  14.544   0.627  0.0322 -0.0227  0.3219
 6598OCT     C113195  13.237  23.229  15.870 -0.1739 -0.1409 -0.0199
 6598OCT     C213196  13.366  22.929  15.535  0.0205  0.1991 -0.1372
 6599OCT     C113197  18.655  14.431   8.621 -0.2909 -0.2759 -0.1488
 6599OCT     C213198  18.166  14.333   8.734 -0.1164 -0.2990  0.0707
 6600OCT     C113199  21.441  23.237  13.557 -0.0574  0.0544 -0.1244
 6600OCT     C213200  21.473  23.667  13.306 -0.3514  0.0387  0.0534
 6601OCT     C113201  21.771  11.561   1.312  0.1013  0.1586  0.2039
 6601OCT     C213202  21.612  11.991   1.239 -0.2483 -0.0212  0.0440
 6602OCT     C113203  17.709  16.011  21.638  0.1740  0.1732 -0.6039
 6602OCT     C213204  17.496  16.066  21.193 -0.3998  0.0766 -0.1525
 6603OCT     C113205   0.976  23.357  17.158 -0.1123 -0.1004 -0.2505
 6603OCT     C213206   0.931  23.066  17.581 -0.1043 -0.3262 -0.1080
 6604OCT     C113207   9.624  20.948  20.623 -0.3686  0.0693  0.4418
 6604OCT     C213208   9.638  20.539  20.835 -0.0761  0.0463 -0.0446
 6605OCT     C113209  16.554  22.538   2.319  0.1490 -0.0060 -0.1100
 6605OCT     C213210  16.674  22.256   1.980  0.0930  0.0515  0.3910
 6606OCT     C113211   8.955  14.356  16.548  0.0143  0.3727  0.2369
 6606OCT     C213212   9.289  14.651  16.694  0.0525 -0.0548 -0.1938
 6607OCT     C113213  21.455  11.893  11.395  0.4364 -0.0539 -0.1188
 6607OCT     C213214  21.392  12.307  11.567 -0.1122  0.0335 -0.4473
 6608OCT     C113215  11.216  14.679   1.454  0.0515  0.1356 -0.3720
 6608OCT     C213216  11.671  14.837   1.435  0.1616 -0.0173 -0.2009
 6609OCT     C113217  18.735  15.923  14.068 -0.1815 -0.3439 -0.1442
 6609OCT     C213218  18.332  15.932  14.421  0.3171  0.1020  0.1267
 6610OCT     C113219  21.933  18.078   2.619 -0.2191 -0.1187 -0.2232
 6610OCT     C213220  21.824  17.765   2.965 -0.0743 -0.1477  0.2685
 6611OCT     C113221  21.192   2.861   4.415  0.1788 -0.0122  0.1044
 6611OCT     C213222  21.029   2.877   4.842  0.1061  0.2859  0.0962
 6612OCT     C113223   4.011  18.141  22.857  0.1998 -0.1336  0.0085
 6612OCT     C213224   4.079  18.378  23.235  0.0359  0.1240  0.2232
 6613OCT     C113225   6.540   8.742   7.760 -0.1338 -0.4098 -0.0793
 6613OCT     C213226   6.743   8.333   7.584  0.0988  0.3520 -0.3878
 6614OCT     C113227  19.525   4.407   8.593 -0.2505 -0.1832  0.0369
 6614OCT     C213228  19.969   4.424   8.478  0.0846 -0.0316  0.2828
 6615OCT     C113229  21.041   5.625  15.391  0.0629  0.1302 -0.0481
 6615OCT     C213230  21.006   5.792  14.985  0.0966  0.0975  0.2263
 6616OCT     C113231  23.630   2.020   9.863  0.2929  0.1965 -0.3212
 6616OCT     C213232  23.500   2.415   9.617 -0.1194  0.0003  0.3007
 6617OCT     C113233  17.163   3.638   1.904 -0.1528  0.0047 -0.2598
 6617OCT     C213234  17.295   3.202   1.992 -0.1569 -0.1647 -0.0910
 6618OCT     C113235   8.236  15.920   0.032  0.0772 -0.1514  0.1975
 6618OCT     C213236   8.237  15.711   0.390 -0.2262 -0.1793  0.0285
 6619OCT     C113237  18.777  21.085   6.169  0.1204 -0.0295 -0.2858
 6619OCT     C213238  19.025  21.177   6.589 -0.0684 -0.3816 -0.2494
 6620OCT     C113239   7.892  19.333  16.095 -0.1376 -0.0606 -0.0007
 6620OCT     C213240   7.926  18.981  15.779 -0.0310  0.0184  0.1015
 6621OCT     C113241   5.141   0.425   4.028 -0.1881 -0.1042  0.1934
 6621OCT     C213242   5.492   0.549   4.343 -0.5481  0.1520  0.0093
 6622OCT     C113243   9.744  10.651  13.652  0.0044  0.0502 -0.0602
 6622OCT     C213244   9.808  10.680  14.120  0.1466 -0.2399  0.0304
 6623OCT     C113245   4.403  23.113  18.061 -0.1103 -0.2913  0.0516
 6623OCT     C213246   4.317  23.115  17.623 -0.0151  0.6088  0.1068
 6624OCT     C113247  13.096  17.066  10.274  0.2354 -0.1971 -0.1064
 6624OCT     C213248  12.925  17.524  10.270 -0.1598 -0.2705  0.0053
 6625OCT     C113249  11.871  17.788   7.536  0.0275  0.0329 -0.0626
 6625OCT     C213250  12.207  17.796   7.822  0.0557  0.2735  0.3613
 6626OCT     C113251  12.394   8.229   9.775  0.2021 -0.1777 -0.4554
 6626OCT     C213252  12.636   8.626   9.691  0.3127 -0.3181  0.0402
 6627OCT     C113253   3.262   7.436  21.210  0.2037  0.4978 -0.1932
 6627OCT     C213254   3.680   7.535  20.898  0.1018 -0.1103 -0.0418
 6628OCT     C113255  19.184   2.424   7.647 -0.0564 -0.1199  0.1653
 6628OCT     C213256  19.582   2.571   7.898 -0.0315  0.0820  0.2635
 6629OCT     C113257  16.218  14.044  13.441  0.0697 -0.1016 -0.0110
 6629OCT     C213258  16.134  14.355  13.112 -0.2048  0.1234  0.2105
 6630OCT     C113259   0.637  12.171  17.344 -0.1080 -0.0049  0.2530
 6630OCT     C213260   0.244  12.420  17.234 -0.0781  0.1904  0.2645
 6631OCT     C113261   8.514   4.448  21.720  0.2027  0.1009  0.0223
 6631OCT     C213262   8.448   4.808  21.350 -0.2926  0.3881  0.3058
 6632OCT     C113263  23.099   3.720  21.100 -0.1724 -0.0456 -0.4637
 6632OCT     C213264  22.949   4.145  21.142 -0.1895 -0.4012  0.2280
 6633OCT     C113265   8.156  12.477   1.382  0.0242 -0.2764 -0.3165
 6633OCT     C213266   7.983  12.408   1.835  0.0520 -0.3590 -0.0262
 6634OCT     C113267  20.919   9.109  17.513 -0.0915 -0.0062  0.1417
 6634OCT     C213268  20.446   8.966  17.511 -0.1916 -0.1286  0.1434
 6635OCT     C113269   3.985   7.440   9.541 -0.3740  0.0356  0.0435
 6635OCT     C213270   3.784   7.046   9.650  0.0541 -0.3788  0.3065
 6636OCT     C113271  10.459   6.524   7.543  0.0654 -0.0029  0.1769
 6636OCT     C213272  10.845   6.370   7.661 -0.3146  0.1110  0.0281
 6637OCT     C113273  20.905  21.277   4.905  0.2608 -0.1450 -0.1579
 6637OCT     C213274  20.993  21.500   5.300 -0.1842  0.3473  0.1759
 6638OCT     C113275   8.500  14.017  16.584  0.0339  0.2426  0.0472
 6638OCT     C213276   8.315  13.641  16.402  0.0750  0.2516  0.2279
 6639OCT     C113277  15.419  10.605   4.070  0.0968  0.2792  0.2655
 6639OCT     C213278  15.839  10.778   3.982  0.2813  0.1157  0.0050
 6640OCT     C113279  12.297  17.121  18.459 -0.1023  0.0824  0.2372
 6640OCT     C213280  12.677  16.933  18.669 -0.1715 -0.1965 -0.3259
 6641OCT     C113281  22.506   4.468  16.910  0.3865  0.0457  0.0110
 6641OCT     C213282  22.672   4.522  16.462  0.5673  0.2833 -0.3586
 6642OCT     C113283   6.876   1.473  18.937  0.1776 -0.0258 -0.2292
 6642OCT     C213284   6.581   1.749  18.758  0.1360 -0.1843  0.0956
 6643OCT     C113285  18.451  16.979  20.865  0.0751  0.4318 -0.1552
 6643OCT     C213286  18.142  17.091  21.158  0.0290 -0.2954 -0.1959
 6644OCT     C113287   4.615   4.506  14.007 -0.4229  0.1881  0.0797
 6644OCT     C213288   5.004   4.621  13.868 -0.0860 -0.0442  0.1677
 6645OCT     C113289   9.935  23.065   3.061 -0.1676 -0.1171 -0.1501
 6645OCT     C213290  10.068  23.337   3.423 -0.0763 -0.0760 -0.1701
 6646OCT     C113291  20.760  10.676  16.026  0.1328  0.2094  0.0823
 6646OCT     C213292  21.095  10.453  16.319  0.1559  0.1177 -0.3218
 6647OCT     C113293  16.967  13.970  12.390 -0.0041 -0.1752 -0.0397
 6647OCT     C213294  16.654  13.949  12.024 -0.1194  0.3318  0.5077
 6648OCT     C113295   5.859   6.674  11.056 -0.2360 -0.3284  0.2426
 6648OCT     C213296   6.081   6.327  10.787 -0.1851 -0.1176 -0.8002
 6649OCT     C113297  21.605  15.691   1.835  0.0558  0.2295  0.0668
 6649OCT     C213298  21.308  15.488   2.136  0.2995 -0.1124 -0.1739
 6650OCT     C113299   4.862   5.947   6.694 -0.1147  0.0345 -0.2015
 6650OCT     C213300   4.554   6.198   6.474  0.2370  0.1384  0.3333
 6651OCT     C113301  10.159  20.437   5.287  0.1437 -0.0863  0.0902
 6651OCT     C213302  10.508  20.522   5.057 -0.2995  0.0153  0.2983
 6652OCT     C113303   3.823   1.867  12.694 -0.2596 -0.1638  0.4648
 6652OCT     C213304   4.029   1.652  12.352  0.3919  0.1293  0.2259
 6653OCT     C113305   0.942   2.575   0.387 -0.0606  0.0376 -0.0053
 6653OCT     C213306   1.201   2.215   0.600  0.1387 -0.0472  0.2044
 6654OCT     C113307   1.603  15.852  11.738  0.2126  0.1281  0.3911
 6654OCT     C213308   1.193  15.751  11.933 -0.0721  0.2721 -0.0984
 6655OCT     C113309  11.672  20.796   8.446 -0.1081  0.3745 -0.0583
 6655OCT     C213310  11.752  21.266   8.496 -0.4097 -0.0443 -0.1208
 6656OCT     C113311  21.369   2.527  20.295 -0.2092 -0.1081 -0.0071
 6656OCT     C213312  21.204   2.290  20.674 -0.3032 -0.1469 -0.1596
 6657OCT     C113313   3.809  10.346   1.143  0.1029  0.0201  0.0394
 6657OCT     C213314   4.190  10.580   1.229 -0.0531  0.3317 -0.0674
 6658OCT     C113315   2.653   9.076  14.064  0.1304  0.0651 -0.0029
 6658OCT     C213316   2.228   9.245  14.086  0.0463 -0.0503  0.0518
 6659OCT     C113317  10.500  12.558  10.633 -0.2122 -0.3330 -0.3760
 6659OCT     C213318  10.421  12.606  11.102 -0.1526 -0.0797  0.0513
 6660OCT     C113319   7.876  22.331  21.074  0.2439  0.0008  0.3512
 6660OCT     C213320   8.228  22.341  20.761 -0.1247 -0.0742 -0.1783
 6661OCT     C113321   2.685  20.049  19.340  0.2859 -0.0078  0.1722
 6661OCT     C213322   2.286  19.762  19.505 -0.2082  0.1687  0.0061
 6662OCT     C113323  19.901   8.257  10.863  0.2012  0.0050 -0.1513
 6662OCT     C213324  19.790   8.699  10.892 -0.3730 -0.1059  0.3284
 6663OCT     C113325  15.908  12.972  18.683  0.1229  0.1642 -0.2662
 6663OCT     C213326  15.723  12.668  18.472 -0.0310  0.0260  0.1202
 6664OCT     C113327   1.298  18.118  15.253 -0.2009  0.0033  0.3544
 6664OCT     C213328   1.534  18.453  15.466 -0.2297  0.3527  0.3379
 6665OCT     C113329   6.094  21.626   4.826  0.3932 -0.1067 -0.0884
 6665OCT     C213330   5.968  21.538   5.228  0.0016 -0.2579 -0.3237
 6666OCT     C113331  15.676   5.812   7.578 -0.1174  0.0552  0.1786
 6666OCT     C213332  15.710   5.357   7.701 -0.0557  0.2630 -0.0973
 6667OCT     C113333  20.226   3.133   5.715 -0.1620  0.3445  0.6257
 6667OCT     C213334  20.709   3.110   5.643 -0.3853 -0.0391 -0.2638
 6668OCT     C113335  13.457  16.755   7.034  0.1901 -0.0897  0.0613
 6668OCT     C213336  13.024  16.942   7.103 -0.0297  0.1264  0.1443
 6669OCT     C113337  19.973   0.209  20.059 -0.1638  0.0127  0.0916
 6669OCT     C213338  19.851  23.567  20.326 -0.0233 -0.1098  0.3402
 6670OCT     C113339   1.394  10.658  12.073  0.1487  0.1146  0.1861
 6670OCT     C213340   1.507  10.241  11.984  0.5200  0.4078 -0.2976
 6671OCT     C113341   5.419  23.078  21.627  0.1719 -0.3131  0.0839
 6671OCT     C213342   5.718  22.986  21.928  0.1886  0.1299  0.0240
 6672OCT     C113343  15.215  11.567  23.595  0.5082  0.0251 -0.3307
 6672OCT     C213344  14.862  11.269  23.721 -0.1021  0.1248 -0.1395
 6673OCT     C113345  16.097   7.809   1.277 -0.1944  0.2972  0.2251
 6673OCT     C213346  15.866   7.537   0.957 -0.1832 -0.1418  0.0289
 6674OCT     C113347  10.328  22.578  22.309  0.0966 -0.0010 -0.0392
 6674OCT     C213348  10.117  22.849  22.599 -0.0040 -0.0510  0.2910
 6675OCT     C113349  17.714  20.660   8.466 -0.2336 -0.1308 -0.1354
 6675OCT     C213350  17.604  21.020   8.763  0.0267  0.4134 -0.1957
 6676OCT     C113351  23.605  15.651  19.671  0.2190 -0.1074  0.2392
 6676OCT     C213352  23.319  15.410  19.974  0.0223  0.0580 -0.4803
 6677OCT     C113353  19.190   2.195  20.698 -0.0233  0.0307  0.1500
 6677OCT     C213354  18.800   2.186  20.965 -0.4169  0.2783 -0.2958
 6678OCT     C113355   7.767   5.525  15.338 -0.5915  0.1844 -0.1046
 6678OCT     C213356   7.343   5.461  15.440  0.1159  0.1250  0.1883
 6679OCT     C113357   1.167   7.010   1.312  0.0392 -0.2025 -0.0188
 6679OCT     C213358   1.313   6.635   1.549 -0.1791  0.2147 -0.1972
 6680OCT     C113359  10.903  14.110   4.281  0.0371  0.0266 -0.1379
 6680OCT     C213360  10.738  13.715   4.515  0.1299 -0.2837 -0.0616
 6681OCT     C113361   4.401  10.722  16.798  0.2012  0.2033  0.0658
 6681OCT     C213362   4.067  11.009  16.944 -0.1065 -0.0361  0.0536
 6682OCT     C113363   2.597   8.050   8.740 -0.3495  0.1013  0.0304
 6682OCT     C213364   3.093   8.009   8.738 -0.1061  0.6202  0.0523
 6683OCT     C113365  15.180   6.905  17.493  0.1347 -0.1687 -0.0274
 6683OCT     C213366  15.314   6.757  17.096 -0.2653 -0.5130  0.0273
 6684OCT     C113367   6.604  13.792  17.003 -0.0660 -0.2048 -0.1585
 6684OCT     C213368   6.689  13.333  17.120 -0.0679  0.2894  0.3866
 6685OCT     C113369   6.812  14.381   8.800  0.3100 -0.3094  0.1541
 6685OCT     C213370   6.369  14.597   8.819  0.0747 -0.0951  0.2684
 6686OCT     C113371  13.478   8.626  23.638 -0.1168 -0.2737 -0.0669
 6686OCT     C213372  13.602   8.357  23.291  0.1660 -0.0684  0.1755
 6687OCT     C113373  16.442   4.350   3.736  0.3646  0.1754 -0.0538
 6687OCT     C213374  16.381   4.366   4.153  0.1679 -0.0462  0.0663
 6688OCT     C113375   7.375   3.116  16.161 -0.1955  0.0740  0.0028
 6688OCT     C213376   7.439   3.178  16.595 -0.0656 -0.1408  0.1247
 6689OCT     C113377  23.685  11.261   1.502 -0.1528  0.1576 -0.0260
 6689OCT     C213378  23.260  11.362   1.598  0.0522  0.0174 -0.3181
 6690OCT     C113379  20.713  15.208  14.013 -0.2099 -0.0408 -0.2600
 6690OCT     C213380  20.925  15.246  13.594  0.1291  0.2077  0.0393
 6691OCT     C113381   4.364   1.402   9.293  0.1816  0.1772  0.3870
 6691OCT     C213382   4.434   1.799   9.559 -0.0317 -0.0744  0.1661
 6692OCT     C113383   5.986  15.462  11.230  0.1344  0.1838  0.4349
 6692OCT     C213384   6.035  15.794  11.513 -0.1440  0.0416  0.1412
 6693OCT     C113385  11.319   8.102  10.035 -0.0041  0.0652 -0.2064
 6693OCT     C213386  11.504   8.255  10.411 -0.0447  0.0705 -0.2034
 6694OCT     C113387  13.661   7.065  10.019 -0.2202  0.1259 -0.0809
 6694OCT     C213388  13.799   7.448   9.699  0.0920  0.2581  0.2590
 6695OCT     C113389  12.957   8.240  12.201 -0.1550 -0.0690  0.2164
 6695OCT     C213390  12.995   8.653  11.906 -0.0004 -0.1258 -0.3472
 6696OCT     C113391  15.302   8.676  23.294  0.1621  0.1139 -0.1242
 6696OCT     C213392  15.106   8.945  23.615  0.0836 -0.1175 -0.4412
 6697OCT     C113393  20.270   9.893   8.853  0.0240  0.0820  0.2019
 6697OCT     C213394  20.365  10.228   9.151 -0.0534 -0.5565  0.1454
 6698OCT     C113395   6.134  23.204  15.444 -0.1084 -0.0430  0.1259
 6698OCT     C213396   5.786  23.433  15.613 -0.2801 -0.3165 -0.0312
 6699OCT     C113397  10.668  21.731   6.212 -0.0910 -0.0849 -0.1279
 6699OCT     C213398  10.814  22.121   6.498  0.2145 -0.1888 -0.1817
 6700OCT     C113399  19.090   8.468  15.262 -0.1566  0.2602 -0.1967
 6700OCT     C213400  18.935   8.128  15.512 -0.0595 -0.1309  0.2686
 6701OCT     C113401   5.082  20.175  15.215  0.1643 -0.1108  0.2567
 6701OCT     C213402   4.666  20.326  15.071 -0.2595 -0.2661 -0.1297
 6702OCT     C113403   3.502  19.066   4.280  0.0402 -0.0665  0.0765
 6702OCT     C213404   3.290  18.663   4.317 -0.4329 -0.2059 -0.0452
 6703OCT     C113405  11.555   8.830  13.288  0.1580  0.2230 -0.1958
 6703OCT     C213406  11.644   8.991  13.698  0.0963  0.2816  0.2719
 6704OCT     C113407  15.051  15.070  13.796  0.0655  0.1709  0.0179
 6704OCT     C213408  14.576  14.976  13.652  0.2498  0.1275 -0.4681
 6705OCT     C113409  13.376  20.538   6.599 -0.1063  0.0182 -0.1275
 6705OCT     C213410  13.665  20.559   6.937  0.1738 -0.0628 -0.1770
 6706OCT     C113411   4.146   2.589  13.355 -0.2841  0.0340  0.1221
 6706OCT     C213412   4.366   2.327  13.636  0.0763  0.2679 -0.0373
 6707OCT     C113413   0.943   9.865  21.869  0.0307  0.0359 -0.0494
 6707OCT     C213414   1.302   9.538  21.888 -0.2211 -0.1619 -0.0244
 6708OCT     C113415   5.878   2.647  10.220 -0.0155 -0.0948  0.1191
 6708OCT     C213416   5.798   2.211  10.209 -0.1816  0.2676  0.1890
 6709OCT     C113417   6.008   2.479   5.647 -0.0412  0.2766  0.0341
 6709OCT     C213418   6.229   2.823   5.844 -0.0685  0.1160  0.2575
 6710OCT     C113419  14.655   8.128  23.335 -0.2706 -0.3800  0.1173
 6710OCT     C213420  14.359   8.100  23.732  0.0191  0.1914 -0.0416
 6711OCT     C113421  20.321   1.922   9.572 -0.5485  0.0488 -0.4770
 6711OCT     C213422  20.180   1.810   9.188 -0.0118 -0.1156  0.2191
 6712OCT     C113423  14.150  12.166  17.468  0.0538  0.0563 -0.3773
 6712OCT     C213424  14.300  12.250  17.912  0.3969  0.0136  0.1154
 6713OCT     C113425  22.804   8.034  10.621  0.0389 -0.3788  0.1177
 6713OCT     C213426  23.234   8.006  10.292  0.2742  0.0715 -0.3473
 6714OCT     C113427  21.467   3.583  11.795  0.2954 -0.1831 -0.0061
 6714OCT     C213428  20.954   3.451  11.788  0.0499  0.0879  0.0184
 6715OCT     C113429  11.577  12.823  19.880 -0.0034 -0.0049  0.0761
 6715OCT     C213430  11.635  12.593  20.258  0.0733 -0.2941  0.1910
 6716OCT     C113431  19.767   4.045  14.286 -0.1539  0.1525  0.1213
 6716OCT     C213432  19.421   4.142  14.589 -0.2164  0.0380 -0.5205
 6717OCT     C113433   0.508  17.945  11.372  0.1572 -0.2014  0.2172
 6717OCT     C213434   0.250  17.801  11.725  0.0658  0.1956 -0.1261
 6718OCT     C113435  15.018  14.911  14.511  0.2299 -0.0940 -0.0591
 6718OCT     C213436  15.195  15.227  14.792  0.1357 -0.0178  0.3910
 6719OCT     C113437  10.174   9.008   4.030  0.1510 -0.2157 -0.0647
 6719OCT     C213438   9.721   8.790   3.957  0.2964 -0.0232 -0.4807
 6720OCT     C113439   3.145  15.441   3.071 -0.5941 -0.0218  0.1407
 6720OCT     C213440   3.582  15.623   3.266  0.4196  0.0002  0.0354
 6721OCT     C113441   2.412   4.895   5.494 -0.1588 -0.1572  0.3611
 6721OCT     C213442   2.809   4.744   5.330  0.3310 -0.0125  0.1865
 6722OCT     C113443  12.278   4.472  10.776  0.0141  0.1991 -0.1750
 6722OCT     C213444  12.249   3.955  10.686 -0.3915 -0.5355  0.2737
 6723OCT     C113445   5.353   5.667   8.085 -0.3375  0.5490 -0.1492
 6723OCT     C213446   5.701   5.949   7.929 -0.4122  0.3210  0.4195
 6724OCT     C113447  13.229  12.136  13.610  0.0899 -0.1735  0.1740
 6724OCT     C213448  13.558  11.805  13.649  0.0654  0.4797 -0.1384
 6725OCT     C113449  16.758  15.590  18.498 -0.0242  0.3687  0.2711
 6725OCT     C213450  16.528  15.805  18.170 -0.0547  0.0407  0.1668
 6726OCT     C113451  21.395  18.404   0.353  0.0490  0.0942 -0.4822
 6726OCT     C213452  21.748  18.471   0.050  0.2965  0.0682 -0.3110
 6727OCT     C113453   4.466  11.739   9.661  0.0089  0.0825  0.3276
 6727OCT     C213454   4.935  11.708   9.524  0.0927 -0.2148  0.0610
 6728OCT     C113455  13.335   5.552  10.692  0.0854  0.2859 -0.1630
 6728OCT     C213456  13.018   5.628  10.367 -0.2378  0.1268  0.2879
 6729OCT     C113457  16.569  13.358   2.944 -0.0195  0.1555  0.1212
 6729OCT     C213458  16.309  13.163   3.261  0.0009 -0.0270  0.3792
 6730OCT     C113459  19.563  22.371  14.224  0.0588 -0.1327  0.2556
 6730OCT     C213460  19.368  21.959  14.472 -0.2829 -0.0797 -0.0217
 6731OCT     C113461  21.014  20.885  23.691 -0.1504 -0.3760  0.0241
 6731OCT     C213462  20.635  20.767   0.164 -0.0024  0.2779  0.3450
 6732OCT     C113463   0.231   7.345   2.291  0.3074  0.2001  0.1845
 6732OCT     C213464   0.150   6.906   2.483  0.1622 -0.1982  0.2163
 6733OCT     C113465   0.452  10.033  21.731 -0.1606 -0.3847  0.2747
 6733OCT     C213466   0.039   9.725  21.734 -0.2078 -0.1443  0.2737
 6734OCT     C113467  18.318  18.535   3.049 -0.3211 -0.2306 -0.0320
 6734OCT     C213468  18.733  18.425   2.891  0.0798  0.1046 -0.1067
 6735OCT     C113469  12.816  12.402  10.405  0.2056 -0.0342  0.3193
 6735OCT     C213470  12.630  12.514   9.980 -0.2120  0.1675 -0.0376
 6736OCT     C113471  13.621  10.294  11.835  0.4101 -0.3276 -0.2047
 6736OCT     C213472  13.543  10.120  12.273 -0.0455  0.0576  0.1763
 6737OCT     C113473  22.172   2.715   1.971 -0.1683 -0.3618 -0.1387
 6737OCT     C213474  21.947   2.365   2.131 -0.0355  0.0514 -0.0775
 6738OCT     C113475   2.586  11.131  20.143 -0.1003  0.2263  0.5920
 6738OCT     C213476   3.003  11.378  20.018  0.3601 -0.1757 -0.0935
 6739OCT     C113477   6.707   4.451  16.548  0.0523  0.1862  0.0838
 6739OCT     C213478   6.376   4.551  16.222 -0.2503  0.1670 -0.1851
 6740OCT     C113479  11.707  15.418  12.726  0.1107  0.0936  0.0159
 6740OCT     C213480  12.031  15.426  12.419 -0.2148 -0.0666 -0.1857
 6741OCT     C113481  19.975   6.566  10.294 -0.0962  0.3928 -0.4137
 6741OCT     C213482  19.899   6.140  10.273 -0.1161 -0.1694 -0.1456
 6742OCT     C113483   9.664  15.671   5.458  0.1737 -0.0692 -0.0444
 6742OCT     C213484   9.228  15.825   5.357 -0.0228  0.2473 -0.1960
 6743OCT     C113485  18.774   0.322  19.643  0.1206  0.1956 -0.0875
 6743OCT     C213486  19.129   0.306  19.986  0.3831 -0.3678 -0.0600
 6744OCT     C113487   2.930   4.743   0.628 -0.4617  0.1236  0.1241
 6744OCT     C213488   3.227   4.477   0.803  0.5813  0.0416  0.0226
 6745OCT     C113489  13.110  19.889  23.390  0.4185 -0.1257  0.2258
 6745OCT     C213490  13.308  19.412  23.385 -0.2797  0.0162 -0.1431
 6746OCT     C113491  19.694  21.651  10.588  0.0033  0.2693 -0.4380
 6746OCT     C213492  19.584  21.879  10.995  0.0364 -0.1437 -0.0752
 6747OCT     C113493   8.098  23.547   1.166  0.3001 -0.0397  0.0272
 6747OCT     C213494   7.638  23.640   1.224  0.1754  0.2325  0.0377
 6748OCT     C113495   1.115  23.376  12.126  0.2067  0.2922 -0.1432
 6748OCT     C213496   1.433  23.202  11.817  0.0626  0.1869 -0.4940
 6749OCT     C113497  15.167  20.295  16.924  0.2203  0.1474  0.0153
 6749OCT     C213498  15.566  20.512  16.731 -0.3537  0.3644  0.0263
 6750OCT     C113499   6.628   3.780  23.235 -0.0573  0.0389  0.0814
 6750OCT     C213500   6.156   3.977  23.198  0.0911 -0.1906  0.0456
 6751OCT     C113501  13.297  23.079  18.523  0.4033  0.1673 -0.2932
 6751OCT     C213502  12.961  22.890  18.770 -0.2944  0.0731 -0.2201
 6752OCT     C113503   4.389  21.122  15.541 -0.0368  0.1591  0.2022
 6752OCT     C213504   4.245  21.226  15.985 -0.1535  0.0464 -0.1230
 6753OCT     C113505  15.255  18.781  18.585 -0.0387  0.0180  0.1190
 6753OCT     C213506  15.306  18.819  19.087  0.2702 -0.1114 -0.0774
 6754OCT     C113507  15.812   4.603   0.376 -0.1624  0.1831  0.3092
 6754OCT     C213508  15.745   4.178   0.272  0.0358  0.1310 -0.1202
 6755OCT     C113509  19.850  10.906  15.104  0.2379 -0.0915  0.0340
 6755OCT     C213510  20.265  10.798  15.324 -0.2636 -0.0008 -0.1910
 6756OCT     C113511  12.230  10.345  13.039  0.0153 -0.0717 -0.4399
 6756OCT     C213512  12.466   9.925  13.166 -0.4411  0.0413  0.0878
 6757OCT     C113513  12.067  10.388   2.396 -0.1465 -0.1872  0.2394
 6757OCT     C213514  12.060  10.645   2.021 -0.1492  0.3065 -0.0279
 6758OCT     C113515  22.624  22.967  16.308  0.1230  0.1159 -0.4172
 6758OCT     C213516  22.624  23.299  16.655 -0.1832  0.1804 -0.2299
 6759OCT     C113517  20.868  19.407  17.283  0.1534 -0.0682  0.0435
 6759OCT     C213518  20.997  19.452  16.866  0.1605  0.3318  0.2918
 6760OCT     C113519   0.319   5.736  12.970 -0.1104 -0.0168 -0.4605
 6760OCT     C213520   0.727   5.635  13.241 -0.1209 -0.1775  0.2999
 6761OCT     C113521  11.340  20.650   9.239  0.1032 -0.5198 -0.1960
 6761OCT     C213522  11.546  21.039   9.417  0.0252  0.0904  0.1759
 6762OCT     C113523  17.271   1.650  15.582  0.1633  0.1294  0.1871
 6762OCT     C213524  17.551   1.229  15.505  0.2519 -0.3401  0.1432
 6763OCT     C113525   9.727  11.009  21.585 -0.1596 -0.3163  0.1355
 6763OCT     C213526   9.332  11.170  21.310  0.3124 -0.1854  0.5638
 6764OCT     C113527  18.557  14.542  10.588 -0.1527  0.0566 -0.1030
 6764OCT     C213528  18.306  14.737  10.986  0.3357 -0.5890  0.4258
 6765OCT     C113529  12.326   9.426   5.150  0.3716 -0.0771 -0.0083
 6765OCT     C213530  12.404   9.267   4.721 -0.0517  0.1159  0.2431
 6766OCT     C113531   7.541  18.695  12.864 -0.0095 -0.3083 -0.2893
 6766OCT     C213532   7.922  18.736  13.120  0.3595  0.1338 -0.0919
 6767OCT     C113533  10.098   6.971  17.321  0.0376  0.2194 -0.0652
 6767OCT     C213534  10.489   7.002  17.554 -0.0290 -0.2030  0.0407
 6768OCT     C113535   6.693   7.295  10.619 -0.0764 -0.0042  0.3913
 6768OCT     C213536   6.327   7.088  10.671 -0.1952 -0.2640  0.2466
 6769OCT     C113537  19.652   2.862   2.877  0.3368 -0.2205 -0.1496
 6769OCT     C213538  19.536   2.432   2.779 -0.1653 -0.2137  0.1482
 6770OCT     C113539   8.394  19.874  10.640  0.1210  0.1513 -0.0570
 6770OCT     C213540   8.220  19.901  10.221  0.0920 -0.0820  0.1072
 6771OCT     C113541   6.079   9.939  17.115 -0.3902  0.2174 -0.0841
 6771OCT     C213542   6.483   9.708  16.983 -0.1289 -0.2941  0.0170
 6772OCT     C113543  10.374  18.759   5.081 -0.1556  0.0478 -0.3218
 6772OCT     C213544  10.783  18.719   5.250 -0.2892 -0.1601  0.1979
 6773OCT     C113545  12.619  23.385   4.169  0.0191 -0.1772 -0.1247
 6773OCT     C213546  12.856   0.042   4.095 -0.0153  0.1329  0.0940
 6774OCT     C113547   9.454  17.244  17.549 -0.1669 -0.2164  0.0969
 6774OCT     C213548   9.241  17.091  17.904  0.0233  0.1895 -0.5296
 6775OCT     C113549   4.263  22.121   2.825 -0.1795 -0.1392  0.1429
 6775OCT     C213550   3.850  21.927   2.827 -0.0556 -0.2914 -0.5029
 6776OCT     C113551   4.782   6.910  15.231  0.0244  0.0202 -0.1765
 6776OCT     C213552   4.614   7.123  15.590  0.0596 -0.2966 -0.4349
 6777OCT     C113553   3.233   5.395  12.550  0.1764  0.1221  0.3212
 6777OCT     C213554   2.974   5.025  12.377 -0.1404  0.0843 -0.0877
 6778OCT     C113555  20.756  16.200  19.160  0.3671  0.6210  0.0346
 6778OCT     C213556  20.543  16.235  18.726  0.1525  0.0930 -0.0050
 6779OCT     C113557   1.087  22.660   8.483  0.0839  0.1906  0.1087
 6779OCT     C213558   0.890  23.048   8.644  0.1030  0.2380 -0.0136
 6780OCT     C113559  16.641  17.423  22.816  0.0623 -0.3682  0.1690
 6780OCT     C213560  17.083  17.507  22.935  0.4433  0.0813  0.2176
 6781OCT     C113561  18.236   4.056  14.169 -0.1015  0.0813  0.0650
 6781OCT     C213562  18.376   3.980  14.630  0.1396  0.0244  0.2537
 6782OCT     C113563   1.643   1.464   2.908 -0.1635 -0.2586 -0.1545
 6782OCT     C213564   1.525   1.238   2.481  0.1203  0.0185 -0.0374
 6783OCT     C113565  22.959  10.124  22.073 -0.2128  0.2210 -0.0182
 6783OCT     C213566  23.201  10.407  21.773 -0.2857 -0.0047  0.0509
 6784OCT     C113567  22.213  20.598  14.927  0.0678  0.3736 -0.0173
 6784OCT     C213568  22.492  20.243  15.103 -0.0304 -0.3163 -0.2103
 6785OCT     C113569  15.394   6.758  23.663  0.1407  0.0347  0.0380
 6785OCT     C213570  15.376   6.418   0.303 -0.1461  0.1071 -0.0138
 6786OCT     C113571  10.439  22.929   8.925 -0.0313  0.1251  0.0367
 6786OCT     C213572  10.056  23.184   9.040  0.2664 -0.2265 -0.1042
 6787OCT     C113573   8.683   9.682   3.777 -0.0116  0.6264  0.1136
 6787OCT     C213574   8.275   9.479   3.842  0.3579  0.1906  0.3677
 6788OCT     C113575  14.274  17.641  13.535  0.3067  0.2301  0.2883
 6788OCT     C213576  13.901  17.426  13.367 -0.1341 -0.0942 -0.1625
 6789OCT     C113577   2.533  17.602  12.007  0.4751  0.2097 -0.2313
 6789OCT     C213578   2.351  17.197  11.764  0.0504 -0.1802 -0.4381
 6790OCT     C113579   3.685   7.062  19.928 -0.0180  0.1211 -0.0971
 6790OCT     C213580   4.060   6.921  19.984 -0.3227  0.1019 -0.3982
 6791OCT     C113581  13.185   0.088  18.497  0.2759  0.1019  0.1159
 6791OCT     C213582  13.039   0.364  18.209  0.0746 -0.2914 -0.2706
 6792OCT     C113583  17.371   8.821   3.925 -0.2743 -0.2948 -0.0377
 6792OCT     C213584  17.061   8.505   4.085  0.1553 -0.2394 -0.0843
 6793OCT     C113585  16.994   0.739   9.403 -0.2597 -0.1090 -0.1072
 6793OCT     C213586  16.922   1.101   9.122 -0.2360 -0.0651 -0.1469
 6794OCT     C113587  15.141   6.864  12.583 -0.3018 -0.4632  0.0528
 6794OCT     C213588  15.289   7.045  12.220 -0.3256 -0.2048 -0.2728
 6795OCT     C113589   1.298   9.807  14.244 -0.1180 -0.2432 -0.3165
 6795OCT     C213590   1.198   9.370  14.305  0.2896 -0.0971 -0.3166
 6796OCT     C113591   4.759   4.995   9.736 -0.0070  0.0694 -0.2245
 6796OCT     C213592   4.919   5.055  10.199 -0.2060  0.0258  0.2412
 6797OCT     C113593  20.963   0.596  14.226  0.0505 -0.1664  0.1425
 6797OCT     C213594  20.837   0.936  14.508 -0.4454 -0.1688 -0.3809
 6798OCT     C113595   9.991  11.730  14.380  0.1866 -0.3105  0.1902
 6798OCT     C213596  10.418  11.914  14.247 -0.1105 -0.0131  0.1701
 6799OCT     C113597  21.392  22.634   7.506 -0.2764  0.1217 -0.3029
 6799OCT     C213598  21.754  22.384   7.636 -0.0722  0.0434  0.1406
 6800OCT     C113599  12.432  11.921   8.711 -0.3234 -0.0595  0.1265
 6800OCT     C213600  12.520  12.347   8.857 -0.4206 -0.0861 -0.3800
 6801OCT     C113601   5.975  21.723  16.387  0.0051 -0.0710  0.1703
 6801OCT     C213602   5.932  22.094  16.089  0.1989 -0.5566 -0.2351
 6802OCT     C113603  12.758   3.929  14.896  0.0106 -0.1017 -0.2579
 6802OCT     C213604  12.284   3.721  14.927  0.2312  0.1018 -0.1602
 6803OCT     C113605  20.425   7.148  19.987  0.1851 -0.1323  0.0882
 6803OCT     C213606  20.723   7.555  20.030 -0.0859 -0.2522  0.1879
 6804OCT     C113607  16.542  12.731   6.536  0.1860  0.0120  0.3226
 6804OCT     C213608  16.759  13.157   6.507 -0.2979  0.0313 -0.1017
 6805OCT     C113609   2.171  18.876  19.849  0.2351 -0.3010 -0.0617
 6805OCT     C213610   1.769  19.086  20.004 -0.1611 -0.0569 -0.1262
 6806OCT     C113611  15.028  13.977   2.855  0.0301 -0.1230  0.1353
 6806OCT     C213612  15.393  14.111   3.041 -0.0462  0.3485 -0.0996
 6807OCT     C113613  22.573   3.550  10.208  0.0112 -0.1667  0.1051
 6807OCT     C213614  22.540   4.009  10.065  0.0814 -0.0419 -0.2327
 6808OCT     C113615  14.498  19.664  23.138  0.0556 -0.1616  0.3426
 6808OCT     C213616  14.420  19.229  23.028 -0.2892  0.1689  0.1223
 6809OCT     C113617   5.915  11.568   0.491 -0.3877 -0.1044 -0.0087
 6809OCT     C213618   5.907  11.204   0.771  0.0459 -0.0314  0.1974
 6810OCT     C113619  16.219  17.686   4.003 -0.3322 -0.0406  0.2191
 6810OCT     C213620  16.488  17.603   4.372 -0.2172 -0.3045 -0.5016
 6811OCT     C113621  22.464   7.378  16.846  0.1308 -0.0242  0.2939
 6811OCT     C213622  22.353   6.925  16.712 -0.0754  0.0294 -0.2770
 6812OCT     C113623  15.301   2.687  16.645 -0.0273 -0.0619  0.0598
 6812OCT     C213624  15.412   2.265  16.870 -0.2217 -0.1749 -0.1090
 6813OCT     C113625  21.099   6.869   0.140 -0.1898  0.1124  0.1941
 6813OCT     C213626  21.265   6.423   0.275 -0.1128  0.2345  0.1328
 6814OCT     C113627  22.119   8.021  14.764 -0.0024  0.0671 -0.3106
 6814OCT     C213628  22.113   8.458  14.934 -0.3358 -0.3142 -0.0804
 6815OCT     C113629  12.818   3.222   6.597  0.2066 -0.1575 -0.1916
 6815OCT     C213630  12.946   3.562   6.870  0.0835  0.0597  0.2945
 6816OCT     C113631  13.620  11.449  23.677 -0.0237  0.1546  0.2273
 6816OCT     C213632  13.420  11.838  23.539  0.2201  0.1415  0.0261
 6817OCT     C113633   3.240  12.812  19.264  0.2398 -0.2131  0.2224
 6817OCT     C213634   3.181  13.262  19.171  0.3357 -0.2048 -0.3143
 6818OCT     C113635  15.347  18.152  18.268 -0.2364  0.1757 -0.3243
 6818OCT     C213636  15.238  18.284  17.839  0.0365  0.1463 -0.2809
 6819OCT     C113637  14.471   3.143   8.467  0.2108  0.5326  0.1892
 6819OCT     C213638  14.488   2.689   8.497  0.3092 -0.2725 -0.1674
 6820OCT     C113639  14.806  10.554  20.732  0.4602 -0.0855  0.2390
 6820OCT     C213640  14.597  11.007  20.792 -0.0823  0.0238 -0.3291
 6821OCT     C113641  21.165  19.812   0.927 -0.0553  0.0983 -0.0380
 6821OCT     C213642  21.216  20.220   0.732  0.0262  0.3365  0.3171
 6822OCT     C113643  16.134   8.895   7.431 -0.1997 -0.2288  0.2296
 6822OCT     C213644  16.029   9.018   7.862 -0.0253  0.6153 -0.0324
 6823OCT     C113645  19.111  21.083  13.203  0.1213 -0.3547 -0.0152
 6823OCT     C213646  19.538  21.017  12.944 -0.0538 -0.1201  0.1079
 6824OCT     C113647   6.001  20.123   5.576  0.1131  0.0308  0.3176
 6824OCT     C213648   5.977  20.545   5.386 -0.0297 -0.0827  0.2532
 6825OCT     C113649   5.670   9.948  12.752 -0.2966 -0.1215  0.1109
 6825OCT     C213650   5.807   9.703  12.423 -0.1378  0.2973 -0.0308
 6826OCT     C113651  16.554  19.394   4.149  0.1464 -0.1469 -0.2709
 6826OCT     C213652  16.789  19.796   4.010 -0.3108 -0.4310 -0.0009
 6827OCT     C113653   3.135  18.248  22.103  0.0044  0.0735 -0.2274
 6827OCT     C213654   3.372  18.591  21.887 -0.2200  0.2057  0.2346
 6828OCT     C113655  23.529  20.566  13.790  0.0405 -0.0061  0.1208
 6828OCT     C213656   0.104  20.717  14.101 -0.0184 -0.1669 -0.2456
 6829OCT     C113657   4.464   0.335  17.004 -0.0183  0.0993 -0.0252
 6829OCT     C213658   4.539   0.824  16.935  0.3033  0.3037 -0.2229
 6830OCT     C113659  15.575  10.060  16.871 -0.0896  0.0461 -0.0061
 6830OCT     C213660  15.189  10.306  16.848  0.1747 -0.2279 -0.1875
 6831OCT     C113661   0.984  15.838   2.028 -0.0501 -0.1114  0.3560
 6831OCT     C213662   0.700  16.218   2.039 -0.0767 -0.0375  0.0554
 6832OCT     C113663   4.718  14.643  21.030 -0.2591  0.3909  0.2819
 6832OCT     C213664   4.476  15.025  21.134  0.1116  0.0841 -0.1276
 6833OCT     C113665   5.186  11.549  22.329  0.0591  0.2738 -0.0956
 6833OCT     C213666   4.878  11.769  22.635 -0.3139  0.4500 -0.1821
 6834OCT     C113667   4.179  14.041  13.819 -0.0340 -0.0735  0.1543
 6834OCT     C213668   3.832  13.779  13.970 -0.1740 -0.0760 -0.0196
 6835OCT     C113669   6.619   3.772   4.779  0.0444  0.0170  0.0624
 6835OCT     C213670   6.926   3.585   4.507  0.3099  0.0669 -0.0172
 6836OCT     C113671  22.888   6.255  22.529 -0.1884  0.2252  0.0471
 6836OCT     C213672  23.312   6.409  22.357 -0.1000 -0.0270 -0.0004
 6837OCT     C113673  19.728  14.130  22.994  0.0987 -0.3816  0.1161
 6837OCT     C213674  19.351  14.349  23.204  0.0112  0.4079  0.0124
 6838OCT     C113675   8.114   3.251  19.417  0.0648  0.0232  0.3539
 6838OCT     C213676   8.219   2.983  19.041 -0.0329 -0.1123  0.3271
 6839OCT     C113677  12.530   2.917  22.060  0.0014 -0.0394  0.2716
 6839OCT     C213678  12.916   2.672  22.232 -0.1295  0.1448  0.0000
 6840OCT     C113679  10.486  21.388  22.061 -0.3653  0.0326  0.0465
 6840OCT     C213680  10.042  21.504  21.943 -0.0257  0.2215  0.0626
 6841OCT     C113681  16.288  17.608  18.640  0.2729 -0.0826  0.1014
 6841OCT     C213682  16.314  17.161  18.540 -0.0267  0.6277 -0.3008
 6842OCT     C113683   7.622   3.341  11.912  0.1907  0.0326 -0.2191
 6842OCT     C213684   7.374   2.985  11.753  0.0066 -0.1118 -0.1280
 6843OCT     C113685  22.348  19.604  18.470  0.0606 -0.1802  0.0102
 6843OCT     C213686  22.122  19.927  18.788  0.1009 -0.2164  0.0748
 6844OCT     C113687   4.045  15.368   7.208  0.1964 -0.3749 -0.1287
 6844OCT     C213688   4.197  15.408   7.641  0.0616  0.2951 -0.1570
 6845OCT     C113689  10.123  18.237  20.464  0.3243  0.1284 -0.3316
 6845OCT     C213690   9.907  18.316  20.889 -0.2289  0.0546 -0.1961
 6846OCT     C113691   8.756  21.920  15.383  0.1727  0.0742  0.1363
 6846OCT     C213692   8.755  21.719  14.930 -0.0939 -0.1493 -0.0374
 6847OCT     C113693  11.167  11.959  19.866 -0.3508 -0.2311 -0.0835
 6847OCT     C213694  11.465  11.829  19.553  0.1870  0.3561 -0.2005
 6848OCT     C113695  16.122  21.698  16.993 -0.3636 -0.1756 -0.3258
 6848OCT     C213696  16.148  22.043  17.350 -0.0797 -0.1206 -0.1124
 6849OCT     C113697  22.091  10.129  11.376  0.0341 -0.0160 -0.2022
 6849OCT     C213698  22.169   9.897  11.775 -0.0159 -0.2366 -0.1209
 6850OCT     C113699  22.971   2.875  11.921 -0.1534 -0.0128 -0.0022
 6850OCT     C213700  22.682   3.173  11.981  0.2244  0.3509 -0.1937
 6851OCT     C113701  19.442   9.950  22.912 -0.0263 -0.2506 -0.2467
 6851OCT     C213702  19.414  10.249  22.541 -0.2399 -0.2424 -0.1620
 6852OCT     C113703  19.533  12.689  11.555  0.2736 -0.0331 -0.1636
 6852OCT     C213704  19.117  12.653  11.675  0.1040 -0.1031 -0.1859
 6853OCT     C113705   0.454  13.383  21.792  0.0230 -0.0252 -0.1936
 6853OCT     C213706   0.086  13.247  22.079 -0.3482  0.1255 -0.0042
 6854OCT     C113707   1.759  20.322  11.026  0.1955  0.2988 -0.0739
 6854OCT     C213708   2.031  19.909  10.897 -0.2263 -0.1086 -0.0771
 6855OCT     C113709  17.998  11.443  17.897 -0.0516 -0.2444  0.2214
 6855OCT     C213710  18.375  11.534  18.164 -0.1568  0.2780  0.1517
 6856OCT     C113711  22.892  14.622  17.277  0.3861  0.1892 -0.3629
 6856OCT     C213712  22.501  14.781  17.437  0.2802 -0.3742 -0.0972
 6857OCT     C113713  14.953   5.565   2.281 -0.1542  0.0055  0.2366
 6857OCT     C213714  14.699   5.745   2.673  0.1271 -0.3794  0.0775
 6858OCT     C113715   9.559   1.860   4.334 -0.3035 -0.4792 -0.0443
 6858OCT     C213716   9.216   1.489   4.374 -0.3468 -0.0103  0.0883
 6859OCT     C113717  11.378  18.789   0.660 -0.2191  0.1141  0.0830
 6859OCT     C213718  11.448  18.491   0.989 -0.0292  0.1828  0.1889
 6860OCT     C113719  13.281  13.927  22.077  0.2175 -0.0585 -0.0503
 6860OCT     C213720  13.101  14.235  21.776  0.3190  0.2430  0.4085
 6861OCT     C113721   6.214   3.291   2.819  0.2066  0.1566 -0.3742
 6861OCT     C213722   5.991   3.032   3.053  0.3020  0.0554  0.2463
 6862OCT     C113723  13.702   5.405  11.220 -0.1437  0.2271  0.1068
 6862OCT     C213724  13.373   5.777  11.251 -0.1313  0.1615  0.1842
 6863OCT     C113725  10.897  13.712   1.035  0.0477  0.0787 -0.1606
 6863OCT     C213726  10.640  13.685   0.614  0.4126  0.2501 -0.0245
 6864OCT     C113727   2.126   2.160   4.506  0.1257  0.4898 -0.2413
 6864OCT     C213728   1.833   1.842   4.417  0.0304  0.1166  0.1896
 6865OCT     C113729   0.107  13.702   4.844  0.3574  0.1522  0.0087
 6865OCT     C213730  23.556  14.106   4.770  0.1213 -0.0565 -0.0889
 6866OCT     C113731  14.827  13.180  17.548 -0.2839 -0.0563  0.0379
 6866OCT     C213732  14.685  12.995  17.117  0.0575 -0.0496 -0.3016
 6867OCT     C113733   8.423  10.327   5.980 -0.4301  0.0859 -0.0621
 6867OCT     C213734   8.533  10.310   5.528 -0.3899  0.1314 -0.5765
 6868OCT     C113735  17.580   9.844  14.540 -0.0408 -0.3080 -0.1090
 6868OCT     C213736  17.378  10.285  14.543  0.0691  0.1063  0.2039
 6869OCT     C113737  15.824  19.684  16.826 -0.4058 -0.2047  0.0742
 6869OCT     C213738  15.894  20.159  17.000  0.5023  0.0437 -0.0946
 6870OCT     C113739   8.403   0.678   1.067 -0.0684 -0.0155  0.3773
 6870OCT     C213740   8.642   0.822   0.676  0.3032 -0.0092  0.1170
 6871OCT     C113741  18.843   7.072  18.923 -0.2066 -0.1215  0.3073
 6871OCT     C213742  19.182   6.994  19.292 -0.2083  0.4042  0.1463
 6872OCT     C113743   9.807  23.690  19.042 -0.0495  0.0154 -0.1151
 6872OCT     C213744   9.630   0.097  19.411 -0.0756  0.1355 -0.4353
 6873OCT     C113745  16.470   7.281  22.906 -0.3676 -0.2034 -0.1105
 6873OCT     C213746  16.616   7.474  22.481  0.1906  0.1368 -0.0761
 6874OCT     C113747  15.999  15.785  10.614 -0.1517 -0.1051 -0.0748
 6874OCT     C213748  16.159  16.186  10.361  0.1587 -0.0922  0.1426
 6875OCT     C113749   4.001  12.962  16.039 -0.0204  0.0765 -0.2351
 6875OCT     C213750   4.169  13.348  15.937 -0.1190  0.0150  0.0087
 6876OCT     C113751  12.412  20.804   0.294 -0.1183 -0.0777 -0.1570
 6876OCT     C213752  12.779  20.499   0.302 -0.1752 -0.1900 -0.0652
 6877OCT     C113753  14.598  22.004  19.638  0.0162 -0.3567  0.0099
 6877OCT     C213754  14.285  21.842  19.359 -0.0625  0.2120  0.0588
 6878OCT     C113755  19.427   7.160  18.347 -0.2329  0.4041 -0.0209
 6878OCT     C213756  18.975   7.345  18.282 -0.0820  0.0841  0.0615
 6879OCT     C113757  19.809   9.552  17.648  0.0361 -0.1218 -0.5998
 6879OCT     C213758  20.199   9.454  17.489  0.0094 -0.0165 -0.4344
 6880OCT     C113759  18.496  15.649   4.973  0.1889 -0.1306 -0.2721
 6880OCT     C213760  18.083  15.537   4.836  0.1604  0.0914 -0.1220
 6881OCT     C113761  19.247   5.308   9.465  0.1080  0.3923  0.0384
 6881OCT     C213762  19.037   5.022   9.120  0.4758 -0.1311  0.0156
 6882OCT     C113763   5.332  17.203  15.028  0.5439 -0.0071  0.2366
 6882OCT     C213764   5.208  17.269  14.554 -0.1326  0.3259 -0.3825
 6883OCT     C113765  19.446  13.999  17.152 -0.1419  0.0340  0.1519
 6883OCT     C213766  19.523  13.676  17.505  0.1808 -0.1880  0.0271
 6884OCT     C113767  19.824  13.178  18.115  0.1439  0.0872 -0.1174
 6884OCT     C213768  20.079  12.797  18.179  0.1117  0.1691  0.1269
 6885OCT     C113769  19.093  10.751   0.174 -0.1408 -0.0238 -0.1213
 6885OCT     C213770  19.182  10.692   0.649 -0.1287  0.0362 -0.1821
 6886OCT     C113771  11.834  19.386  22.502  0.1748  0.2394 -0.0165
 6886OCT     C213772  11.780  19.844  22.609 -0.2201  0.4165  0.2692
 6887OCT     C113773   6.186   9.106   0.719  0.1962 -0.3425 -0.3882
 6887OCT     C213774   6.263   8.647   0.815 -0.0439  0.1110 -0.1058
 6888OCT     C113775   6.096   0.148  11.538  0.0484  0.1850  0.1795
 6888OCT     C213776   5.803   0.489  11.399 -0.0471  0.1926 -0.1526
 6889OCT     C113777  14.978  11.522  11.672  0.1247  0.0772 -0.3783
 6889OCT     C213778  14.549  11.602  11.640 -0.1043  0.4809 -0.1513
 6890OCT     C113779  14.239   6.661  16.650  0.1703  0.2397 -0.4001
 6890OCT     C213780  14.457   7.025  16.839  0.0932 -0.1586 -0.1746
 6891OCT     C113781   9.006   3.046  23.016 -0.1297 -0.0594  0.0640
 6891OCT     C213782   9.219   2.667  22.825  0.1618  0.0348 -0.0936
 6892OCT     C113783  21.603   2.082  16.652  0.3116 -0.0008  0.1216
 6892OCT     C213784  21.249   2.278  16.889  0.4066 -0.1402  0.1856
 6893OCT     C113785   5.519  10.165   2.603 -0.0830 -0.1630 -0.1703
 6893OCT     C213786   5.065  10.045   2.532  0.0819  0.0714  0.0751
 6894OCT     C113787   5.121  17.034  22.773 -0.0040 -0.1887  0.2190
 6894OCT     C213788   5.498  16.813  22.564 -0.1193 -0.0914  0.3794
 6895OCT     C113789   8.084  18.134   8.120  0.1288 -0.0164 -0.0765
 6895OCT     C213790   7.763  17.799   7.963 -0.0197 -0.2602  0.1132
 6896OCT     C113791   3.304  16.863  16.118 -0.2023  0.0983 -0.2379
 6896OCT     C213792   2.939  17.098  15.941 -0.0893 -0.0641 -0.1694
 6897OCT     C113793   4.743   3.147  20.079 -0.1996 -0.2501 -0.0615
 6897OCT     C213794   4.454   3.534  20.170 -0.3166 -0.0322  0.0710
 6898OCT     C113795   8.707   9.029   4.765 -0.1835  0.4791  0.0523
 6898OCT     C213796   8.665   8.885   5.272 -0.0300  0.1991  0.0344
 6899OCT     C113797  18.086  21.823   2.003  0.0156 -0.1736  0.0458
 6899OCT     C213798  18.113  21.520   2.376  0.1472  0.0091  0.2711
 6900OCT     C113799  14.054   8.273  15.518 -0.0366  0.1176 -0.3244
 6900OCT     C213800  14.272   7.983  15.257  0.1548  0.2158 -0.0597
 6901OCT     C113801  15.985  22.228  15.774 -0.0064 -0.1937  0.2084
 6901OCT     C213802  15.707  22.087  16.116 -0.0781  0.3294 -0.2969
 6902OCT     C113803  11.482  14.545   2.870 -0.1948 -0.1780 -0.4159
 6902OCT     C213804  11.467  14.845   2.527  0.1413  0.0484  0.1084
 6903OCT     C113805  12.517  19.308  14.988 -0.0084 -0.3468  0.1964
 6903OCT     C213806  12.705  19.764  14.993  0.0425  0.1649  0.2536
 6904OCT     C113807   7.064   8.923  14.097 -0.3462  0.0108 -0.1317
 6904OCT     C213808   7.245   8.486  14.190  0.0305 -0.2813  0.1488
 6905OCT     C113809   5.963  10.489  12.648 -0.0925  0.0346 -0.0713
 6905OCT     C213810   6.046  10.120  12.391  0.0107 -0.2146  0.2586
 6906OCT     C113811  11.131  23.725  21.137 -0.4273  0.2349 -0.6219
 6906OCT     C213812  11.065   0.461  21.120 -0.2948  0.2607  0.0327
 6907OCT     C113813  17.590  21.237   0.236  0.0715  0.2853  0.0159
 6907OCT     C213814  17.164  21.310   0.013 -0.0568  0.3002 -0.2122
 6908OCT     C113815  10.111  20.866   4.929 -0.0778  0.1879  0.1479
 6908OCT     C213816  10.568  21.091   4.947  0.2792  0.0045  0.1358
 6909OCT     C113817  13.741   1.992  11.960  0.0818  0.1122  0.1025
 6909OCT     C213818  13.863   1.692  11.597  0.3018  0.0559  0.0800
 6910OCT     C113819  15.945  12.585  12.944 -0.0040  0.1374 -0.1246
 6910OCT     C213820  16.122  12.521  12.493  0.1101 -0.0458  0.3013
 6911OCT     C113821   9.250  10.209   8.821 -0.0933 -0.3216 -0.1658
 6911OCT     C213822   9.448  10.273   8.408 -0.1631  0.1142 -0.2000
 6912OCT     C113823  14.197  19.002  18.870 -0.0648  0.1108 -0.2774
 6912OCT     C213824  14.296  19.398  19.061 -0.0779 -0.1497  0.0276
 6913OCT     C113825  12.735   0.254  21.158 -0.3737 -0.1649 -0.1214
 6913OCT     C213826  13.018   0.627  21.337  0.1929  0.0741 -0.1293
 6914OCT     C113827   0.386   8.591  12.880 -0.1087  0.0903 -0.2322
 6914OCT     C213828   0.595   8.172  12.855 -0.2214  0.3627 -0.1224
 6915OCT     C113829   1.469   9.025   7.203 -0.1611  0.0349  0.1962
 6915OCT     C213830   1.830   8.845   6.910  0.2169  0.1880  0.0513
 6916OCT     C113831   9.264  12.002  15.271  0.3777 -0.4217 -0.0119
 6916OCT     C213832   9.318  12.362  15.552 -0.0544  0.1351 -0.3255
 6917OCT     C113833  15.913  13.306  22.602  0.2276  0.1992  0.2035
 6917OCT     C213834  15.480  13.305  22.750 -0.0922  0.1364  0.1690
 6918OCT     C113835  16.727   5.210  19.832 -0.0094  0.0290 -0.3187
 6918OCT     C213836  16.953   5.133  19.437 -0.2387 -0.0951  0.1720
 6919OCT     C113837   1.984  22.911   1.681 -0.4236  0.0951 -0.0370
 6919OCT     C213838   1.897  23.179   1.309  0.0001 -0.0143 -0.1196
 6920OCT     C113839  12.214   2.048  11.843 -0.1721  0.1828 -0.2404
 6920OCT     C213840  12.320   2.219  11.442 -0.1433  0.1293 -0.2500
 6921OCT     C113841   9.749  15.524  15.083 -0.0002  0.3023  0.2728
 6921OCT     C213842  10.088  15.679  15.308  0.1765  0.1252  0.2007
 6922OCT     C113843   9.773  13.995  22.554 -0.0186 -0.1611 -0.0245
 6922OCT     C213844  10.115  13.718  22.719  0.3598  0.0236 -0.0500
 6923OCT     C113845   6.933  14.391   3.092 -0.0022  0.3575  0.1100
 6923OCT     C213846   7.248  14.114   2.913 -0.3580  0.0726 -0.2003
 6924OCT     C113847  16.806   0.723   2.271  0.4072 -0.2178 -0.0012
 6924OCT     C213848  16.656   0.392   1.945  0.2069 -0.1333  0.0820
 6925OCT     C113849  19.315  18.940   1.230 -0.0710 -0.1751 -0.1852
 6925OCT     C213850  19.727  19.140   1.098 -0.2903  0.1679 -0.2214
 6926OCT     C113851  17.417  17.498  17.523  0.2369  0.1156  0.3189
 6926OCT     C213852  17.089  17.562  17.830 -0.0288 -0.2085  0.0253
 6927OCT     C113853  18.153  10.877  11.861 -0.0251  0.0828 -0.2808
 6927OCT     C213854  18.485  11.074  11.600  0.1670  0.2938  0.3359
 6928OCT     C113855  22.044  21.884  13.950 -0.0965  0.2840  0.1820
 6928OCT     C213856  22.461  22.072  13.900 -0.0275  0.2715  0.1504
 6929OCT     C113857   3.684   5.067  13.505 -0.1074  0.0978 -0.0243
 6929OCT     C213858   3.268   5.035  13.757 -0.2040  0.2046  0.1174
 6930OCT     C113859   2.243  16.281  21.273  0.0584 -0.0909 -0.4309
 6930OCT     C213860   2.204  16.636  20.994  0.0567  0.2454 -0.1805
 6931OCT     C113861  13.807  13.877  12.813  0.2303 -0.1130 -0.1352
 6931OCT     C213862  13.698  14.047  13.271 -0.2514  0.0160 -0.1239
 6932OCT     C113863  22.992  10.163  12.219 -0.0404 -0.0946  0.1255
 6932OCT     C213864  22.678   9.845  12.211  0.1448  0.0331 -0.0048
 6933OCT     C113865  17.790  22.095   4.841  0.1772 -0.1684 -0.0209
 6933OCT     C213866  18.139  21.888   5.027  0.1873 -0.0894 -0.4434
 6934OCT     C113867   6.518  13.788  11.135 -0.2034 -0.0307  0.1408
 6934OCT     C213868   6.278  13.724  11.525 -0.1261  0.2743  0.0326
 6935OCT     C113869   9.215   6.655  18.203  0.1821  0.1029 -0.1438
 6935OCT     C213870   9.011   6.844  18.552  0.0431  0.1176  0.2161
 6936OCT     C113871  21.204  22.722  12.012 -0.4993  0.0348 -0.0241
 6936OCT     C213872  20.770  22.565  11.970  0.1172  0.0646  0.3452
 6937OCT     C113873  21.142   9.824   6.567 -0.2603  0.0451 -0.0878
 6937OCT     C213874  21.271   9.946   6.123  0.5092  0.0366  0.0651
 6938OCT     C113875   4.481   3.214   0.077  0.0164  0.0804  0.2002
 6938OCT     C213876   4.947   3.215   0.305 -0.2844 -0.1268  0.0778
 6939OCT     C113877   7.486  10.067   5.512  0.2131 -0.0474  0.0812
 6939OCT     C213878   7.185  10.413   5.420  0.0467  0.2287  0.1367
 6940OCT     C113879   8.507  15.821  11.941  0.0939  0.3389 -0.2398
 6940OCT     C213880   8.795  15.592  12.231 -0.0851  0.0379  0.0161
 6941OCT     C113881   2.125  12.595  12.188 -0.2984  0.1349  0.0921
 6941OCT     C213882   2.539  12.367  12.229  0.1405  0.1959 -0.0069
 6942OCT     C113883  23.156   3.545   0.155 -0.0568  0.0129 -0.2563
 6942OCT     C213884  22.930   3.175   0.362  0.1085 -0.0849 -0.2885
 6943OCT     C113885  13.818  17.055  16.221 -0.0876 -0.0410 -0.0060
 6943OCT     C213886  13.545  16.960  15.814  0.1592 -0.1986  0.2924
 6944OCT     C113887  20.226  14.144  22.037  0.0422  0.4078 -0.0648
 6944OCT     C213888  20.232  14.197  21.574 -0.1195  0.1837  0.0201
 6945OCT     C113889   8.141   7.071  11.540  0.1507 -0.0868  0.1835
 6945OCT     C213890   7.929   6.723  11.508 -0.5582  0.0556 -0.0891
 6946OCT     C113891  20.437   0.510  15.063 -0.3934 -0.1564  0.1285
 6946OCT     C213892  20.679   0.861  15.294 -0.0517 -0.2167 -0.1256
 6947OCT     C113893  21.966  13.548  18.867 -0.1839  0.6217  0.2478
 6947OCT     C213894  22.126  13.107  18.748  0.2102  0.1611 -0.3418
 6948OCT     C113895  11.124  13.069   9.982  0.2405  0.1112  0.0787
 6948OCT     C213896  10.909  12.711   9.814  0.1418  0.1765 -0.1269
 6949OCT     C113897   0.804  19.239  11.744 -0.1101 -0.2266  0.0009
 6949OCT     C213898   0.731  19.430  11.317  0.0613  0.2718  0.1718
 6950OCT     C113899  23.302  10.531  20.033 -0.0247  0.1170  0.0736
 6950OCT     C213900  23.681  10.495  20.262 -0.1644 -0.0421  0.1266
 6951OCT     C113901  20.867  13.340  17.248  0.2660  0.2695 -0.1823
 6951OCT     C213902  21.126  13.128  16.921 -0.2609 -0.2238 -0.1093
 6952OCT     C113903   7.597  22.503  16.664  0.0110 -0.1283  0.0892
 6952OCT     C213904   7.139  22.657  16.572  0.0043  0.5415  0.0059
 6953OCT     C113905  17.787   1.554   9.650  0.1429 -0.2335 -0.1953
 6953OCT     C213906  17.533   1.257   9.903 -0.2017  0.1700 -0.0194
 6954OCT     C113907   4.602   7.803   2.082  0.0621  0.1360  0.0650
 6954OCT     C213908   4.892   8.129   1.902  0.2054 -0.1275  0.0058
 6955OCT     C113909  18.586  17.687  12.665  0.1847 -0.1566 -0.1353
 6955OCT     C213910  18.538  18.006  12.353  0.2153 -0.1373 -0.1825
 6956OCT     C113911   4.898   9.108  18.145 -0.4609 -0.1841  0.1923
 6956OCT     C213912   4.751   9.432  18.478  0.0189 -0.1461 -0.0934
 6957OCT     C113913  20.905  15.768  13.859  0.0125 -0.0266 -0.0810
 6957OCT     C213914  20.600  15.766  14.247  0.1169  0.4254  0.0893
 6958OCT     C113915  15.034  18.672  13.383 -0.1359 -0.1458 -0.1501
 6958OCT     C213916  15.206  18.412  13.036  0.2725 -0.0493 -0.3751
 6959OCT     C113917   6.488  20.613  15.257 -0.0732  0.0123 -0.0645
 6959OCT     C213918   6.238  20.547  15.689  0.1979  0.2489  0.0725
 6960OCT     C113919  15.311   2.504  15.890  0.1035  0.0158  0.0712
 6960OCT     C213920  15.814   2.509  15.902 -0.1904 -0.0117 -0.0963
 6961OCT     C113921   1.930  14.590  18.889  0.3318  0.0411  0.2563
 6961OCT     C213922   2.371  14.708  18.727 -0.2358 -0.2393  0.0880
 6962OCT     C113923  12.221  21.467   7.689 -0.0509 -0.1590 -0.2369
 6962OCT     C213924  12.386  21.066   7.684 -0.2674 -0.1399  0.0020
 6963OCT     C113925  19.132  14.359   4.927  0.0977  0.1643  0.0041
 6963OCT     C213926  19.442  14.540   4.641  0.1357 -0.1568 -0.1006
 6964OCT     C113927  20.105   1.301  18.685  0.0621 -0.2341  0.0107
 6964OCT     C213928  20.398   1.727  18.756 -0.2854  0.3034  0.5926
 6965OCT     C113929  18.637  11.631  16.918  0.0998  0.0398  0.0902
 6965OCT     C213930  18.194  11.748  16.849  0.1702 -0.2337 -0.1174
 6966OCT     C113931  13.974  10.006  20.123  0.3679  0.0918 -0.0390
 6966OCT     C213932  13.513  10.036  20.185 -0.1478 -0.0365 -0.4410
 6967OCT     C113933  12.934   5.481  16.947 -0.2264 -0.0195 -0.0434
 6967OCT     C213934  12.940   5.131  16.627 -0.4739 -0.3919  0.0114
 6968OCT     C113935  21.415  13.863   2.397  0.0578  0.2937  0.0774
 6968OCT     C213936  21.135  14.221   2.510  0.0346  0.3643 -0.2025
 6969OCT     C113937   2.968   6.646  15.103  0.0311 -0.0720 -0.2379
 6969OCT     C213938   3.350   6.893  14.907 -0.2728 -0.1029  0.0001
 6970OCT     C113939  16.411   5.718  22.204  0.0799  0.1237  0.0094
 6970OCT     C213940  15.961   5.840  22.273 -0.0906  0.1143 -0.0844
 6971OCT     C113941  11.998  20.416  10.332  0.3553  0.3062  0.0479
 6971OCT     C213942  11.826  20.870  10.428  0.0220  0.3417  0.1061
 6972OCT     C113943  16.917   7.961   0.414  0.2472 -0.2913 -0.1710
 6972OCT     C213944  17.155   8.233   0.237 -0.0803 -0.3795 -0.0545
 6973OCT     C113945   3.951   0.251   8.006  0.0170 -0.1878  0.0966
 6973OCT     C213946   3.498   0.272   8.088 -0.0237  0.0050  0.0861
 6974OCT     C113947  21.768   2.221   8.129 -0.1202  0.3680  0.0076
 6974OCT     C213948  22.103   2.224   8.438 -0.0095 -0.0420 -0.1205
 6975OCT     C113949  11.530   6.201   8.904 -0.0048  0.4964 -0.0841
 6975OCT     C213950  11.709   6.615   8.955 -0.0155 -0.3874 -0.0802
 6976OCT     C113951  15.906  17.339  15.947 -0.3552 -0.2520 -0.1091
 6976OCT     C213952  15.506  17.549  15.842 -0.1071  0.1929  0.0387
 6977OCT     C113953  17.132  11.628   2.296 -0.1311 -0.2190  0.0816
 6977OCT     C213954  17.252  11.955   2.660  0.2614  0.1071  0.0574
 6978OCT     C113955   3.306   3.304   4.915  0.2151  0.1414  0.2484
 6978OCT     C213956   3.457   3.184   4.569 -0.0552  0.1879 -0.2237
 6979OCT     C113957   1.311   1.289  20.414 -0.1147  0.0512 -0.1510
 6979OCT     C213958   1.381   0.967  20.745  0.1461  0.2416  0.0552
 6980OCT     C113959  12.969  11.086  15.694  0.2288 -0.1609 -0.2481
 6980OCT     C213960  12.880  10.662  15.933 -0.3558  0.0232 -0.0786
 6981OCT     C113961  22.704  19.794   2.802  0.0399  0.0165 -0.2826
 6981OCT     C213962  22.394  19.495   3.048  0.4926 -0.1771 -0.0256
 6982OCT     C113963  12.740  10.231   1.268  0.0479  0.1748 -0.1814
 6982OCT     C213964  13.233  10.210   1.337  0.2938 -0.2329  0.4384
 6983OCT     C113965  17.083   4.072  13.092  0.2679  0.0322  0.0502
 6983OCT     C213966  17.169   4.248  12.720 -0.2303 -0.0828  0.3437
 6984OCT     C113967  14.483   9.157  21.364 -0.3755 -0.2416  0.1735
 6984OCT     C213968  14.780   8.794  21.244 -0.1223  0.1869 -0.0691
 6985OCT     C113969   8.943   5.739  18.683 -0.0738 -0.0272  0.0522
 6985OCT     C213970   9.321   5.622  18.981  0.2608  0.2196 -0.3221
 6986OCT     C113971  21.692   6.029  17.439  0.0500  0.2102 -0.0848
 6986OCT     C213972  22.111   6.196  17.704 -0.2231  0.1322  0.1621
 6987OCT     C113973   2.312   6.323  18.180  0.3423  0.0090 -0.5946
 6987OCT     C213974   2.262   6.751  18.273  0.0370 -0.1087  0.2193
 6988OCT     C113975  14.759   2.951   9.378  0.1102  0.1019  0.0468
 6988OCT     C213976  15.066   2.825   9.715  0.2653 -0.1638 -0.0566
 6989OCT     C113977  15.028   9.804  13.962  0.0644 -0.1783 -0.0511
 6989OCT     C213978  14.889   9.927  13.518 -0.2904  0.3305 -0.1368
 6990OCT     C113979  14.801   3.824  17.559 -0.1120 -0.0071  0.0941
 6990OCT     C213980  14.792   4.300  17.734 -0.1341 -0.3048  0.1947
 6991OCT     C113981   7.238  19.343  14.814 -0.1100 -0.0992  0.0421
 6991OCT     C213982   7.369  19.734  14.564 -0.1029  0.2770 -0.1195
 6992OCT     C113983   2.557  11.960  17.865  0.0148 -0.2260 -0.2773
 6992OCT     C213984   2.739  11.973  18.258 -0.1046  0.3791  0.4027
 6993OCT     C113985   5.152  20.377  10.878  0.2201 -0.3520 -0.3677
 6993OCT     C213986   5.200  20.778  10.563 -0.3288 -0.1420 -0.0887
 6994OCT     C113987  13.342  15.785  19.126  0.0690  0.2674 -0.3089
 6994OCT     C213988  13.274  15.797  19.633 -0.1207  0.2696  0.2235
 6995OCT     C113989  13.503   5.328  17.776  0.2206 -0.2150  0.3842
 6995OCT     C213990  13.901   5.489  17.556  0.1688  0.1927 -0.0590
 6996OCT     C113991  15.975  16.760   3.947 -0.2643 -0.0304 -0.3457
 6996OCT     C213992  15.865  16.837   4.394 -0.2693 -0.0283 -0.1961
 6997OCT     C113993  19.817  13.138  11.652 -0.1335  0.2540  0.0330
 6997OCT     C213994  20.269  13.276  11.523  0.5566 -0.1201  0.1624
 6998OCT     C113995  23.431   3.493  10.133  0.2699 -0.3364 -0.0558
 6998OCT     C213996  23.010   3.770  10.131  0.1635 -0.1781  0.1537
 6999OCT     C113997   2.674   6.965   7.891 -0.1263 -0.2945  0.2825
 6999OCT     C213998   2.399   6.702   7.566 -0.2650  0.0693 -0.2784
 7000OCT     C113999   4.391  18.742   4.401  0.4654 -0.1464  0.1741
 7000OCT     C214000   4.189  18.350   4.420  0.1135  0.3204  0.1848
 7001OCT     C114001  16.088  22.434  11.452  0.3084  0.1600 -0.0117
 7001OCT     C214002  16.052  22.873  11.765 -0.1567 -0.0775 -0.2170
 7002OCT     C114003   5.572   5.257  21.646  0.1575  0.3177  0.0179
 7002OCT     C214004   5.252   5.153  21.323  0.1152  0.0456 -0.1840
 7003OCT     C114005   7.906  14.370  16.838 -0.0139 -0.3611 -0.0545
 7003OCT     C214006   7.962  13.980  16.653  0.5028  0.0600 -0.3235
 7004OCT     C114007  14.745  20.248   8.790  0.2020 -0.3005 -0.0205
 7004OCT     C214008  14.802  20.589   9.061 -0.2083  0.1449  0.0579
 7005OCT     C114009  11.091  18.566  12.515 -0.1997 -0.2059  0.1303
 7005OCT     C214010  10.903  18.924  12.765  0.0169  0.2138  0.2826
 7006OCT     C114011   0.451   8.341  21.504  0.0640 -0.1487 -0.0695
 7006OCT     C214012   0.908   8.363  21.361  0.0717  0.0963  0.3284
 7007OCT     C114013   9.365  22.431   6.803 -0.0723 -0.1377 -0.1090
 7007OCT     C214014   9.051  22.600   7.098  0.0186  0.0453  0.1436
 7008OCT     C114015  22.421  20.781  10.593  0.0579 -0.0640  0.2412
 7008OCT     C214016  22.841  20.761  10.812  0.1943  0.0118  0.0153
 7009OCT     C114017   4.240  18.158  11.058 -0.1244  0.1230 -0.0932
 7009OCT     C214018   4.300  17.889  10.665  0.0018 -0.3793 -0.0659
 7010OCT     C114019  20.714  20.263  19.399  0.0426  0.4263 -0.3034
 7010OCT     C214020  20.449  20.556  19.236 -0.0324 -0.2466 -0.2746
 7011OCT     C114021  12.058  19.234  14.404 -0.3291 -0.2325  0.2701
 7011OCT     C214022  11.706  19.472  14.253  0.4527 -0.2427 -0.1747
 7012OCT     C114023  11.631  23.149  16.475 -0.5936  0.0364  0.4020
 7012OCT     C214024  11.382  22.749  16.414  0.1673  0.3303  0.1354
 7013OCT     C114025  20.645  10.511  12.283  0.1710 -0.1217  0.0688
 7013OCT     C214026  20.549  10.766  12.659 -0.0149 -0.3321  0.1178
 7014OCT     C114027   1.568   8.645  14.285  0.0765  0.2224  0.0506
 7014OCT     C214028   1.708   8.593  13.841  0.2463 -0.1413 -0.0603
 7015OCT     C114029  23.158   4.973   6.016  0.0462  0.1603  0.0960
 7015OCT     C214030  23.036   5.353   6.258  0.2817 -0.0347 -0.1099
 7016OCT     C114031   6.329  11.944  11.881 -0.1090 -0.0894 -0.0621
 7016OCT     C214032   6.277  11.759  11.477 -0.1516 -0.2255 -0.0939
 7017OCT     C114033   1.861  12.044   6.993  0.0286  0.1896 -0.2852
 7017OCT     C214034   1.505  12.108   6.774  0.0278 -0.2888  0.0662
 7018OCT     C114035   5.905  22.324   3.093 -0.0760  0.1830 -0.1796
 7018OCT     C214036   6.151  22.266   2.663 -0.0104 -0.2603 -0.0067
 7019OCT     C114037  16.155  20.712   2.415  0.3995  0.1484  0.0438
 7019OCT     C214038  16.281  21.092   2.111 -0.0589  0.0625  0.1431
 7020OCT     C114039  21.527  19.269  20.921 -0.1567  0.2033  0.1975
 7020OCT     C214040  21.095  19.153  20.784 -0.0220  0.0242 -0.0482
 7021OCT     C114041  21.395  22.894   2.193  0.2874 -0.3151 -0.2290
 7021OCT     C214042  21.263  22.775   1.756 -0.0683  0.2945  0.0214
 7022OCT     C114043  15.344  15.275   4.458 -0.1219 -0.2074 -0.0020
 7022OCT     C214044  15.121  15.316   4.036 -0.2650 -0.2762  0.0995
 7023OCT     C114045   7.705   8.284  23.628 -0.0848  0.0075 -0.0591
 7023OCT     C214046   7.232   8.267  23.437 -0.0389  0.2377 -0.2256
 7024OCT     C114047   2.024  22.156  23.406  0.0857  0.2510 -0.1229
 7024OCT     C214048   1.708  21.838  23.212  0.0328 -0.0416 -0.0291
 7025OCT     C114049  15.833   8.444  16.714  0.3137 -0.0310 -0.1545
 7025OCT     C214050  16.296   8.465  16.651  0.0630 -0.0076 -0.2824
 7026OCT     C114051  18.061   4.923  23.301 -0.0726 -0.0897 -0.2926
 7026OCT     C214052  18.482   5.041  23.478 -0.0571 -0.3150 -0.1298
 7027OCT     C114053   0.606  23.208  12.418  0.1184 -0.0079 -0.2150
 7027OCT     C214054   0.907  23.577  12.541  0.4558  0.1598 -0.0779
 7028OCT     C114055   0.403   6.528   1.192 -0.0823 -0.2375 -0.2074
 7028OCT     C214056   0.656   6.269   0.862  0.2325 -0.1151  0.0851
 7029OCT     C114057  17.435   6.220  13.541 -0.0350 -0.0594 -0.1736
 7029OCT     C214058  16.993   6.158  13.653 -0.6943 -0.0654 -0.4393
 7030OCT     C114059   2.241   2.098  14.053  0.2644 -0.4335  0.3248
 7030OCT     C214060   2.678   2.290  14.150  0.4158 -0.1932  0.1268
 7031OCT     C114061  14.086   5.827   6.586 -0.3328 -0.2094 -0.2944
 7031OCT     C214062  13.694   6.061   6.496 -0.0401 -0.2780 -0.1077
 7032OCT     C114063   5.493   5.817  14.351  0.1513 -0.2102  0.3542
 7032OCT     C214064   5.621   5.456  14.053 -0.1511  0.0535 -0.0213
 7033OCT     C114065  15.612   5.360  15.165  0.2393  0.0146  0.0119
 7033OCT     C214066  15.314   5.679  15.311  0.0178  0.2705 -0.2632
 7034OCT     C114067   1.809  20.445  19.314 -0.0225 -0.2272 -0.4961
 7034OCT     C214068   1.434  20.651  19.553 -0.2674 -0.4015  0.3648
 7035OCT     C114069  21.340  14.403   0.616  0.1194 -0.2629  0.1202
 7035OCT     C214070  21.269  14.513   0.164  0.0891 -0.1486 -0.2417
 7036OCT     C114071   8.222  21.974  11.295  0.0150 -0.3555  0.1957
 7036OCT     C214072   8.361  22.415  11.396  0.4172 -0.0498 -0.2635
 7037OCT     C114073   7.139   6.621   3.280  0.0504  0.3133 -0.0375
 7037OCT     C214074   6.965   6.317   2.944 -0.4800 -0.2612  0.2074
 7038OCT     C114075   4.968  13.932  16.823  0.2778 -0.5011  0.2726
 7038OCT     C214076   5.325  14.131  17.035 -0.4391 -0.2630 -0.3698
 7039OCT     C114077   6.818   9.776  19.645  0.2858 -0.1476 -0.1822
 7039OCT     C214078   6.880   9.916  20.104 -0.0818 -0.1053 -0.2313
 7040OCT     C114079   8.558   6.684   1.592 -0.1905 -0.1404  0.0334
 7040OCT     C214080   8.122   6.778   1.646  0.2556  0.6615 -0.0703
 7041OCT     C114081  22.089   7.620  23.199 -0.2721  0.0872  0.0226
 7041OCT     C214082  22.451   7.550  22.851  0.1767 -0.2908  0.3469
 7042OCT     C114083   6.713   1.923  17.626  0.0176  0.6040  0.2412
 7042OCT     C214084   7.048   2.225  17.724  0.3612 -0.0373  0.1476
 7043OCT     C114085   9.201   1.032   5.322 -0.1455  0.3800 -0.1759
 7043OCT     C214086   8.945   0.681   5.480  0.0028  0.4408 -0.0243
 7044OCT     C114087   8.762  22.282   8.747 -0.0796 -0.1494  0.2433
 7044OCT     C214088   8.909  22.502   8.344  0.0832 -0.0469  0.1056
 7045OCT     C114089  10.164   7.289   0.581 -0.2011 -0.0274 -0.0718
 7045OCT     C214090   9.839   6.929   0.677 -0.0586 -0.0600  0.1824
 7046OCT     C114091   1.385   6.506  12.251 -0.1198 -0.0497 -0.2036
 7046OCT     C214092   1.422   6.080  12.080  0.2757  0.0841 -0.4458
 7047OCT     C114093   1.491  14.428  11.075  0.2879 -0.3239 -0.0391
 7047OCT     C214094   1.625  14.844  10.915  0.0600 -0.3635  0.0799
 7048OCT     C114095   9.008  10.308  12.653  0.1737  0.0788 -0.0904
 7048OCT     C214096   8.952  10.058  12.294  0.2192  0.1019  0.0889
 7049OCT     C114097  22.110  19.498  10.914  0.1806 -0.2551 -0.1245
 7049OCT     C214098  22.398  19.831  10.785 -0.0355  0.0654  0.2433
 7050OCT     C114099  12.738   5.010   0.814 -0.2829 -0.0952  0.0636
 7050OCT     C214100  12.640   5.498   0.740 -0.0507  0.4187 -0.0056
 7051OCT     C114101   8.388  15.177  17.944 -0.3135  0.2009 -0.0887
 7051OCT     C214102   8.617  15.287  18.276 -0.3477 -0.1397  0.0265
 7052OCT     C114103   5.197   3.415  15.582  0.0542  0.0173  0.1827
 7052OCT     C214104   5.528   3.472  15.865 -0.2159 -0.0181  0.2731
 7053OCT     C114105   6.780  10.539  21.263 -0.1394 -0.3116 -0.4062
 7053OCT     C214106   6.743  10.972  21.052 -0.2271  0.2734 -0.2729
 7054OCT     C114107   9.372  23.466   5.172 -0.1361  0.2445 -0.0696
 7054OCT     C214108   9.573  23.066   4.979 -0.0846  0.2737  0.2657
 7055OCT     C114109  23.599   0.182  21.568 -0.0875 -0.3558 -0.2579
 7055OCT     C214110  23.400   0.576  21.508  0.2001 -0.0639 -0.0011
 7056OCT     C114111  14.288   0.319   8.057  0.1354  0.3501  0.3104
 7056OCT     C214112  14.703   0.521   8.205  0.1057 -0.1372  0.1761
 7057OCT     C114113  22.073  15.777  20.611  0.0524 -0.0644 -0.2121
 7057OCT     C214114  21.896  16.050  20.266 -0.0593 -0.1273  0.0950
 7058OCT     C114115  11.795  19.627   3.342  0.0004  0.1535  0.3818
 7058OCT     C214116  12.223  19.671   3.537 -0.2040 -0.1035 -0.0742
 7059OCT     C114117  17.576   9.029  10.183  0.2375  0.0637 -0.2738
 7059OCT     C214118  17.862   9.349  10.250  0.2806  0.4947 -0.3811
 7060OCT     C114119   4.216  15.524   4.400  0.3010  0.0542 -0.0247
 7060OCT     C214120   4.631  15.729   4.374 -0.3113 -0.1585 -0.0158
 7061OCT     C114121  13.266   4.707   7.190  0.0272  0.2598  0.2442
 7061OCT     C214122  13.574   5.014   7.243 -0.0660  0.1143  0.2594
 7062OCT     C114123   1.803   4.151  14.144  0.0205 -0.4063 -0.0377
 7062OCT     C214124   1.848   3.786  13.911  0.0435  0.1362 -0.3091
 7063OCT     C114125  12.039  18.698  13.546  0.0842 -0.3864  0.0647
 7063OCT     C214126  11.629  18.500  13.444 -0.3890  0.0843 -0.2742
 7064OCT     C114127   2.239   8.396   5.474 -0.0954 -0.1401  0.4837
 7064OCT     C214128   2.482   8.699   5.652  0.1987  0.3545  0.0453
 7065OCT     C114129   7.702  21.078   0.631  0.0853 -0.1814  0.2180
 7065OCT     C214130   7.469  21.384   0.814 -0.1791  0.1891 -0.1955
 7066OCT     C114131   9.912   7.762   7.688 -0.1059  0.0038  0.0140
 7066OCT     C214132   9.680   7.466   7.968  0.1038 -0.0675  0.0610
 7067OCT     C114133   6.964  21.693   3.929  0.4966 -0.0480 -0.1112
 7067OCT     C214134   6.499  21.586   4.018 -0.0744 -0.0120  0.1743
 7068OCT     C114135  10.997   6.117   5.652  0.0038 -0.1590  0.3344
 7068OCT     C214136  11.215   6.213   5.162 -0.2329  0.1567  0.0701
 7069OCT     C114137  12.226   4.684  22.692  0.2572  0.1678 -0.1665
 7069OCT     C214138  11.981   4.936  22.926 -0.0250 -0.1962  0.1451
 7070OCT     C114139  21.434  14.387   7.785 -0.0608  0.0733  0.0515
 7070OCT     C214140  21.060  14.385   7.544  0.0629 -0.1204 -0.4021
 7071OCT     C114141  15.654  16.684   7.450  0.4020 -0.4462  0.2569
 7071OCT     C214142  15.163  16.796   7.522  0.1300 -0.0710 -0.2173
 7072OCT     C114143   5.237  22.956  14.481 -0.1731  0.1323  0.0438
 7072OCT     C214144   5.382  22.556  14.235  0.4425 -0.0009 -0.1937
 7073OCT     C114145  15.348  18.610  11.129 -0.1067 -0.2118  0.1954
 7073OCT     C214146  15.179  18.946  11.362  0.1778  0.1345  0.2116
 7074OCT     C114147  12.096   8.234  22.218 -0.2570  0.2344 -0.1259
 7074OCT     C214148  12.498   8.452  22.045 -0.1242 -0.1202 -0.1330
 7075OCT     C114149   1.584  10.124  19.245 -0.2582  0.2587 -0.4271
 7075OCT     C214150   1.646  10.498  19.496  0.0922 -0.0346  0.3117
 7076OCT     C114151  16.547  10.297   3.571  0.1644 -0.2147  0.3886
 7076OCT     C214152  16.458  10.609   3.202  0.1228 -0.1769 -0.1291
 7077OCT     C114153   9.308   7.399   3.700  0.1670  0.3475 -0.0966
 7077OCT     C214154   8.931   7.477   3.975  0.2168  0.1318  0.0204
 7078OCT     C114155   3.840   4.123   3.644  0.2331  0.1301 -0.1074
 7078OCT     C214156   3.840   4.106   3.121 -0.0868 -0.1407 -0.0080
 7079OCT     C114157  22.324  17.142  17.350 -0.4430 -0.3892 -0.2238
 7079OCT     C214158  22.534  16.749  17.481 -0.1146  0.0186  0.1573
 7080OCT     C114159   4.022   2.146  21.521 -0.2679 -0.3766  0.1608
 7080OCT     C214160   4.310   1.959  21.814  0.4174 -0.1139 -0.1203
 7081OCT     C114161   8.950  14.554  18.841  0.1356 -0.0911 -0.2969
 7081OCT     C214162   9.214  14.252  18.715  0.3017 -0.2591  0.0349
 7082OCT     C114163  21.610  17.746  22.781 -0.2373 -0.0677 -0.0186
 7082OCT     C214164  21.829  17.337  22.720  0.2294  0.1732 -0.2208
 7083OCT     C114165  17.689  18.562   2.397  0.1524 -0.1859  0.0360
 7083OCT     C214166  17.553  18.198   2.589  0.0335 -0.1222  0.0582
 7084OCT     C114167  12.147  21.086  20.854 -0.0234 -0.3475  0.1726
 7084OCT     C214168  12.409  20.911  20.455 -0.1211  0.1400 -0.2765
 7085OCT     C114169   0.661  13.774  13.198  0.0404  0.0188  0.3503
 7085OCT     C214170   1.091  13.664  13.168  0.1255  0.3632  0.1504
 7086OCT     C114171   2.327  10.223  12.751 -0.0048  0.1076  0.1182
 7086OCT     C214172   2.431  10.245  13.239 -0.1429  0.1795 -0.1294
 7087OCT     C114173   6.653  23.519   1.887 -0.3358  0.0086  0.1440
 7087OCT     C214174   6.607  23.700   1.451  0.1383 -0.1917 -0.0529
 7088OCT     C114175   0.074  14.408  13.120 -0.0922  0.1498  0.0976
 7088OCT     C214176  23.410  14.533  13.233  0.0375 -0.3176 -0.1030
 7089OCT     C114177  22.544  23.161  10.742  0.2190 -0.2428  0.5999
 7089OCT     C214178  22.591  23.066  10.278  0.0709 -0.1933  0.2816
 7090OCT     C114179  20.707   9.366   6.413  0.1503 -0.0612  0.3543
 7090OCT     C214180  21.067   9.378   6.122  0.2992  0.1837  0.0567
 7091OCT     C114181  15.306   1.500   4.500  0.1594 -0.0188 -0.3931
 7091OCT     C214182  15.106   1.699   4.098  0.0380  0.0501 -0.0182
 7092OCT     C114183   9.495   6.006  20.748  0.0878 -0.3907  0.1338
 7092OCT     C214184   9.656   6.453  20.786 -0.2089 -0.1774  0.1787
 7093OCT     C114185   0.249   6.516  12.727 -0.1853 -0.3137 -0.2304
 7093OCT     C214186   0.434   6.290  13.050  0.0420  0.1484  0.0766
 7094OCT     C114187  14.643   0.140   2.272 -0.3887 -0.1978 -0.0170
 7094OCT     C214188  14.272   0.076   2.035 -0.0686  0.3571  0.4891
 7095OCT     C114189  10.918   3.671  10.728  0.2943  0.0492  0.0299
 7095OCT     C214190  11.104   3.928  10.441 -0.3175 -0.1901 -0.2282
 7096OCT     C114191  15.034  12.393   7.928  0.1753  0.0080  0.2466
 7096OCT     C214192  15.543  12.239   7.808  0.2324  0.1464  0.0990
 7097OCT     C114193   8.222  22.546  14.903  0.1339  0.2244 -0.0263
 7097OCT     C214194   8.209  22.995  14.956 -0.1220  0.0888 -0.1046
 7098OCT     C114195  18.180   5.315   2.314 -0.1604 -0.0139  0.1135
 7098OCT     C214196  17.729   5.179   2.331 -0.1840  0.0215 -0.1168
 7099OCT     C114197   8.431   7.505   4.035 -0.3950 -0.0037  0.3788
 7099OCT     C214198   8.535   7.503   3.575 -0.0658  0.1894 -0.2129
 7100OCT     C114199   1.883  21.281   6.760 -0.1667 -0.0321 -0.1063
 7100OCT     C214200   2.158  20.872   6.842 -0.0080 -0.2029 -0.1525
 7101OCT     C114201   4.729  12.967  11.394  0.4467  0.1012 -0.0848
 7101OCT     C214202   4.472  12.589  11.289  0.1546 -0.1379 -0.2035
 7102OCT     C114203   6.959  20.873   6.823  0.1526 -0.0852 -0.1166
 7102OCT     C214204   6.693  21.205   7.087  0.2422  0.1062  0.1647
 7103OCT     C114205   8.910   0.554  18.497 -0.2661 -0.0188 -0.1098
 7103OCT     C214206   8.761   0.423  18.871  0.0663  0.1784  0.0022
 7104OCT     C114207  18.007  20.463  13.842  0.2764 -0.1077  0.1074
 7104OCT     C214208  17.905  20.621  13.458  0.0534  0.4490  0.0082
 7105OCT     C114209  10.948  22.701   1.805  0.1460 -0.2520  0.3247
 7105OCT     C214210  10.721  22.767   2.136  0.0252  0.0464 -0.2268
 7106OCT     C114211  23.518  19.184  17.328  0.1271 -0.0920  0.0355
 7106OCT     C214212  23.238  19.024  17.008 -0.0645 -0.1096  0.5182
 7107OCT     C114213  12.966  14.259   5.794  0.0126 -0.2265  0.0881
 7107OCT     C214214  13.250  14.102   5.485  0.2351 -0.0409  0.4565
 7108OCT     C114215   4.649   2.766   2.955  0.4019 -0.3858  0.2412
 7108OCT     C214216   4.628   3.176   2.832  0.1853 -0.2075 -0.1810
 7109OCT     C114217   5.288  16.447  21.871 -0.0308 -0.0440  0.1615
 7109OCT     C214218   5.428  16.319  21.475 -0.0701  0.0081 -0.5638
 7110OCT     C114219  21.270   6.931  10.222 -0.0107 -0.0133 -0.1197
 7110OCT     C214220  21.710   7.094  10.146  0.1602 -0.2403  0.2399
 7111OCT     C114221   8.957  12.850   0.123 -0.3098 -0.2572  0.1283
 7111OCT     C214222   9.293  12.826  23.582  0.0806 -0.1331  0.0492
 7112OCT     C114223  18.501   5.411  10.992 -0.0605 -0.3559  0.0044
 7112OCT     C214224  18.836   5.172  11.119 -0.1366 -0.0424 -0.0704
 7113OCT     C114225  19.933  19.576   4.877 -0.4701  0.2669  0.1453
 7113OCT     C214226  20.150  19.446   4.465  0.0877  0.0997 -0.1385
 7114OCT     C114227  21.560  16.309  16.433 -0.1556 -0.1881 -0.1935
 7114OCT     C214228  21.117  16.083  16.548  0.0293  0.0435  0.0724
 7115OCT     C114229   8.173   2.912  14.600 -0.3757 -0.1698  0.0966
 7115OCT     C214230   8.375   3.352  14.688 -0.1407  0.0343  0.0397
 7116OCT     C114231   1.173   4.264  12.362 -0.2371  0.1138  0.3743
 7116OCT     C214232   1.544   4.410  12.109  0.1640  0.3279  0.1458
 7117OCT     C114233   5.823   7.173  22.786 -0.2235 -0.3023 -0.0047
 7117OCT     C214234   5.450   6.944  22.680 -0.4162  0.2139  0.0545
 7118OCT     C114235   2.308   0.976  19.586 -0.3213 -0.0552  0.2847
 7118OCT     C214236   2.300   1.064  20.057 -0.1899  0.1230  0.0040
 7119OCT     C114237  17.359  21.818  12.979 -0.0865 -0.4032 -0.2330
 7119OCT     C214238  17.211  21.941  13.415  0.2946 -0.0683 -0.1647
 7120OCT     C114239  16.023   1.286  17.794  0.0636  0.4726  0.3873
 7120OCT     C214240  15.920   0.912  18.116 -0.2340  0.2269  0.1106
 7121OCT     C114241  20.175  13.844   0.779 -0.1719  0.1247  0.0664
 7121OCT     C214242  20.059  14.316   0.863  0.2410  0.0636 -0.1778
 7122OCT     C114243   6.228   5.110   9.639 -0.4981  0.1169  0.0081
 7122OCT     C214244   6.603   4.895   9.785  0.0463 -0.3843 -0.2233
 7123OCT     C114245   1.767   3.697  20.541 -0.1978 -0.0749  0.1540
 7123OCT     C214246   1.576   3.984  20.911  0.0061  0.0187 -0.1945
 7124OCT     C114247  10.844  13.776  20.569  0.3446 -0.2764 -0.5340
 7124OCT     C214248  11.093  14.172  20.490  0.2208  0.1363 -0.2147
 7125OCT     C114249   1.715  14.848  23.626 -0.2128  0.1049  0.2608
 7125OCT     C214250   2.008  15.140  23.371 -0.0383  0.2841 -0.3199
 7126OCT     C114251  14.908   3.717  20.358  0.0693 -0.3013  0.0222
 7126OCT     C214252  14.871   3.646  19.902 -0.1713  0.0331 -0.1293
 7127OCT     C114253  10.185   5.020  11.797  0.1451  0.2678 -0.1379
 7127OCT     C214254  10.320   5.423  11.610  0.0263 -0.1315  0.0608
 7128OCT     C114255  19.835  14.250   5.510  0.0576 -0.0176 -0.2727
 7128OCT     C214256  19.841  14.429   5.036  0.3139 -0.1906 -0.0330
 7129OCT     C114257   3.799  12.300  17.042 -0.1203 -0.0600 -0.4037
 7129OCT     C214258   4.139  12.292  16.762 -0.0487  0.0668 -0.1129
 7130OCT     C114259   2.595  17.770  10.531 -0.2225 -0.5508  0.0687
 7130OCT     C214260   2.737  18.271  10.584 -0.1062  0.0558  0.3785
 7131OCT     C114261   0.043  23.001  11.070 -0.1991 -0.1948  0.1443
 7131OCT     C214262  23.614  22.652  11.359  0.1229 -0.0512 -0.0713
 7132OCT     C114263  23.093  20.917   0.702 -0.0045  0.1170 -0.0539
 7132OCT     C214264  23.036  20.442   0.878  0.0201  0.0655  0.0920
 7133OCT     C114265  17.505   8.038   1.525  0.2699 -0.0370 -0.1285
 7133OCT     C214266  17.936   8.145   1.660 -0.1765  0.0077 -0.4806
 7134OCT     C114267   7.537  12.027  17.076 -0.3443 -0.3913  0.1956
 7134OCT     C214268   7.844  11.758  17.216 -0.0213 -0.0968  0.0203
 7135OCT     C114269  18.217   9.995   2.843  0.3429 -0.1670 -0.2963
 7135OCT     C214270  17.730  10.031   2.802  0.0831 -0.5135  0.0417
 7136OCT     C114271   7.737   7.571   3.396  0.0782 -0.1311 -0.2244
 7136OCT     C214272   8.051   7.252   3.362 -0.2000  0.1669  0.1615
 7137OCT     C114273  11.206  13.289  10.996 -0.0586 -0.0571 -0.0906
 7137OCT     C214274  11.472  13.122  10.618  0.2390 -0.3752 -0.0248
 7138OCT     C114275   2.521  22.188  17.342  0.0930 -0.0287  0.2486
 7138OCT     C214276   2.893  22.194  17.063 -0.5091  0.2458 -0.3366
 7139OCT     C114277  12.343  16.260   8.371  0.0745 -0.1386 -0.0911
 7139OCT     C214278  12.005  16.518   8.115  0.3017  0.2044 -0.2281
 7140OCT     C114279  21.134  11.636   8.579  0.1442  0.4200 -0.2022
 7140OCT     C214280  21.561  11.770   8.730 -0.2227  0.3076  0.3098
 7141OCT     C114281   7.379  10.171  12.889  0.2085 -0.1295 -0.2349
 7141OCT     C214282   6.943  10.204  13.036 -0.0451 -0.0203  0.0810
 7142OCT     C114283  15.019   0.685  19.070 -0.0417  0.0435 -0.2139
 7142OCT     C214284  15.278   0.289  19.013  0.0174  0.1270  0.3829
 7143OCT     C114285  13.268   2.024  10.996  0.0511  0.3165  0.0358
 7143OCT     C214286  13.044   1.777  10.664  0.2665  0.1359 -0.0450
 7144OCT     C114287  17.857   3.628  17.121 -0.4831  0.3061  0.4154
 7144OCT     C214288  18.139   4.000  17.006 -0.2460 -0.2445 -0.0201
 7145OCT     C114289   0.167   8.541  17.901  0.0054  0.1979 -0.0358
 7145OCT     C214290   0.259   8.117  18.080  0.2111 -0.1983 -0.2119
 7146OCT     C114291  20.080  13.390  11.068  0.0614  0.1087 -0.3404
 7146OCT     C214292  19.961  12.921  11.187 -0.0232  0.1994  0.0064
 7147OCT     C114293  10.894  13.119  15.230  0.3348 -0.3336  0.1347
 7147OCT     C214294  10.527  13.113  15.513  0.3263  0.0260 -0.0543
 7148OCT     C114295  12.858   8.033   2.773 -0.2093 -0.1748 -0.0477
 7148OCT     C214296  12.445   7.829   2.873 -0.1620 -0.0771  0.0412
 7149OCT     C114297  11.830   7.632   7.064 -0.0547  0.6494  0.1883
 7149OCT     C214298  11.793   7.410   7.497 -0.0597 -0.0661 -0.3537
 7150OCT     C114299  11.522   8.334  11.776  0.0293 -0.3170 -0.1568
 7150OCT     C214300  11.848   8.119  12.075 -0.0109 -0.3836  0.3031
 7151OCT     C114301  13.989   8.730   3.422  0.1107  0.1405  0.0989
 7151OCT     C214302  13.800   9.142   3.375 -0.4303 -0.0274 -0.1349
 7152OCT     C114303  10.707   8.807  18.723  0.2408 -0.0721  0.0079
 7152OCT     C214304  11.002   8.985  19.014 -0.2866  0.0189  0.2737
 7153OCT     C114305  21.287  16.046  20.423  0.5653 -0.1007  0.0910
 7153OCT     C214306  21.045  16.287  20.720 -0.1724  0.2624 -0.1911
 7154OCT     C114307  11.496  21.038   8.852 -0.2570  0.0983 -0.2957
 7154OCT     C214308  11.689  21.419   9.013 -0.0521  0.0047 -0.4219
 7155OCT     C114309   3.485  17.035  18.299  0.2766  0.0866 -0.1005
 7155OCT     C214310   3.588  17.167  17.838  0.2159 -0.1475  0.0443
 7156OCT     C114311   4.963   5.209   1.121  0.1640  0.1074  0.1560
 7156OCT     C214312   5.138   4.775   1.198 -0.0724  0.3029  0.2161
 7157OCT     C114313  18.456  14.626  12.566  0.2691 -0.0588  0.0062
 7157OCT     C214314  18.787  14.646  12.252  0.2254  0.2077  0.1186
 7158OCT     C114315   3.225   2.891  11.593  0.0357 -0.1185  0.1320
 7158OCT     C214316   3.499   3.214  11.736 -0.0920  0.2529  0.0119
 7159OCT     C114317  13.848  16.099   9.884 -0.1000  0.3714  0.1070
 7159OCT     C214318  14.201  15.796   9.954  0.1614  0.5232  0.2165
 7160OCT     C114319  19.217  22.389  11.138  0.0439  0.3019 -0.1650
 7160OCT     C214320  19.130  22.588  11.515 -0.1747 -0.2698 -0.3641
 7161OCT     C114321  23.217  11.578   6.726 -0.0221 -0.1922 -0.1648
 7161OCT     C214322  22.857  11.418   6.533 -0.3881 -0.1586 -0.0904
 7162OCT     C114323  17.152  21.710   2.855 -0.0376  0.1660 -0.1412
 7162OCT     C214324  17.474  21.672   3.213 -0.0844 -0.0906  0.3254
 7163OCT     C114325  12.504  21.922  16.388  0.2636 -0.2074  0.2052
 7163OCT     C214326  12.877  22.156  16.560 -0.1526  0.0990  0.1184
 7164OCT     C114327   4.759  21.247  23.627  0.1188 -0.0733  0.1683
 7164OCT     C214328   5.053  20.924   0.117 -0.4268  0.1088  0.1574
 7165OCT     C114329  21.495  18.980   1.526 -0.0262  0.3644  0.0464
 7165OCT     C214330  21.240  18.604   1.382  0.3224  0.2873  0.0266
 7166OCT     C114331   7.143   1.973  22.391  0.1271  0.0939  0.1807
 7166OCT     C214332   7.153   2.363  22.314 -0.0060  0.1588 -0.0307
 7167OCT     C114333  13.314   6.262  12.300 -0.0436 -0.2238 -0.1509
 7167OCT     C214334  13.064   6.606  12.006  0.0472  0.1807 -0.1389
 7168OCT     C114335  10.194   7.078  12.478 -0.4046  0.1424 -0.1576
 7168OCT     C214336  10.261   7.373  12.854  0.1751 -0.0481  0.1003
 7169OCT     C114337   4.704  10.393  22.868 -0.0430 -0.2020  0.0525
 7169OCT     C214338   5.118  10.394  23.109  0.1129  0.2223 -0.1675
 7170OCT     C114339  12.479  18.611   1.101  0.1781  0.2129 -0.1223
 7170OCT     C214340  12.864  18.472   1.309  0.2451  0.3066  0.1662
 7171OCT     C114341  19.370   8.138  21.770 -0.4627  0.3612  0.1331
 7171OCT     C214342  19.140   8.294  22.128  0.0890 -0.2383 -0.4155
 7172OCT     C114343   4.611  16.940  13.426  0.1945 -0.3141  0.2472
 7172OCT     C214344   5.070  16.923  13.557  0.0764 -0.3147 -0.2597
 7173OCT     C114345  13.801   7.817  15.282  0.2886  0.3264 -0.3014
 7173OCT     C214346  14.107   7.442  15.354  0.3865 -0.0639  0.0337
 7174OCT     C114347   5.640   3.343   4.771 -0.1845  0.0136 -0.0380
 7174OCT     C214348   5.639   3.753   4.695  0.0418 -0.2799  0.1141
 7175OCT     C114349   1.584   0.910  11.057 -0.2681 -0.0953  0.1589
 7175OCT     C214350   1.429   1.174  10.699 -0.0119 -0.0050 -0.2097
 7176OCT     C114351   0.129  21.063   4.865  0.1502 -0.0631 -0.1186
 7176OCT     C214352   0.309  20.579   4.863 -0.0311 -0.3669 -0.2779
 7177OCT     C114353   1.344  17.772  17.589  0.3041 -0.0648 -0.3068
 7177OCT     C214354   1.219  18.067  17.259 -0.0490  0.3587  0.3263
 7178OCT     C114355  15.215  12.377  21.789  0.2002 -0.1617 -0.0071
 7178OCT     C214356  15.549  12.677  21.900  0.0557 -0.2368 -0.0735
 7179OCT     C114357   0.948   0.727  22.558 -0.0412 -0.1359  0.1672
 7179OCT     C214358   0.547   0.947  22.406 -0.4888  0.2667  0.2413
 7180OCT     C114359  11.940  12.636   4.049 -0.0946  0.1096 -0.0289
 7180OCT     C214360  11.513  12.683   4.188 -0.0211  0.1449  0.0006
 7181OCT     C114361  19.826  16.380  15.795  0.1013  0.0094 -0.1055
 7181OCT     C214362  19.636  16.092  15.449  0.2473  0.1925  0.2268
 7182OCT     C114363  16.640  21.567  16.914  0.2831 -0.1091 -0.3608
 7182OCT     C214364  16.400  21.716  16.524 -0.1664  0.4880  0.0107
 7183OCT     C114365   3.852  15.040  23.336  0.0803 -0.1468 -0.0048
 7183OCT     C214366   4.213  14.985  23.034 -0.0066 -0.0185 -0.2941
 7184OCT     C114367  17.403  16.073   6.411 -0.0529 -0.0525  0.1805
 7184OCT     C214368  17.281  15.760   6.766 -0.2617 -0.0492 -0.0094
 7185OCT     C114369   3.059   9.477   8.624  0.3278 -0.3465  0.0202
 7185OCT     C214370   2.643   9.255   8.684 -0.1624  0.3885  0.0655
 7186OCT     C114371  23.023  19.725   6.510 -0.0130  0.0089 -0.3188
 7186OCT     C214372  23.192  19.790   6.139  0.2947  0.1139  0.2976
 7187OCT     C114373   0.816  10.916  13.325 -0.0248  0.2463 -0.0020
 7187OCT     C214374   0.740  10.730  13.736 -0.1490 -0.0827 -0.1125
 7188OCT     C114375   2.506  19.419   0.121  0.2472 -0.1119  0.1188
 7188OCT     C214376   2.154  19.243   0.367 -0.0769 -0.3520  0.0911
 7189OCT     C114377   8.323  20.030  22.711  0.2839 -0.0323  0.1091
 7189OCT     C214378   8.253  20.430  22.505 -0.0318  0.3528 -0.2298
 7190OCT     C114379   1.313  12.323  10.709  0.0789  0.1768  0.2636
 7190OCT     C214380   1.808  12.414  10.683 -0.0221  0.0467 -0.2920
 7191OCT     C114381  12.814  13.562   9.382  0.2236  0.0925 -0.3244
 7191OCT     C214382  12.685  13.531   8.946 -0.1076 -0.1003 -0.0786
 7192OCT     C114383  12.768  23.057   2.679 -0.0058 -0.1811  0.1768
 7192OCT     C214384  13.008  23.098   2.287  0.4073  0.3468  0.2152
 7193OCT     C114385  16.553  13.057  11.865  0.0800  0.1600  0.2997
 7193OCT     C214386  16.979  13.086  12.073  0.0999  0.4270  0.1459
 7194OCT     C114387  11.941  17.867  10.770  0.2367 -0.0588 -0.0588
 7194OCT     C214388  11.510  17.974  10.600  0.0505 -0.0210 -0.0786
 7195OCT     C114389   0.507  18.069  19.055  0.2426  0.0987  0.0284
 7195OCT     C214390   0.795  18.143  18.681  0.1047  0.4730  0.0782
 7196OCT     C114391   4.191  11.612  11.806  0.0017  0.0237  0.0581
 7196OCT     C214392   4.040  12.079  11.683  0.0782 -0.2536 -0.1765
 7197OCT     C114393   7.416  20.019   9.735  0.2706  0.0191 -0.0640
 7197OCT     C214394   7.678  19.694   9.959  0.6789  0.1663 -0.2904
 7198OCT     C114395  15.230  18.091   6.318  0.1586  0.0132 -0.1733
 7198OCT     C214396  15.349  18.515   6.160  0.1327 -0.1468  0.1905
 7199OCT     C114397   8.385  16.361  19.383  0.0231  0.0953 -0.2825
 7199OCT     C214398   8.155  15.988  19.608  0.1004  0.1741  0.3147
 7200OCT     C114399  14.563  23.255   1.398  0.3112  0.1475  0.0285
 7200OCT     C214400  14.405  23.663   1.291  0.2961 -0.1590 -0.5972
 7201OCT     C114401   5.293  21.396  12.703  0.2746  0.0648  0.1332
 7201OCT     C214402   5.551  21.452  13.088 -0.1636 -0.3200  0.2302
 7202OCT     C114403  15.504   0.621  10.498  0.0385 -0.1503 -0.1791
 7202OCT     C214404  15.060   0.449  10.464 -0.1082  0.2447  0.0108
 7203OCT     C114405   6.079  10.010  18.137 -0.2009 -0.2648 -0.3671
 7203OCT     C214406   6.385  10.298  18.218 -0.1114  0.1745 -0.0840
 7204OCT     C114407   2.288  20.930  23.001 -0.0277 -0.2613  0.1457
 7204OCT     C214408   2.546  21.268  22.756  0.1242 -0.1610  0.0292
 7205OCT     C114409  19.281   8.188   4.117 -0.0212 -0.1949 -0.2788
 7205OCT     C214410  19.359   7.848   4.388  0.3884 -0.1540  0.4365
 7206OCT     C114411  10.412   1.642  19.352  0.2478  0.4828  0.1339
 7206OCT     C214412  10.044   1.870  19.197 -0.2900  0.1730  0.0802
 7207OCT     C114413   2.372   5.548   1.757  0.1548  0.0479  0.1257
 7207OCT     C214414   2.022   5.241   1.791  0.1219 -0.1025  0.0594
 7208OCT     C114415   6.026  17.184  22.879 -0.2609 -0.1542  0.0305
 7208OCT     C214416   5.981  17.133  22.372 -0.2026  0.2184 -0.1539
 7209OCT     C114417  19.751  12.209   7.407  0.2283 -0.1873  0.4331
 7209OCT     C214418  19.987  11.857   7.275 -0.0994 -0.1611  0.1253
 7210OCT     C114419  13.446   0.088   9.385  0.1227 -0.2231 -0.1827
 7210OCT     C214420  13.188   0.357   9.109  0.0220  0.1026 -0.0333
 7211OCT     C114421  14.949   8.725   7.545 -0.1401  0.1394 -0.0491
 7211OCT     C214422  14.498   8.786   7.515  0.0535  0.0605 -0.2112
 7212OCT     C114423  10.185  12.899  21.749 -0.1450  0.0891  0.0512
 7212OCT     C214424  10.570  13.080  21.950  0.2838 -0.0188 -0.1200
 7213OCT     C114425   0.548  22.338  18.851  0.0734  0.0960  0.2602
 7213OCT     C214426   0.369  21.962  18.975 -0.0464 -0.2005  0.1355
 7214OCT     C114427   0.106  19.765  19.271  0.4352  0.2659 -0.1360
 7214OCT     C214428   0.434  19.704  18.914  0.0221  0.2528  0.2508
 7215OCT     C114429   8.703  15.265  11.694  0.1257 -0.0413 -0.2816
 7215OCT     C214430   8.293  15.142  11.437  0.1264  0.4402 -0.0010
 7216OCT     C114431   8.259   2.895   0.120  0.0573 -0.3400 -0.0059
 7216OCT     C214432   8.516   3.144   0.353 -0.0962  0.1988 -0.1975
 7217OCT     C114433   7.124  14.077   1.889  0.5557  0.0326  0.0741
 7217OCT     C214434   6.680  14.018   2.054  0.5121 -0.0224 -0.0293
 7218OCT     C114435  21.867  18.837  19.025  0.2011 -0.3503 -0.0901
 7218OCT     C214436  22.111  18.533  19.210 -0.0787 -0.1761 -0.2943
 7219OCT     C114437  14.021  18.778  10.664  0.0455  0.3803 -0.2853
 7219OCT     C214438  14.024  18.449  10.319  0.1605  0.3222 -0.4651
 7220OCT     C114439  12.670   1.823  19.414 -0.0150  0.3130 -0.1366
 7220OCT     C214440  12.230   1.630  19.466 -0.1498  0.1146  0.1018
 7221OCT     C114441  16.733  11.326  11.000 -0.1421 -0.0840  0.0688
 7221OCT     C214442  17.208  11.181  11.019  0.0899  0.1466 -0.4168
 7222OCT     C114443   5.637  18.507  22.354 -0.3294 -0.0013 -0.2946
 7222OCT     C214444   5.929  18.230  22.260  0.1296 -0.0720  0.0475
 7223OCT     C114445   4.485  14.177  14.347  0.3911 -0.2816 -0.0652
 7223OCT     C214446   4.438  13.715  14.192 -0.1137 -0.2812  0.1049
 7224OCT     C114447   6.078  12.218  13.624  0.0050 -0.0940  0.2428
 7224OCT     C214448   6.326  12.296  13.999 -0.1167 -0.1221  0.3412
 7225OCT     C114449   9.788   5.018  14.126  0.1325 -0.0012 -0.1441
 7225OCT     C214450   9.893   5.471  14.094  0.0099 -0.0569  0.0598
 7226OCT     C114451  23.290  11.452  18.820 -0.2111 -0.3240  0.0056
 7226OCT     C214452  22.840  11.392  18.872 -0.0451  0.1852  0.3104
 7227OCT     C114453  12.930  17.189   8.880  0.2783  0.1055 -0.0961
 7227OCT     C214454  13.204  16.857   9.070 -0.2683  0.0866  0.0488
 7228OCT     C114455  15.044   7.480   2.168  0.0382 -0.1106  0.2267
 7228OCT     C214456  15.089   7.583   2.625 -0.4820  0.0980  0.1091
 7229OCT     C114457  22.535  15.761   6.739 -0.1270 -0.4553 -0.0590
 7229OCT     C214458  22.272  15.603   6.423 -0.0392  0.3493 -0.1340
 7230OCT     C114459  21.021   4.312   5.050  0.0287 -0.0919  0.0106
 7230OCT     C214460  21.397   4.574   4.877  0.0160 -0.2502 -0.0630
 7231OCT     C114461   2.647   3.329   9.123 -0.2134 -0.1215 -0.2096
 7231OCT     C214462   2.474   3.312   9.594  0.0156 -0.1389  0.1726
 7232OCT     C114463   6.008  14.764  11.872 -0.3700  0.1159  0.0190
 7232OCT     C214464   5.721  15.054  11.608  0.0385  0.3108 -0.0467
 7233OCT     C114465   3.080  12.911   3.159 -0.0530  0.1404  0.3974
 7233OCT     C214466   3.216  12.657   2.754  0.1924 -0.1321  0.0759
 7234OCT     C114467  23.649  15.635  16.961 -0.0542  0.3389  0.1761
 7234OCT     C214468  23.480  15.226  16.892 -0.2330  0.0792 -0.1673
 7235OCT     C114469  23.236   9.327   9.561 -0.3620  0.2277  0.1089
 7235OCT     C214470  22.860   9.110   9.553  0.2810  0.1557  0.4510
 7236OCT     C114471   0.697  19.896  10.403  0.1941 -0.1676  0.3886
 7236OCT     C214472   0.895  19.887   9.975  0.1084 -0.1606  0.0819
 7237OCT     C114473  17.452  15.086  17.298 -0.1721 -0.0426 -0.0385
 7237OCT     C214474  17.911  15.033  17.212  0.3743  0.1319 -0.0223
 7238OCT     C114475   6.906  20.469  10.543  0.0110 -0.3706 -0.0276
 7238OCT     C214476   6.455  20.534  10.518 -0.2385  0.2505 -0.1163
 7239OCT     C114477   9.209  11.758   9.526 -0.6238 -0.1474  0.1923
 7239OCT     C214478   9.369  11.348   9.714 -0.4090  0.2088  0.1142
 7240OCT     C114479   2.153   7.774   9.227  0.1242 -0.1088 -0.1917
 7240OCT     C214480   2.619   7.658   9.150  0.3901 -0.0292  0.3812
 7241OCT     C114481   9.354  22.565  11.587 -0.0684  0.2311  0.2415
 7241OCT     C214482   9.429  23.011  11.683  0.0983  0.1105 -0.1024
 7242OCT     C114483   5.737   6.207  11.128 -0.1777  0.3437 -0.1063
 7242OCT     C214484   5.966   6.347  11.486 -0.0288  0.1038  0.3670
 7243OCT     C114485  19.090  20.273  20.713 -0.0341  0.3886 -0.2514
 7243OCT     C214486  19.509  20.027  20.715 -0.0401 -0.1311 -0.0541
 7244OCT     C114487  21.875  15.410  11.684 -0.0410  0.4035  0.0769
 7244OCT     C214488  22.018  15.753  11.418  0.0425 -0.1360 -0.2167
 7245OCT     C114489   0.299   9.885   6.831  0.2131 -0.0421  0.1416
 7245OCT     C214490   0.522   9.545   6.566  0.2637  0.4181 -0.0642
 7246OCT     C114491   9.086   1.301  14.250 -0.0719 -0.2480 -0.6025
 7246OCT     C214492   9.362   0.965  14.273 -0.3787  0.0560  0.2010
 7247OCT     C114493  22.684  15.677  11.112 -0.0783 -0.0346  0.0531
 7247OCT     C214494  23.084  15.944  10.917  0.2894  0.1432 -0.1424
 7248OCT     C114495   1.500   1.481   5.948 -0.1093  0.0504 -0.0331
 7248OCT     C214496   1.544   1.902   6.112 -0.0297 -0.0600  0.0018
 7249OCT     C114497  20.326  16.740  11.953 -0.2464  0.0198  0.2017
 7249OCT     C214498  20.761  16.723  11.792 -0.1981 -0.0787 -0.0068
 7250OCT     C114499  15.470  10.903   8.060 -0.1141  0.2187  0.0926
 7250OCT     C214500  15.826  10.669   8.255 -0.0408 -0.1289 -0.0119
 7251OCT     C114501  17.944   3.736  14.841  0.0809  0.2474  0.0390
 7251OCT     C214502  17.810   3.916  14.452 -0.2161  0.1827 -0.3629
 7252OCT     C114503  11.114   9.698  11.846  0.1534  0.2247  0.1062
 7252OCT     C214504  11.516   9.499  11.725 -0.3536  0.1299  0.0981
 7253OCT     C114505  15.074  11.432   2.379 -0.0835 -0.0047  0.1829
 7253OCT     C214506  14.721  11.470   2.696 -0.1791  0.0909  0.0125
 7254OCT     C114507  19.875  12.527   0.197 -0.1615 -0.0822 -0.2160
 7254OCT     C214508  19.627  12.651  23.564  0.0452  0.6876  0.0853
 7255OCT     C114509   1.225  15.158   6.653  0.0949  0.0704  0.0870
 7255OCT     C214510   1.646  15.089   6.514  0.1864  0.1102 -0.2907
 7256OCT     C114511   3.857  16.494  13.677 -0.0502 -0.2300 -0.2236
 7256OCT     C214512   4.053  16.106  13.892  0.1049  0.1870  0.0147
 7257OCT     C114513  14.181  18.516  12.302  0.3219  0.1321 -0.4881
 7257OCT     C214514  14.355  18.427  11.897  0.3453 -0.0058 -0.5314
 7258OCT     C114515   7.570  14.692   2.154 -0.1924 -0.1271 -0.2158
 7258OCT     C214516   8.009  14.457   2.146  0.2521  0.0471 -0.1375
 7259OCT     C114517  23.551  16.950   0.882 -0.1409  0.0271  0.1728
 7259OCT     C214518  23.113  16.987   1.011  0.2506  0.2272  0.4249
 7260OCT     C114519   3.500   1.357  21.949 -0.1174  0.1354  0.3936
 7260OCT     C214520   3.499   1.219  21.497  0.0947 -0.3282 -0.1384
 7261OCT     C114521   8.421   1.880  10.261 -0.0848 -0.3000 -0.0612
 7261OCT     C214522   8.199   2.218   9.964 -0.1083  0.2137 -0.0417
 7262OCT     C114523  13.699  18.001  10.213  0.0860 -0.2504 -0.1354
 7262OCT     C214524  14.072  17.785  10.214  0.0073  0.1807  0.0638
 7263OCT     C114525  13.046  21.674  22.013  0.3232 -0.0750  0.1365
 7263OCT     C214526  12.638  21.623  21.831  0.1600 -0.0305 -0.0410
 7264OCT     C114527   5.863   8.376  18.822 -0.2466 -0.0625  0.0381
 7264OCT     C214528   6.215   8.158  19.033  0.1143 -0.0362  0.0639
 7265OCT     C114529  10.554  14.684  22.920  0.2415  0.0559 -0.1596
 7265OCT     C214530  10.633  15.125  22.774 -0.5153 -0.2957 -0.1497
 7266OCT     C114531   1.526  13.631  10.725  0.4121  0.1079 -0.0380
 7266OCT     C214532   1.324  14.081  10.650 -0.0187  0.3683  0.0125
 7267OCT     C114533  18.708  16.777   3.086  0.1394  0.0616  0.0396
 7267OCT     C214534  18.824  16.553   3.533  0.3394  0.1121 -0.0044
 7268OCT     C114535   7.757  13.428   7.351  0.1270  0.1311  0.1870
 7268OCT     C214536   8.044  13.512   7.731  0.4580 -0.1122 -0.1240
 7269OCT     C114537  14.057  13.789   0.537  0.1510  0.0801  0.0687
 7269OCT     C214538  13.945  13.390   0.607 -0.2405 -0.0485  0.1296
 7270OCT     C114539   3.330  22.493  12.989  0.0491  0.0649 -0.2155
 7270OCT     C214540   3.096  22.884  12.779 -0.3943  0.1937 -0.1650
 7271OCT     C114541  23.144  16.788  19.290 -0.0433  0.0552  0.3262
 7271OCT     C214542  23.342  17.080  19.564 -0.3295  0.1820 -0.2631
 7272OCT     C114543   2.780   3.148  23.409  0.0898  0.0417 -0.0094
 7272OCT     C214544   3.146   3.250  23.133  0.0579 -0.1618 -0.1107
 7273OCT     C114545  19.559  15.696   7.124 -0.1082 -0.1274 -0.1670
 7273OCT     C214546  19.247  15.373   7.099 -0.0628 -0.1801 -0.3297
 7274OCT     C114547   7.317  17.128  14.206 -0.0006 -0.5636  0.0172
 7274OCT     C214548   7.677  16.841  14.123  0.1591 -0.0767  0.2164
 7275OCT     C114549  14.609  18.483   2.641 -0.0396 -0.1212 -0.0647
 7275OCT     C214550  15.017  18.706   2.823  0.1247 -0.1748  0.1421
 7276OCT     C114551   9.685  16.647  20.525 -0.1270 -0.1827  0.0507
 7276OCT     C214552   9.720  16.821  20.949  0.2919 -0.2165  0.0647
 7277OCT     C114553   4.582   6.850   3.387  0.3020  0.2492  0.1634
 7277OCT     C214554   4.378   6.516   3.152  0.0029 -0.0318  0.0439
 7278OCT     C114555   6.489  21.346  11.543 -0.0502 -0.1692 -0.5185
 7278OCT     C214556   6.714  21.729  11.606 -0.0060  0.1167  0.2333
 7279OCT     C114557  10.091  20.410  20.422 -0.0598  0.4896  0.0974
 7279OCT     C214558  10.442  20.300  20.076  0.2247 -0.3618 -0.4108
 7280OCT     C114559  14.843  12.003  20.239  0.0728  0.0722  0.2181
 7280OCT     C214560  15.186  11.741  20.071  0.1778 -0.0744 -0.1539
 7281OCT     C114561  13.662  18.170  11.226 -0.0535  0.2989 -0.4562
 7281OCT     C214562  14.003  18.027  11.544  0.1413  0.1037  0.5136
 7282OCT     C114563  21.933   5.134  18.556  0.3002 -0.1852  0.0277
 7282OCT     C214564  22.191   4.910  18.235 -0.1191 -0.1540  0.2262
 7283OCT     C114565   4.790   2.281  19.221 -0.1175  0.0604  0.0975
 7283OCT     C214566   4.323   2.426  19.271  0.1270 -0.1462 -0.0697
 7284OCT     C114567  14.721  10.491  16.384  0.0227 -0.0915 -0.1615
 7284OCT     C214568  15.023  10.219  16.103 -0.3690 -0.1290  0.0725
 7285OCT     C114569  13.759   9.111   0.768  0.2711 -0.0233 -0.0749
 7285OCT     C214570  13.597   8.955   1.164 -0.2995 -0.0751 -0.0996
 7286OCT     C114571   2.276   4.416  19.638  0.1391  0.1351 -0.0359
 7286OCT     C214572   1.808   4.211  19.613 -0.0683  0.2138  0.1488
 7287OCT     C114573  22.993  14.343   8.687 -0.1567  0.0167  0.3085
 7287OCT     C214574  23.120  14.469   9.097 -0.0887 -0.0838  0.0832
 7288OCT     C114575  10.805   9.804   6.285  0.2640  0.1230  0.1267
 7288OCT     C214576  10.730  10.242   6.080  0.3058 -0.2312  0.1813
 7289OCT     C114577   6.623  23.427   4.559  0.0769  0.3353  0.2231
 7289OCT     C214578   6.128  23.480   4.341 -0.0943 -0.1268  0.0408
 7290OCT     C114579   6.683   2.178  20.548  0.4148 -0.2874 -0.0667
 7290OCT     C214580   6.575   1.739  20.422  0.0604 -0.1601 -0.2926
 7291OCT     C114581   2.757  20.488   1.964 -0.1173 -0.1525  0.1049
 7291OCT     C214582   2.656  20.735   2.318 -0.1348  0.1398 -0.2360
 7292OCT     C114583  16.001   0.096  13.589  0.0252 -0.1604  0.3456
 7292OCT     C214584  15.632  23.581  13.555  0.0351  0.0007  0.1160
 7293OCT     C114585  11.271  21.468   5.536 -0.1202 -0.0543 -0.0498
 7293OCT     C214586  10.968  21.365   5.258  0.3607  0.0065 -0.0105
 7294OCT     C114587   5.591   0.683   8.531  0.0966 -0.2517  0.0893
 7294OCT     C214588   5.270   0.707   8.184 -0.1568 -0.1253 -0.0503
 7295OCT     C114589  20.521   3.086   9.735 -0.0320 -0.5120  0.1256
 7295OCT     C214590  20.769   3.317  10.016  0.3795 -0.1186  0.0696
 7296OCT     C114591  13.934  22.525  21.935 -0.0495  0.0489  0.4592
 7296OCT     C214592  14.115  22.899  22.134  0.1848  0.2798 -0.0737
 7297OCT     C114593   0.495   0.594   6.588  0.3216 -0.1828  0.1376
 7297OCT     C214594   0.340   0.739   7.020  0.0034 -0.0284 -0.0493
 7298OCT     C114595  13.257  11.359   0.214  0.0405 -0.2528 -0.0613
 7298OCT     C214596  13.533  11.718   0.395  0.1555  0.3496  0.3592
 7299OCT     C114597   3.969  10.388   0.240 -0.1371 -0.1387 -0.0230
 7299OCT     C214598   3.741  10.768   0.347  0.3007 -0.0124  0.0066
 7300OCT     C114599  21.459   6.875  22.946 -0.0776 -0.0079 -0.5706
 7300OCT     C214600  21.500   7.254  22.693  0.1844 -0.1480 -0.0613
 7301OCT     C114601   4.599   3.074   1.214 -0.0718  0.1915  0.0955
 7301OCT     C214602   4.234   2.930   1.356  0.1105  0.4558 -0.3501
 7302OCT     C114603  11.903  12.320   9.390 -0.2886 -0.0461  0.0614
 7302OCT     C214604  12.188  11.933   9.381  0.3592  0.0312 -0.1901
 7303OCT     C114605   6.196  20.062   6.150 -0.1616  0.1316  0.1449
 7303OCT     C214606   6.399  20.136   6.598  0.2714 -0.2557 -0.0391
 7304OCT     C114607  21.412  14.823  13.537 -0.0725  0.3132 -0.2037
 7304OCT     C214608  21.619  15.122  13.837  0.5099 -0.0667  0.2330
 7305OCT     C114609  10.358   1.934  16.501  0.0319 -0.0186  0.3612
 7305OCT     C214610  10.724   2.062  16.245 -0.0692  0.2427 -0.2310
 7306OCT     C114611   3.593  16.749   6.247 -0.1437 -0.2847 -0.0147
 7306OCT     C214612   3.988  17.044   6.345  0.1529 -0.2624 -0.0192
 7307OCT     C114613   0.804   7.290  19.512  0.3638  0.0385 -0.2456
 7307OCT     C214614   1.222   7.058  19.345  0.1685 -0.3541 -0.0887
 7308OCT     C114615  15.629  21.294   1.265  0.0544  0.0423  0.0285
 7308OCT     C214616  15.295  21.023   1.427  0.5195 -0.1217  0.1157
 7309OCT     C114617   1.088   6.615  17.672 -0.1297 -0.2948 -0.3082
 7309OCT     C214618   1.053   6.148  17.614 -0.0980 -0.2746  0.2887
 7310OCT     C114619  13.437   5.813  15.533 -0.4335 -0.0361  0.3392
 7310OCT     C214620  13.103   5.562  15.398  0.2611  0.1029  0.2121
 7311OCT     C114621   0.480   6.465  14.792  0.1177  0.3378 -0.0290
 7311OCT     C214622  23.713   6.501  14.769 -0.1386 -0.0034 -0.0626
 7312OCT     C114623  20.519  12.662  18.086 -0.4316 -0.0947  0.0821
 7312OCT     C214624  20.974  12.591  18.020  0.2672  0.0656  0.1513
 7313OCT     C114625  15.121  15.876  19.944 -0.0581  0.0069  0.1278
 7313OCT     C214626  15.203  16.056  19.524  0.4489  0.0990  0.1658
 7314OCT     C114627  13.311  12.290   0.058  0.4154 -0.1282 -0.0741
 7314OCT     C214628  13.775  12.113   0.007  0.1357  0.0274 -0.2089
 7315OCT     C114629  14.992  21.861   6.098  0.0431  0.1622  0.0528
 7315OCT     C214630  15.309  21.958   6.383  0.3251  0.1679 -0.0378
 7316OCT     C114631   8.452  15.244   4.662  0.0222  0.1293 -0.1541
 7316OCT     C214632   8.640  15.172   4.213 -0.0289 -0.3154 -0.1106
 7317OCT     C114633  16.188  17.264  13.925  0.2615 -0.2935  0.2647
 7317OCT     C214634  15.911  17.688  14.022  0.2518  0.2885  0.1670
 7318OCT     C114635   9.281  14.881   2.163  0.0073 -0.0092 -0.2439
 7318OCT     C214636   9.622  14.735   2.424 -0.0734  0.1556 -0.1816
 7319OCT     C114637  19.604   9.187  19.302  0.1410 -0.1297  0.1283
 7319OCT     C214638  19.803   8.855  19.558  0.2053 -0.2239 -0.1230
 7320OCT     C114639   4.886   2.048  20.925 -0.1690  0.0794 -0.1342
 7320OCT     C214640   4.779   1.557  20.876  0.1757  0.4362  0.1757
 7321OCT     C114641   2.527  16.486  13.959  0.0720 -0.3142  0.2008
 7321OCT     C214642   2.644  16.099  13.696 -0.3047 -0.4629  0.1041
 7322OCT     C114643  21.739  17.277   9.529  0.5436  0.2689  0.2202
 7322OCT     C214644  21.346  17.558   9.507  0.1878 -0.1110 -0.3657
 7323OCT     C114645   1.606  23.267  22.727 -0.2170 -0.1749 -0.1001
 7323OCT     C214646   1.775  22.857  22.770 -0.0614 -0.0212  0.0753
 7324OCT     C114647  20.702  17.807  22.175 -0.1980 -0.2467  0.0357
 7324OCT     C214648  21.147  17.663  22.037 -0.0854  0.1110 -0.0804
 7325OCT     C114649   9.447  15.998  14.310 -0.1102  0.0799 -0.1481
 7325OCT     C214650   9.697  16.118  13.875  0.1424  0.1483 -0.2034
 7326OCT     C114651  11.603  19.419  16.044  0.2166 -0.0808  0.0184
 7326OCT     C214652  11.293  19.165  16.204  0.0020  0.1252 -0.0087
 7327OCT     C114653   8.620   8.892   6.436  0.1043 -0.0411  0.0197
 7327OCT     C214654   8.514   9.051   6.867 -0.0039 -0.1867 -0.1971
 7328OCT     C114655  21.738  18.857  13.908  0.4116  0.4303  0.0773
 7328OCT     C214656  21.676  18.911  14.337 -0.1193 -0.2967  0.0086
 7329OCT     C114657  22.287  15.119   5.259  0.2293 -0.3710 -0.0012
 7329OCT     C214658  21.932  15.331   5.485  0.4487 -0.3648 -0.0200
 7330OCT     C114659   7.435  22.452   4.813 -0.0153 -0.2681 -0.0814
 7330OCT     C214660   7.397  22.144   5.186 -0.1007  0.0392  0.2314
 7331OCT     C114661  18.175  16.190  20.782 -0.1131  0.0988  0.0883
 7331OCT     C214662  18.328  15.759  20.823  0.2058 -0.3103  0.3972
 7332OCT     C114663   0.712  19.167  16.374  0.1816 -0.0791 -0.1401
 7332OCT     C214664   0.485  19.481  16.140 -0.2795 -0.3373  0.1058
 7333OCT     C114665  11.651  19.703  14.645 -0.3735 -0.3078  0.1515
 7333OCT     C214666  11.743  19.797  15.089  0.1871 -0.0092 -0.0820
 7334OCT     C114667  14.204   0.852   6.373  0.2462 -0.0920 -0.1817
 7334OCT     C214668  13.874   0.899   6.756  0.0257 -0.2231  0.1227
 7335OCT     C114669  13.316   3.028  22.382 -0.0369  0.2325  0.1490
 7335OCT     C214670  12.929   3.210  22.427  0.2482 -0.0197  0.2436
 7336OCT     C114671   4.413  18.743   2.907 -0.1019 -0.2536 -0.0798
 7336OCT     C214672   4.635  18.950   3.255 -0.0217 -0.0710 -0.0622
 7337OCT     C114673  20.132   2.460   7.628  0.1196  0.2249 -0.2314
 7337OCT     C214674  20.207   2.829   7.428  0.2636  0.2361 -0.0041
 7338OCT     C114675  19.095   1.728  19.529  0.2604  0.0471 -0.4841
 7338OCT     C214676  18.877   2.139  19.517  0.0425 -0.0368  0.3316
 7339OCT     C114677  11.229   1.432  23.709  0.3193 -0.1003  0.4135
 7339OCT     C214678  10.778   1.441   0.078 -0.2024  0.5281  0.2419
 7340OCT     C114679   1.008  20.616   1.319 -0.1639 -0.2998 -0.0083
 7340OCT     C214680   1.011  20.557   0.859  0.2130  0.0674 -0.3775
 7341OCT     C114681   9.985   8.765  19.743 -0.3448  0.2328  0.1910
 7341OCT     C214682  10.113   8.654  19.219  0.1071  0.4170 -0.1406
 7342OCT     C114683  12.731  10.604  11.280  0.0779 -0.1084  0.3033
 7342OCT     C214684  12.644  11.050  11.421  0.2436 -0.1612 -0.2385
 7343OCT     C114685  11.368   6.126  19.979  0.1604 -0.0424  0.0429
 7343OCT     C214686  11.540   6.532  19.710  0.0281 -0.0971 -0.1272
 7344OCT     C114687   4.941  22.606  13.600  0.1742  0.3080 -0.0154
 7344OCT     C214688   4.620  22.888  13.505 -0.0271  0.0239 -0.1443
 7345OCT     C114689   0.446   2.329  20.199  0.0460  0.1952 -0.2686
 7345OCT     C214690   0.240   2.685  20.231 -0.1268 -0.0351 -0.0600
 7346OCT     C114691  17.091  16.980  22.586  0.0348 -0.5164  0.0574
 7346OCT     C214692  17.101  17.396  22.371 -0.0091 -0.1372  0.1828
 7347OCT     C114693  14.813  14.749  21.691 -0.0094  0.0321  0.0064
 7347OCT     C214694  14.445  14.535  21.408  0.2597  0.0514  0.0120
 7348OCT     C114695   7.538  11.758  17.792  0.1820 -0.1905 -0.0991
 7348OCT     C214696   7.922  11.544  17.652  0.2294  0.1302  0.4239
 7349OCT     C114697  20.988   1.445  23.607 -0.0150 -0.0892 -0.2899
 7349OCT     C214698  21.426   1.282  23.669  0.2139  0.2086  0.0409
 7350OCT     C114699  10.063   4.162  23.272  0.1467 -0.4797  0.0808
 7350OCT     C214700  10.234   4.164  22.843 -0.0121  0.2693  0.1214
 7351OCT     C114701   6.221   4.984  13.071 -0.4135 -0.0923 -0.0770
 7351OCT     C214702   6.240   5.423  13.150 -0.2500  0.0042  0.1689
 7352OCT     C114703  15.714   6.709   9.097  0.2370  0.0209 -0.2678
 7352OCT     C214704  16.013   6.503   8.804 -0.4551 -0.0650 -0.2343
 7353OCT     C114705  19.967  11.512   0.204  0.0835  0.2505  0.0026
 7353OCT     C214706  20.056  11.041   0.030 -0.0917  0.1814  0.0869
 7354OCT     C114707  10.753  19.570  20.230 -0.2912  0.1119  0.2577
 7354OCT     C214708  10.388  19.818  20.189  0.2818 -0.0092 -0.2544
 7355OCT     C114709  15.385  13.091  16.396 -0.2044 -0.1787 -0.3733
 7355OCT     C214710  14.988  12.961  16.680  0.0750 -0.1050  0.0181
 7356OCT     C114711   6.608   9.109   8.512  0.5905  0.1411 -0.3254
 7356OCT     C214712   6.934   8.882   8.722  0.1212  0.0429 -0.1563
 7357OCT     C114713   2.380  23.434   3.875  0.4413 -0.0564  0.0431
 7357OCT     C214714   2.428  23.582   4.326 -0.2886  0.0881  0.3300
 7358OCT     C114715   3.929   4.606   6.587  0.3884 -0.0002 -0.0148
 7358OCT     C214716   4.164   4.174   6.486 -0.1241 -0.1521  0.0931
 7359OCT     C114717  14.921   1.230   0.979  0.3654 -0.3983  0.3415
 7359OCT     C214718  14.924   1.439   1.375 -0.1023  0.3682 -0.0949
 7360OCT     C114719   9.944  18.555   2.394  0.1371  0.1089  0.0452
 7360OCT     C214720   9.918  18.348   2.818 -0.3519 -0.1392 -0.3060
 7361OCT     C114721  21.962   7.488  11.827 -0.0684  0.2773 -0.3884
 7361OCT     C214722  21.638   7.305  11.588 -0.0351 -0.0867 -0.0936
 7362OCT     C114723  22.384  16.925  10.867 -0.1661 -0.0147  0.1292
 7362OCT     C214724  22.874  16.879  11.022 -0.0173 -0.1460 -0.1954
 7363OCT     C114725   1.826  22.696  18.650 -0.1506  0.1877  0.1664
 7363OCT     C214726   1.873  22.553  19.106 -0.0427  0.1679  0.0788
 7364OCT     C114727   9.472   7.289   6.891  0.1710 -0.0859  0.1254
 7364OCT     C214728   9.793   7.660   7.013  0.1610  0.0112 -0.4127
 7365OCT     C114729  19.790  10.282  12.153  0.1772 -0.1800 -0.2382
 7365OCT     C214730  19.661  10.318  11.689  0.0157  0.2557 -0.0369
 7366OCT     C114731  19.485   3.328   2.664 -0.0832 -0.0453 -0.0135
 7366OCT     C214732  19.789   3.295   2.273 -0.0847 -0.2230 -0.1494
 7367OCT     C114733  14.740   2.998  21.216 -0.0568 -0.2459  0.1084
 7367OCT     C214734  15.032   2.610  21.240  0.1383  0.0640  0.1405
 7368OCT     C114735  17.325   3.121   1.387  0.1340  0.2449 -0.1095
 7368OCT     C214736  17.425   2.687   1.261 -0.0472  0.2866  0.2557
 7369OCT     C114737  17.532   6.797   0.287 -0.1105  0.1700  0.4770
 7369OCT     C214738  17.028   6.748   0.300 -0.0033  0.0856  0.1181
 7370OCT     C114739  14.378   3.115   6.596 -0.0049 -0.1624  0.1197
 7370OCT     C214740  13.946   3.173   6.648 -0.0877 -0.3542 -0.0081
 7371OCT     C114741  11.101  14.047   5.216 -0.1293 -0.4090 -0.2202
 7371OCT     C214742  10.731  14.137   4.898  0.2505 -0.1254  0.1898
 7372OCT     C114743   8.523   8.857   1.025 -0.0903 -0.0752 -0.4143
 7372OCT     C214744   8.180   8.598   1.149 -0.1073  0.2055  0.0423
 7373OCT     C114745   2.348   9.111   3.408  0.2338 -0.0199 -0.0299
 7373OCT     C214746   2.049   9.454   3.562 -0.0396  0.2079  0.2166
 7374OCT     C114747  16.566   7.309   6.718  0.0426 -0.1429 -0.0059
 7374OCT     C214748  16.934   7.163   6.925 -0.2963  0.2296 -0.1501
 7375OCT     C114749  11.107   0.049   6.748 -0.3194 -0.0117 -0.2372
 7375OCT     C214750  10.840   0.295   6.475  0.2144  0.2329  0.2644
 7376OCT     C114751   3.078  17.293   5.086  0.2359  0.0011  0.0698
 7376OCT     C214752   2.843  17.406   5.483 -0.0849 -0.5942 -0.0423
 7377OCT     C114753  23.606  14.143  16.977  0.3656  0.1003  0.1716
 7377OCT     C214754   0.160  14.415  17.287  0.1730 -0.2531  0.1142
 7378OCT     C114755  23.726   9.781  10.450  0.4563  0.3891  0.0629
 7378OCT     C214756   0.111   9.479  10.834 -0.0848  0.0956 -0.2972
 7379OCT     C114757  21.878   1.411   9.109 -0.0218  0.0980 -0.0548
 7379OCT     C214758  22.187   1.510   8.805 -0.2021 -0.0007  0.2675
 7380OCT     C114759   0.786   2.213  11.121 -0.3237 -0.2429  0.1249
 7380OCT     C214760   0.950   1.987  11.453  0.0365 -0.1577 -0.1247
 7381OCT     C114761  22.367  14.568   9.656 -0.0013  0.4444  0.0737
 7381OCT     C214762  22.134  14.247   9.853 -0.0501  0.4026 -0.0803
 7382OCT     C114763   5.689   5.472  11.608 -0.1314 -0.0818  0.3838
 7382OCT     C214764   6.011   5.219  11.838  0.5312 -0.1897  0.1517
 7383OCT     C114765  20.974   1.871  20.609  0.0360 -0.3756 -0.1680
 7383OCT     C214766  20.603   1.855  20.334 -0.0325  0.0939  0.3201
 7384OCT     C114767  17.836  14.665  10.787 -0.0219  0.1483 -0.1399
 7384OCT     C214768  17.768  15.125  10.738  0.1067 -0.0398 -0.3397
 7385OCT     C114769   0.540   5.265   9.493 -0.0255 -0.2867 -0.2370
 7385OCT     C214770   0.185   5.108   9.682  0.2128 -0.1112 -0.1912
 7386OCT     C114771  11.585   5.228   4.022  0.1596 -0.1382  0.0933
 7386OCT     C214772  11.224   5.110   4.296  0.0319  0.3009  0.0349
 7387OCT     C114773   3.209   5.463   5.044 -0.2344  0.3051 -0.3423
 7387OCT     C214774   2.752   5.519   4.898  0.0175 -0.4195 -0.4818
 7388OCT     C114775   1.579  23.136  17.299  0.2907 -0.2716 -0.1428
 7388OCT     C214776   1.443  22.722  17.231 -0.0266 -0.1997  0.1241
 7389OCT     C114777  12.246   4.179  22.589  0.0075 -0.1795 -0.0751
 7389OCT     C214778  12.534   3.880  22.419  0.2846 -0.0520 -0.1011
 7390OCT     C114779  10.988   4.099  18.493  0.2134 -0.2178 -0.0023
 7390OCT     C214780  11.048   3.913  18.920 -0.0607 -0.0388 -0.1953
 7391OCT     C114781   2.247  19.326   9.811  0.1355 -0.2559 -0.0852
 7391OCT     C214782   2.384  19.415  10.259  0.3070 -0.3318  0.1619
 7392OCT     C114783  10.022  10.449   3.681 -0.2713  0.0174  0.1150
 7392OCT     C214784  10.328  10.724   3.842 -0.1944 -0.0979  0.1934
 7393OCT     C114785   2.031  20.942   8.818 -0.4880 -0.0486  0.0744
 7393OCT     C214786   2.129  21.334   8.612  0.0741 -0.0434 -0.0953
 7394OCT     C114787   6.388   6.707  11.022 -0.1493 -0.0154  0.0829
 7394OCT     C214788   6.638   6.380  10.804 -0.0222 -0.1470  0.2609
 7395OCT     C114789   6.294   4.807   6.552 -0.4300  0.3727  0.0772
 7395OCT     C214790   6.728   4.837   6.847  0.3372  0.0680 -0.1567
 7396OCT     C114791   2.246   3.590  23.146  0.2676 -0.0239  0.0898
 7396OCT     C214792   1.880   3.440  23.378 -0.0164  0.3584  0.0836
 7397OCT     C114793  10.222  15.471  19.407  0.1685  0.0849 -0.0969
 7397OCT     C214794   9.745  15.530  19.442  0.0671 -0.0017 -0.1450
 7398OCT     C114795  17.574   2.118   3.854  0.0713  0.0247 -0.0555
 7398OCT     C214796  17.869   2.465   4.025  0.0215 -0.1958 -0.2182
 7399OCT     C114797   4.001   2.433   3.153  0.0218  0.1078  0.0569
 7399OCT     C214798   4.225   2.843   3.191 -0.0832 -0.0604  0.1203
 7400OCT     C114799  18.483   2.923  10.014  0.3391 -0.1226 -0.2637
 7400OCT     C214800  18.722   2.596   9.734 -0.0632 -0.0878 -0.2237
 7401OCT     C114801   4.998  12.771  21.994 -0.3070 -0.1033  0.2955
 7401OCT     C214802   5.189  12.915  22.378  0.1187 -0.0584  0.5106
 7402OCT     C114803  20.915   8.430  16.482 -0.1729 -0.3424  0.2039
 7402OCT     C214804  21.156   8.658  16.821 -0.2971 -0.1408  0.0901
 7403OCT     C114805   4.535   0.947   9.591 -0.1642  0.1953  0.0586
 7403OCT     C214806   4.864   1.177   9.321 -0.0535  0.2394 -0.2830
 7404OCT     C114807  21.833   4.987  17.943  0.0216 -0.0589  0.2116
 7404OCT     C214808  21.428   4.684  17.912  0.7027  0.4580  0.2138
 7405OCT     C114809  22.418  17.285  15.086 -0.0490  0.0031 -0.1075
 7405OCT     C214810  22.248  17.454  14.715  0.2181 -0.1089  0.0070
 7406OCT     C114811   6.862  23.488  11.916  0.0243  0.0170 -0.1536
 7406OCT     C214812   7.114  23.525  11.483  0.0861 -0.1307 -0.0057
 7407OCT     C114813   8.484  23.098  13.854  0.2775  0.1600 -0.0066
 7407OCT     C214814   8.427  23.394  14.233  0.2073 -0.0166 -0.1925
 7408OCT     C114815  19.748  22.912  15.043 -0.1486  0.1506  0.2147
 7408OCT     C214816  20.126  22.691  15.260  0.1338 -0.2381  0.1513
 7409OCT     C114817  17.922  21.384  18.216  0.1312  0.0562 -0.0932
 7409OCT     C214818  18.195  21.131  18.514 -0.3413 -0.3966  0.1747
 7410OCT     C114819  10.471   5.136   9.044  0.2724  0.2593  0.0106
 7410OCT     C214820  10.291   4.987   9.435 -0.1800 -0.0874 -0.2110
 7411OCT     C114821  23.033   4.829  22.127  0.3132 -0.1103 -0.1972
 7411OCT     C214822  22.888   5.160  21.867 -0.1587 -0.0990 -0.3044
 7412OCT     C114823   5.243  18.805  13.995  0.2021 -0.0099  0.1090
 7412OCT     C214824   5.391  19.170  14.279 -0.2484  0.0575 -0.0746
 7413OCT     C114825   7.610  19.676  21.141  0.0654  0.2762 -0.3848
 7413OCT     C214826   7.705  19.699  21.607 -0.0176 -0.2805  0.1930
 7414OCT     C114827  22.249  18.263  14.411 -0.2232 -0.1310 -0.2237
 7414OCT     C214828  22.034  17.893  14.560 -0.1289  0.1314  0.1249
 7415OCT     C114829  17.300   4.630   4.220  0.0400 -0.1037 -0.0462
 7415OCT     C214830  17.679   4.394   4.471  0.5348  0.1287 -0.1506
 7416OCT     C114831  15.569   4.836  15.966  0.1945 -0.1858 -0.0489
 7416OCT     C214832  15.916   4.623  15.871 -0.1947 -0.0500 -0.1507
 7417OCT     C114833  23.431   0.445   3.922  0.1487 -0.0057  0.0509
 7417OCT     C214834  23.290   0.581   4.340 -0.1121 -0.1876  0.0324
 7418OCT     C114835  12.303   9.686  12.256  0.0869 -0.1156 -0.3344
 7418OCT     C214836  12.363   9.631  11.822 -0.1646 -0.1124  0.1944
 7419OCT     C114837  20.481  10.637  18.659  0.0124 -0.1677  0.0252
 7419OCT     C214838  20.674  10.929  18.855  0.1008  0.1399  0.0983
 7420OCT     C114839  17.909   6.774  16.422 -0.3750 -0.3035 -0.3959
 7420OCT     C214840  18.324   6.968  16.337 -0.1517  0.1057  0.3864
 7421OCT     C114841  16.396   8.988   4.036 -0.1786 -0.2111 -0.0152
 7421OCT     C214842  16.718   8.963   3.643  0.0925  0.1984 -0.2345
 7422OCT     C114843   7.676  15.180   7.448  0.0174  0.1386 -0.1811
 7422OCT     C214844   7.645  15.640   7.424 -0.3250  0.2792  0.0917
 7423OCT     C114845  18.304   6.193   4.672  0.0143  0.1104  0.4879
 7423OCT     C214846  17.960   5.937   4.789 -0.5166  0.1308  0.1449
 7424OCT     C114847  12.656   0.311  11.306  0.1737 -0.0053 -0.1120
 7424OCT     C214848  12.484   0.311  11.743 -0.3324 -0.0425  0.1299
 7425OCT     C114849   1.644   3.406   3.798 -0.1586  0.3261  0.1799
 7425OCT     C214850   1.246   3.582   3.984  0.2189 -0.0791  0.1772
 7426OCT     C114851   5.629  15.871  12.368  0.1843  0.4581  0.1920
 7426OCT     C214852   5.255  15.781  12.096  0.3800 -0.1221 -0.0914
 7427OCT     C114853  13.804  16.076  19.141 -0.1242 -0.1459  0.4018
 7427OCT     C214854  13.850  15.677  19.485 -0.0778 -0.3947 -0.1062
 7428OCT     C114855  20.769  16.562   2.858 -0.2311  0.0483  0.1053
 7428OCT     C214856  21.010  16.474   2.480 -0.2346 -0.0596 -0.1893
 7429OCT     C114857   9.601  12.547  15.974  0.2280  0.1751 -0.1498
 7429OCT     C214858   9.786  12.062  16.034 -0.1842 -0.1771  0.2216
 7430OCT     C114859   0.344   8.068  19.957  0.2224 -0.3315  0.2188
 7430OCT     C214860   0.005   7.752  20.137 -0.2403  0.2178 -0.1748
 7431OCT     C114861   3.288  13.577  23.426 -0.0714  0.3380  0.1044
 7431OCT     C214862   3.370  14.020  23.564 -0.2744  0.1357  0.0101
 7432OCT     C114863  21.102   3.830  22.747 -0.1225 -0.0258  0.2049
 7432OCT     C214864  20.733   3.627  22.731  0.2158  0.0549  0.1334
 7433OCT     C114865  18.838   8.675   7.210 -0.0061 -0.0914  0.1090
 7433OCT     C214866  18.574   9.064   7.341  0.0345 -0.2319 -0.2841
 7434OCT     C114867   9.910  19.830  21.951 -0.0597 -0.1053  0.3908
 7434OCT     C214868   9.825  19.772  21.485  0.1659  0.0057  0.1676
 7435OCT     C114869  15.023   8.111  20.685 -0.1961 -0.0092 -0.1499
 7435OCT     C214870  15.450   8.106  20.894  0.0375  0.0598  0.0571
 7436OCT     C114871   4.570  16.712   7.847  0.0445 -0.2600 -0.1527
 7436OCT     C214872   4.178  16.978   7.985 -0.1504  0.1387 -0.1631
 7437OCT     C114873  16.887   0.612   1.479 -0.0271  0.0068  0.1591
 7437OCT     C214874  16.440   0.508   1.492  0.6640 -0.0292  0.3340
 7438OCT     C114875   2.392  10.979  21.084  0.3827  0.1911 -0.1104
 7438OCT     C214876   2.413  11.464  21.057 -0.3650 -0.1223 -0.0527
 7439OCT     C114877  22.817  10.817  10.615  0.1127 -0.0102 -0.0161
 7439OCT     C214878  22.496  11.023  10.396  0.1172 -0.0494  0.0486
 7440OCT     C114879  22.073  20.387   8.926 -0.0628  0.2956 -0.0299
 7440OCT     C214880  22.522  20.288   9.131  0.4019  0.1803 -0.0357
 7441OCT     C114881  12.118  13.257  21.654  0.1991  0.2899 -0.2203
 7441OCT     C214882  12.255  13.343  21.205  0.1569  0.0864  0.0091
 7442OCT     C114883  12.550  16.776  12.669  0.0560  0.0859 -0.4647
 7442OCT     C214884  12.725  17.072  12.381 -0.2290  0.0261  0.3005
 7443OCT     C114885   3.682   8.686  11.590 -0.0557  0.2312  0.3265
 7443OCT     C214886   3.297   8.609  11.862  0.4658 -0.1807  0.2275
 7444OCT     C114887  11.547  10.937   5.133  0.0255  0.1875  0.0149
 7444OCT     C214888  11.972  10.791   4.949  0.1154 -0.0422  0.3582
 7445OCT     C114889  15.773  20.487  16.196 -0.0156 -0.0140 -0.0129
 7445OCT     C214890  15.999  20.309  15.777 -0.1737 -0.1620  0.0184
 7446OCT     C114891  14.970  10.995   0.475  0.0711 -0.0984 -0.1203
 7446OCT     C214892  14.702  10.815   0.086 -0.1027 -0.0467  0.0175
 7447OCT     C114893   2.216  17.319   4.099  0.3084 -0.2813  0.3114
 7447OCT     C214894   2.426  16.887   4.061 -0.1248  0.4857  0.3610
 7448OCT     C114895   6.748   7.206  15.832  0.1488  0.0088  0.0524
 7448OCT     C214896   6.819   7.597  16.108 -0.0132 -0.2114 -0.4599
 7449OCT     C114897   9.398  21.584  20.329 -0.3043 -0.0886 -0.1273
 7449OCT     C214898   9.276  21.889  20.710  0.2170  0.0363 -0.0965
 7450OCT     C114899   0.298  20.017   5.329 -0.0554  0.1197 -0.1998
 7450OCT     C214900   0.477  20.436   5.367  0.0713 -0.2134 -0.2552
 7451OCT     C114901   6.893   7.432   5.965 -0.6009 -0.2228 -0.0096
 7451OCT     C214902   7.315   7.478   6.220 -0.2906  0.3113  0.0544
 7452OCT     C114903  12.285   0.668   6.105  0.1103  0.1418  0.1383
 7452OCT     C214904  12.284   1.115   5.911  0.0841  0.1537 -0.0576
 7453OCT     C114905  19.113  12.776  13.090  0.0970 -0.1400  0.0085
 7453OCT     C214906  19.082  12.632  13.535 -0.3584  0.0340 -0.3141
 7454OCT     C114907   5.171  21.762  21.941 -0.1487 -0.2493  0.1648
 7454OCT     C214908   4.787  21.556  21.992  0.2484 -0.1067  0.2119
 7455OCT     C114909   3.339   2.514   7.626 -0.0740  0.1090 -0.1455
 7455OCT     C214910   3.160   2.615   8.103 -0.0496 -0.1326  0.0047
 7456OCT     C114911   1.319   6.976  18.891 -0.0575 -0.2387 -0.1630
 7456OCT     C214912   1.531   6.635  19.117 -0.0284  0.2209  0.1439
 7457OCT     C114913   0.991   3.659  21.416  0.0030  0.1059  0.3288
 7457OCT     C214914   1.172   4.106  21.485  0.0010 -0.0410 -0.0243
 7458OCT     C114915  19.562  22.723  12.906  0.0283 -0.0236 -0.3130
 7458OCT     C214916  19.801  22.739  13.308 -0.1344  0.2319 -0.4260
 7459OCT     C114917  17.230  11.028  18.298 -0.2781 -0.0786  0.3277
 7459OCT     C214918  17.204  11.450  18.535  0.4699  0.1877  0.2456
 7460OCT     C114919   5.829   8.800  11.910 -0.5350 -0.0929 -0.1510
 7460OCT     C214920   5.415   8.970  12.146 -0.4282  0.1410  0.0640
 7461OCT     C114921   3.572  15.439   9.239  0.0614 -0.5284  0.1000
 7461OCT     C214922   3.317  15.152   9.505 -0.1551 -0.1083 -0.3358
 7462OCT     C114923  14.794   2.294  10.865 -0.2942  0.0487 -0.1305
 7462OCT     C214924  14.835   2.651  11.207 -0.2671 -0.1041 -0.3524
 7463OCT     C114925  10.465  13.480   1.242  0.3174 -0.1779  0.2238
 7463OCT     C214926  10.794  13.158   1.373 -0.1058 -0.4001 -0.1413
 7464OCT     C114927  20.103   9.221  13.821 -0.1305  0.0030 -0.1372
 7464OCT     C214928  20.235   8.767  13.723 -0.4260  0.0323 -0.2393
 7465OCT     C114929   5.875   6.990  16.225  0.0582 -0.1316  0.3077
 7465OCT     C214930   6.202   6.983  16.595 -0.1112 -0.0155  0.1546
 7466OCT     C114931   7.970  23.077  18.756  0.0053  0.2223 -0.1583
 7466OCT     C214932   8.061  23.248  18.283  0.0973 -0.3020 -0.0126
 7467OCT     C114933  14.050  18.196  17.878 -0.2572 -0.0632  0.1103
 7467OCT     C214934  13.883  17.974  18.317  0.0542 -0.1772  0.1469
 7468OCT     C114935  23.244   8.247   2.796  0.0415  0.3974 -0.0473
 7468OCT     C214936  23.107   7.981   3.209  0.3536 -0.2103  0.2555
 7469OCT     C114937   5.004   1.140   8.079 -0.1585 -0.1221  0.1356
 7469OCT     C214938   4.720   0.817   7.881 -0.1194 -0.1082  0.0849
 7470OCT     C114939  10.021   9.037  23.326 -0.1378 -0.0271 -0.0919
 7470OCT     C214940  10.475   9.093  23.133  0.2111 -0.2352  0.0870
 7471OCT     C114941  17.145   7.160  23.682 -0.0039  0.0158  0.1061
 7471OCT     C214942  17.183   7.434  23.346  0.0256 -0.0723 -0.1107
 7472OCT     C114943  13.904   1.158  19.566 -0.3562 -0.3184  0.1138
 7472OCT     C214944  14.265   1.109  19.831  0.2259 -0.1743 -0.0489
 7473OCT     C114945   1.429  20.372  23.406  0.0114  0.0214  0.0649
 7473OCT     C214946   1.341  20.224   0.086 -0.1718  0.4019 -0.4237
 7474OCT     C114947  11.916  20.625  14.074  0.3015  0.0381  0.0873
 7474OCT     C214948  11.640  20.589  13.726 -0.1089 -0.4264 -0.1424
 7475OCT     C114949  21.564   0.347   3.227 -0.2291 -0.0553  0.0625
 7475OCT     C214950  21.753   0.108   2.860 -0.2029  0.0313 -0.2188
 7476OCT     C114951  16.001   0.973  15.119  0.0281 -0.3084  0.0054
 7476OCT     C214952  15.826   0.687  14.723  0.0755  0.3248  0.1705
 7477OCT     C114953  17.339  23.186  11.799 -0.2740  0.0551  0.2200
 7477OCT     C214954  17.166  22.821  11.573  0.0257  0.0059 -0.0198
 7478OCT     C114955  15.236  15.338   2.429 -0.0047  0.0989  0.0865
 7478OCT     C214956  14.835  15.558   2.476  0.0608 -0.3150  0.1059
 7479OCT     C114957   5.618  13.406   5.727  0.3017  0.4260 -0.3433
 7479OCT     C214958   5.671  13.067   5.378 -0.2224  0.2534 -0.4311
 7480OCT     C114959   2.181   3.042  21.498 -0.1894 -0.0105  0.0412
 7480OCT     C214960   2.385   2.613  21.635 -0.3278  0.1987  0.1551
 7481OCT     C114961  22.197   4.458   9.182  0.0721 -0.0218 -0.1528
 7481OCT     C214962  21.914   4.705   9.514  0.0323  0.1824  0.0912
 7482OCT     C114963  21.003  10.131  22.301  0.3291  0.2822 -0.2322
 7482OCT     C214964  20.744   9.765  22.550  0.1031 -0.3972  0.2232
 7483OCT     C114965  17.967  11.929  19.845 -0.1956 -0.0487  0.1271
 7483OCT     C214966  18.200  11.948  19.429  0.0041 -0.2151 -0.0745
 7484OCT     C114967   0.769  18.970   9.051  0.2416 -0.2259 -0.1973
 7484OCT     C214968   0.915  19.199   9.485  0.3258  0.0072  0.2270
 7485OCT     C114969   6.411   8.868  23.148 -0.0383  0.2000 -0.1679
 7485OCT     C214970   6.358   9.062  22.702  0.4221 -0.3873 -0.2204
 7486OCT     C114971   3.163  21.962  14.725 -0.0683 -0.1619 -0.3060
 7486OCT     C214972   2.778  22.155  14.558  0.2556 -0.2444  0.2450
 7487OCT     C114973  18.315  23.102   2.276 -0.3647  0.0770 -0.0746
 7487OCT     C214974  18.110  22.711   2.102 -0.1014  0.0658  0.2154
 7488OCT     C114975   1.173  11.857  13.255  0.2308 -0.0569 -0.0481
 7488OCT     C214976   0.957  11.819  12.828  0.3351 -0.4932  0.2147
 7489OCT     C114977  12.775  10.738   5.796  0.1847 -0.4276  0.0254
 7489OCT     C214978  12.844  10.256   5.763  0.0332  0.0018 -0.0256
 7490OCT     C114979  12.595   4.443   5.415  0.1642 -0.1082 -0.0010
 7490OCT     C214980  12.494   4.727   5.101 -0.0463  0.1011 -0.4409
 7491OCT     C114981  14.073  21.310  10.707 -0.1022  0.0208  0.1086
 7491OCT     C214982  14.527  21.344  10.696 -0.3354 -0.3444  0.2116
 7492OCT     C114983   1.806   8.958  20.166 -0.0219  0.0495 -0.0455
 7492OCT     C214984   1.835   9.362  20.417 -0.0187  0.3961  0.1789
 7493OCT     C114985  11.003  16.260  21.962  0.1140 -0.1003 -0.0419
 7493OCT     C214986  10.799  15.868  22.207 -0.3166 -0.1284 -0.0088
 7494OCT     C114987   5.283  13.795  17.724  0.3885 -0.1324  0.0679
 7494OCT     C214988   5.075  13.781  17.330 -0.0987  0.1155 -0.0740
 7495OCT     C114989  22.973   2.420  10.797 -0.1783 -0.1243 -0.1014
 7495OCT     C214990  22.591   2.518  11.011  0.0903  0.1062 -0.0050
 7496OCT     C114991   7.936   1.336  23.196 -0.1022 -0.5928 -0.0652
 7496OCT     C214992   8.032   1.196  22.781 -0.0051  0.0368  0.2168
 7497OCT     C114993  13.984  16.008  14.825  0.2135 -0.2721 -0.0139
 7497OCT     C214994  14.138  16.151  15.344 -0.1469  0.1801  0.0947
 7498OCT     C114995   3.459   7.644  15.971  0.4273  0.0597 -0.0065
 7498OCT     C214996   3.595   7.666  15.474  0.1681 -0.0645  0.2616
 7499OCT     C114997  14.004  15.990  17.049 -0.1892  0.0196 -0.1694
 7499OCT     C214998  14.244  15.609  17.094  0.1156 -0.1694 -0.0348
 7500OCT     C114999  14.463   5.685  17.592 -0.2151 -0.0917 -0.1563
 7500OCT     C215000  14.424   5.675  18.076  0.0702 -0.0155  0.0561
 7501OCT     C115001   4.248  16.889  21.701  0.0400  0.2082  0.0739
 7501OCT     C215002   4.453  16.506  21.948 -0.1549 -0.2413  0.3120
 7502OCT     C115003   9.183  21.421  11.620  0.0458 -0.1502 -0.1894
 7502OCT     C215004   9.010  21.443  12.064  0.0941  0.0075  0.3471
 7503OCT     C115005  10.035  17.152   2.577  0.1287  0.2752  0.2474
 7503OCT     C215006   9.759  17.378   2.299 -0.0169  0.0657 -0.3127
 7504OCT     C115007   2.358  10.644  15.410  0.0046 -0.1996  0.1558
 7504OCT     C215008   2.001  10.660  15.078 -0.0794  0.0602 -0.0870
 7505OCT     C115009   1.406  18.594   6.638 -0.2667 -0.1062  0.0063
 7505OCT     C215010   1.569  19.007   6.495 -0.2258  0.2276  0.0016
 7506OCT     C115011  19.310  10.428  10.041 -0.0989  0.1834  0.5085
 7506OCT     C215012  19.599  10.656   9.720 -0.0826  0.0839  0.3638
 7507OCT     C115013  19.845  15.659  10.287 -0.2452 -0.1976 -0.0772
 7507OCT     C215014  19.923  15.489   9.880 -0.0131  0.1542 -0.0784
 7508OCT     C115015  14.899   0.984  10.215  0.2038  0.3397  0.2777
 7508OCT     C215016  14.780   1.216  10.634 -0.1425  0.0775  0.1697
 7509OCT     C115017   0.503   4.624   5.320  0.2180 -0.1313  0.0459
 7509OCT     C215018   0.332   4.808   4.945  0.1766  0.0102 -0.2546
 7510OCT     C115019  21.230   2.875   5.390  0.4230  0.2075  0.4296
 7510OCT     C215020  20.771   2.749   5.233 -0.1853 -0.0809 -0.2680
 7511OCT     C115021  19.673  15.916  19.804 -0.1892 -0.2946 -0.0750
 7511OCT     C215022  19.233  15.824  19.724 -0.0780 -0.0675  0.0906
 7512OCT     C115023  12.491  22.411   5.509 -0.2463  0.0317  0.0709
 7512OCT     C215024  12.231  22.278   5.110  0.2762 -0.1195  0.0700
 7513OCT     C115025   9.529   3.085   9.336  0.0130  0.0466  0.0698
 7513OCT     C215026   9.906   2.788   9.271 -0.2551 -0.0172  0.0587
 7514OCT     C115027  10.316   1.612  14.980 -0.2313 -0.1308  0.2359
 7514OCT     C215028  10.428   2.118  14.800  0.0401 -0.4896  0.0877
 7515OCT     C115029  19.778  21.346  19.413 -0.1605  0.1121 -0.2772
 7515OCT     C215030  19.687  21.137  19.834  0.3184  0.3971  0.1040
 7516OCT     C115031  23.555   6.614  16.225 -0.0814  0.0276 -0.1249
 7516OCT     C215032   0.087   6.465  15.849  0.0932 -0.1690  0.4970
 7517OCT     C115033  20.486  22.342  18.251 -0.0130  0.0286 -0.0543
 7517OCT     C215034  20.670  22.707  18.214 -0.0694 -0.1984  0.4078
 7518OCT     C115035  10.255  15.660  20.700 -0.0023  0.1865  0.0157
 7518OCT     C215036   9.899  15.806  20.952 -0.0177 -0.2171 -0.0697
 7519OCT     C115037  22.723   1.992   9.279 -0.5191 -0.0003 -0.1134
 7519OCT     C215038  22.332   2.082   9.538  0.3281 -0.1994 -0.0623
 7520OCT     C115039  18.344  10.090   4.301  0.0311 -0.1036 -0.2943
 7520OCT     C215040  17.995   9.908   4.576  0.0417 -0.0778  0.1641
 7521OCT     C115041   5.226  23.458   1.366  0.2571 -0.0493  0.3817
 7521OCT     C215042   5.703  23.448   1.513 -0.1342  0.1087 -0.0833
 7522OCT     C115043   6.805  10.738  12.880 -0.3544 -0.1793  0.1927
 7522OCT     C215044   7.194  10.756  12.634  0.0043 -0.0261 -0.2137
 7523OCT     C115045  11.547  11.540   2.878 -0.0251 -0.1001  0.0514
 7523OCT     C215046  11.517  11.890   3.107  0.0804  0.0617 -0.1416
 7524OCT     C115047  18.454  11.367   0.599  0.0094  0.0499  0.0738
 7524OCT     C215048  18.805  11.036   0.491 -0.0060 -0.1303 -0.2188
 7525OCT     C115049   7.694  13.943  17.565  0.0902  0.4168  0.3715
 7525OCT     C215050   7.590  14.041  17.083 -0.0724  0.1997  0.0464
 7526OCT     C115051  19.881   9.664   2.655  0.0073 -0.2719  0.0431
 7526OCT     C215052  20.068   9.547   3.060 -0.1822 -0.0528  0.1885
 7527OCT     C115053  22.092  19.008  10.453 -0.0625  0.0555 -0.1775
 7527OCT     C215054  22.447  19.090  10.666  0.3249 -0.2559  0.3714
 7528OCT     C115055  14.582   4.788  10.296  0.0864 -0.1217  0.3723
 7528OCT     C215056  14.991   4.886  10.223  0.3265 -0.1533 -0.0079
 7529OCT     C115057   0.344   4.582   6.416 -0.2035  0.4942 -0.0825
 7529OCT     C215058   0.427   4.172   6.716 -0.0695  0.0284  0.1086
 7530OCT     C115059  12.521   6.065  21.374 -0.1463 -0.0779  0.2168
 7530OCT     C215060  12.604   5.662  21.156  0.1650 -0.1772 -0.1106
 7531OCT     C115061  17.676   8.077   2.153  0.2741 -0.2466  0.0494
 7531OCT     C215062  17.667   7.672   1.891 -0.0562  0.3479 -0.1641
 7532OCT     C115063   7.317   9.954   6.716 -0.0556  0.2924  0.2518
 7532OCT     C215064   7.036  10.235   6.480 -0.0587  0.2210 -0.0969
 7533OCT     C115065  10.685   5.297  18.539 -0.0428  0.1540  0.0766
 7533OCT     C215066  10.516   5.238  18.076  0.1733  0.2185  0.1408
 7534OCT     C115067  18.823  21.039  17.894 -0.1547 -0.2555  0.0280
 7534OCT     C215068  18.704  21.008  18.383 -0.0249 -0.1765  0.1692
 7535OCT     C115069  11.791  18.806  15.664 -0.0880  0.2523  0.1578
 7535OCT     C215070  11.601  18.804  15.177 -0.0587 -0.1164 -0.0217
 7536OCT     C115071  21.446   4.501  16.167 -0.1832 -0.1479 -0.3466
 7536OCT     C215072  21.531   4.860  16.438 -0.1614  0.4440  0.0839
 7537OCT     C115073  18.043   1.865   1.364  0.1744  0.0285  0.2059
 7537OCT     C215074  18.294   2.171   1.097 -0.1342 -0.1774 -0.1589
 7538OCT     C115075  11.884   5.224   0.595  0.2176  0.0368  0.3196
 7538OCT     C215076  11.522   5.517   0.507 -0.1496  0.2161 -0.2011
 7539OCT     C115077  17.559  18.279  22.816 -0.2013  0.0107 -0.2819
 7539OCT     C215078  17.823  18.168  22.463  0.1789  0.0241 -0.2249
 7540OCT     C115079  10.415  11.133   5.162  0.0134 -0.1908 -0.1353
 7540OCT     C215080  10.875  11.271   5.117 -0.1390  0.1247 -0.1699
 7541OCT     C115081   6.175  14.372   7.459 -0.3201  0.0274  0.0520
 7541OCT     C215082   6.072  14.464   7.070 -0.0856  0.4525 -0.2055
 7542OCT     C115083  15.942   6.905   3.881  0.0051 -0.2513 -0.0464
 7542OCT     C215084  15.558   6.765   4.181 -0.0570 -0.3493 -0.1219
 7543OCT     C115085  11.507  14.481  16.511  0.2713 -0.4613 -0.2940
 7543OCT     C215086  11.218  14.390  16.855 -0.1554  0.1473 -0.0666
 7544OCT     C115087   3.116  23.296  22.970  0.1495 -0.3672 -0.0522
 7544OCT     C215088   3.109  22.823  22.968  0.4724 -0.0703 -0.4034
 7545OCT     C115089  20.382  13.376   6.989  0.2290  0.1534  0.1559
 7545OCT     C215090  19.990  13.505   6.692 -0.1164 -0.4363  0.0135
 7546OCT     C115091   7.329  22.697  18.634 -0.0722 -0.4669 -0.1225
 7546OCT     C215092   7.645  22.870  18.368 -0.1744  0.1158 -0.1592
 7547OCT     C115093  14.263  14.697  21.876 -0.4133  0.0070  0.2513
 7547OCT     C215094  13.939  14.818  22.180 -0.1312  0.0772 -0.0099
 7548OCT     C115095  13.290  22.439  10.959  0.3604  0.3468  0.0747
 7548OCT     C215096  13.472  22.058  10.832  0.2484  0.4526  0.1782
 7549OCT     C115097  17.626  18.525  18.630 -0.2782 -0.0154 -0.0676
 7549OCT     C215098  17.541  18.637  18.175 -0.0744  0.0342  0.1566
 7550OCT     C115099  19.487   9.291  12.152 -0.1107 -0.1832 -0.3025
 7550OCT     C215100  19.154   8.930  12.264 -0.4187  0.0649  0.2356
 7551OCT     C115101  12.928  16.258  21.407 -0.0265  0.2385 -0.0231
 7551OCT     C215102  12.744  16.468  21.840  0.2406 -0.2886  0.0062
 7552OCT     C115103  22.189  17.106   7.814 -0.2128  0.0067 -0.0860
 7552OCT     C215104  22.158  16.826   7.428 -0.2136  0.3034  0.6019
 7553OCT     C115105  11.819  14.955   4.012  0.5887  0.1291  0.0547
 7553OCT     C215106  12.196  15.033   4.355  0.0689 -0.2522 -0.0443
 7554OCT     C115107   2.643  11.540   4.904 -0.0477 -0.0975  0.1165
 7554OCT     C215108   2.975  11.600   5.194  0.3238  0.1481 -0.2559
 7555OCT     C115109  17.243   5.255  13.301 -0.1227 -0.0145 -0.0638
 7555OCT     C215110  16.801   5.353  13.459  0.4011 -0.1560  0.0145
 7556OCT     C115111   1.586  15.605  12.347 -0.1774  0.0564  0.0491
 7556OCT     C215112   1.649  15.580  12.802  0.1300  0.1024  0.3351
 7557OCT     C115113   2.422  12.920  10.703  0.0998  0.2278 -0.2699
 7557OCT     C215114   2.859  12.924  10.514 -0.0053  0.2712 -0.0371
 7558OCT     C115115  17.398   6.497   6.137  0.0091  0.3935  0.2087
 7558OCT     C215116  17.832   6.373   6.274 -0.0690 -0.3157  0.4816
 7559OCT     C115117  10.261  14.715  11.410  0.4679 -0.0279 -0.0669
 7559OCT     C215118  10.555  14.376  11.492  0.1483  0.0601 -0.1638
 7560OCT     C115119   0.011   5.241   9.229  0.2700 -0.4851  0.3124
 7560OCT     C215120  23.421   4.978   9.545 -0.0759  0.0092  0.2703
 7561OCT     C115121  13.287  15.935  20.603  0.6716 -0.1280 -0.1617
 7561OCT     C215122  13.198  16.334  20.453 -0.1395  0.1753 -0.0523
 7562OCT     C115123   6.788   5.713  11.636  0.1291 -0.2425  0.2027
 7562OCT     C215124   6.538   5.314  11.757 -0.0879 -0.1553  0.1357
 7563OCT     C115125   0.051   0.942   4.978 -0.4229  0.0132 -0.0963
 7563OCT     C215126  23.389   0.955   4.682 -0.2712  0.1877  0.1748
 7564OCT     C115127  20.041   0.370   9.182  0.0560 -0.2569 -0.2500
 7564OCT     C215128  20.431   0.580   9.374  0.0359  0.2297  0.1148
 7565OCT     C115129  15.044  14.646   3.851  0.4310 -0.1238  0.2155
 7565OCT     C215130  15.257  14.387   4.192 -0.1542  0.2426 -0.0686
 7566OCT     C115131   9.690   6.937   7.807 -0.0418  0.1325  0.0106
 7566OCT     C215132   9.969   6.802   7.489  0.0531  0.2909 -0.0252
 7567OCT     C115133  16.527  17.440  21.354  0.0326 -0.0572 -0.1924
 7567OCT     C215134  16.100  17.452  21.566 -0.0113  0.0565  0.3272
 7568OCT     C115135   9.516   2.882  10.290 -0.2955  0.0800 -0.0011
 7568OCT     C215136   9.160   3.108  10.142  0.2622  0.2286  0.0436
 7569OCT     C115137   9.405  12.267  12.044  0.0669 -0.2059  0.4525
 7569OCT     C215138   9.241  11.962  12.344 -0.1168  0.0005 -0.1250
 7570OCT     C115139  10.559  11.753   2.732 -0.2597 -0.0201 -0.5275
 7570OCT     C215140  10.936  11.565   2.502  0.2363 -0.1901 -0.0629
 7571OCT     C115141   1.060   8.102   2.674  0.0844  0.0631 -0.0174
 7571OCT     C215142   1.133   8.296   2.236 -0.1103 -0.0161  0.4432
 7572OCT     C115143  13.888   3.949  13.013  0.2948 -0.4898  0.0295
 7572OCT     C215144  14.308   3.951  13.056 -0.0341 -0.1760 -0.0056
 7573OCT     C115145   8.538  17.074  12.729 -0.1427 -0.0739  0.0182
 7573OCT     C215146   8.058  16.997  12.626  0.0627 -0.0901  0.1304
 7574OCT     C115147   1.989   6.658  19.356  0.0725 -0.2440 -0.4736
 7574OCT     C215148   2.324   6.813  19.618  0.1018 -0.4895  0.1173
 7575OCT     C115149  10.642  18.603  16.991  0.1026  0.1333  0.2864
 7575OCT     C215150  10.631  18.849  17.331 -0.1152 -0.3014  0.1900
 7576OCT     C115151  18.928  15.427   8.286 -0.2461  0.0327  0.1904
 7576OCT     C215152  19.332  15.600   8.216 -0.0903 -0.2015 -0.1507
 7577OCT     C115153   2.047   8.737  14.971 -0.1255 -0.0494 -0.0388
 7577OCT     C215154   2.052   9.048  14.634 -0.0575 -0.1429 -0.0583
 7578OCT     C115155  20.523  23.355  23.597 -0.0278  0.0358  0.4712
 7578OCT     C215156  20.432  23.560   0.257  0.0501 -0.0467  0.2219
 7579OCT     C115157  17.776  14.368  18.776 -0.1385  0.0005 -0.2614
 7579OCT     C215158  17.866  14.778  18.543  0.4357 -0.0306  0.0801
 7580OCT     C115159   7.376   7.898  11.543  0.2269 -0.3922  0.2324
 7580OCT     C215160   7.401   8.055  11.986  0.2375  0.0150 -0.1340
 7581OCT     C115161  15.036  16.652  21.471 -0.0115 -0.1307  0.4452
 7581OCT     C215162  15.516  16.681  21.481  0.0878  0.0677 -0.1349
 7582OCT     C115163   4.959   5.644  11.034 -0.1373 -0.2858 -0.1685
 7582OCT     C215164   4.509   5.511  11.187  0.1492 -0.3502  0.1381
 7583OCT     C115165  21.575  16.759   5.670  0.3583 -0.2435  0.1009
 7583OCT     C215166  21.511  16.381   5.439 -0.2990  0.1274 -0.1120
 7584OCT     C115167  11.956  21.895  21.110  0.4588 -0.3571  0.1633
 7584OCT     C215168  12.263  21.728  21.454  0.0237 -0.1611  0.1636
 7585OCT     C115169  20.241  17.154   7.474 -0.2941 -0.1579  0.5170
 7585OCT     C215170  20.107  17.449   7.806 -0.1196  0.0545  0.1195
 7586OCT     C115171   1.342  20.799   2.718  0.0344 -0.2113  0.1872
 7586OCT     C215172   1.161  21.134   2.493  0.0693  0.0884  0.2151
 7587OCT     C115173   3.132  16.198  15.894 -0.1926 -0.0491 -0.0275
 7587OCT     C215174   3.412  15.862  15.973 -0.0924 -0.0915 -0.1479
 7588OCT     C115175  15.600  19.228   0.242  0.1236 -0.2926 -0.2840
 7588OCT     C215176  15.514  18.847   0.513  0.0203 -0.0168  0.0036
 7589OCT     C115177  19.465   1.086   6.919  0.2069 -0.3734 -0.0177
 7589OCT     C215178  19.684   0.662   6.837  0.3227  0.2150 -0.0705
 7590OCT     C115179  10.373  17.857  20.231  0.1552 -0.0773 -0.0477
 7590OCT     C215180  10.124  18.090  19.932 -0.4053 -0.0772  0.0728
 7591OCT     C115181  22.950  13.997   8.206 -0.1378 -0.0076 -0.0060
 7591OCT     C215182  22.866  14.423   8.185 -0.0986 -0.0268 -0.3673
 7592OCT     C115183  19.054   7.461  22.388 -0.3922  0.0573 -0.1353
 7592OCT     C215184  18.656   7.214  22.275 -0.0279 -0.3826  0.2744
 7593OCT     C115185  15.635  17.481  18.469 -0.1244 -0.2201  0.2285
 7593OCT     C215186  15.893  17.439  18.104  0.1059  0.2065 -0.1819
 7594OCT     C115187  21.960   3.308  22.967 -0.1947 -0.1688  0.0180
 7594OCT     C215188  21.672   3.236  23.351 -0.0291 -0.2048  0.1130
 7595OCT     C115189  12.332   9.802  10.847 -0.0155  0.0459 -0.0541
 7595OCT     C215190  12.795   9.840  10.671 -0.2528 -0.2014 -0.0552
 7596OCT     C115191   5.897  13.317  19.913 -0.0514  0.0747 -0.2072
 7596OCT     C215192   6.370  13.418  20.074  0.2768 -0.1387 -0.3763
 7597OCT     C115193  14.763  14.559   4.307 -0.1186  0.0881 -0.4135
 7597OCT     C215194  14.483  14.209   4.272  0.0335  0.1357  0.2165
 7598OCT     C115195  14.722   7.290  10.609  0.2511  0.0962 -0.2769
 7598OCT     C215196  15.054   7.504  10.908  0.1889  0.1736 -0.1106
 7599OCT     C115197  22.272   0.099   2.652  0.0199 -0.1085 -0.0490
 7599OCT     C215198  22.580  23.718   2.992  0.2814 -0.1427 -0.3584
 7600OCT     C115199  17.012   6.533  18.046  0.3542 -0.0042  0.0381
 7600OCT     C215200  17.176   6.793  17.696 -0.1375 -0.2031 -0.0642
 7601OCT     C115201   9.386  18.739  12.240  0.0572 -0.0780 -0.0734
 7601OCT     C215202   9.108  18.800  12.642  0.1845  0.2393 -0.0807
 7602OCT     C115203  14.474   9.104   6.199 -0.1638 -0.1198 -0.0369
 7602OCT     C215204  14.617   9.444   6.500  0.2201  0.0954  0.1715
 7603OCT     C115205   1.848  10.186   3.097 -0.3862 -0.1578  0.0060
 7603OCT     C215206   1.608  10.069   2.664  0.2027 -0.0507  0.4901
 7604OCT     C115207  22.144  16.724  13.759  0.2264 -0.2445 -0.1688
 7604OCT     C215208  21.660  16.687  13.694 -0.2381  0.0444 -0.4925
 7605OCT     C115209  14.521  16.804   5.850  0.3769 -0.0760 -0.3803
 7605OCT     C215210  14.392  17.097   6.129 -0.1820 -0.3414  0.0327
 7606OCT     C115211   8.825   0.641  15.777  0.1192  0.2073 -0.0818
 7606OCT     C215212   8.568   0.703  16.201 -0.1398 -0.1696  0.3366
 7607OCT     C115213  16.533   3.175   8.123 -0.1022  0.0121  0.1011
 7607OCT     C215214  16.324   3.096   7.711 -0.1723 -0.0185  0.3615
 7608OCT     C115215   1.357  17.766  11.691  0.3183  0.0278 -0.4061
 7608OCT     C215216   1.524  17.335  11.852 -0.2004 -0.1271  0.3379
 7609OCT     C115217  16.119   5.752  21.784 -0.0913  0.3252  0.0676
 7609OCT     C215218  16.112   5.337  21.967  0.0236 -0.2121 -0.0869
 7610OCT     C115219   0.134   9.877   3.382  0.1934  0.1165 -0.1075
 7610OCT     C215220   0.519   9.743   3.444 -0.0940 -0.0122  0.0160
 7611OCT     C115221  16.674  14.094  18.712  0.0396 -0.0127  0.2299
 7611OCT     C215222  16.378  13.993  19.065  0.1711  0.1442  0.2072
 7612OCT     C115223  20.618   4.525  12.956  0.0040  0.0641  0.5263
 7612OCT     C215224  20.874   4.823  12.658 -0.0057  0.1741  0.0954
 7613OCT     C115225  10.362  23.675   0.041 -0.1169  0.1651  0.1592
 7613OCT     C215226  10.001  23.443  23.565 -0.3708 -0.2008  0.0810
 7614OCT     C115227  14.824   4.249   4.818  0.1657 -0.0593 -0.0171
 7614OCT     C215228  15.196   4.013   4.840 -0.2180 -0.0887  0.2067
 7615OCT     C115229  18.066  12.824  10.699  0.1967  0.3299  0.1391
 7615OCT     C215230  18.326  12.442  10.695  0.1437  0.0027  0.4208
 7616OCT     C115231  19.036  12.231  13.289 -0.0794  0.2363  0.4258
 7616OCT     C215232  19.042  11.788  13.351 -0.0155  0.0018 -0.0531
 7617OCT     C115233  17.656   7.739   5.718 -0.0665  0.1386  0.0285
 7617OCT     C215234  17.572   8.221   5.638 -0.2489  0.4239  0.0056
 7618OCT     C115235   2.129   2.158  19.650  0.1289  0.0735  0.0339
 7618OCT     C215236   2.183   2.617  19.561  0.0727 -0.0252  0.0485
 7619OCT     C115237   5.629  20.759  19.953 -0.0682 -0.0095 -0.0362
 7619OCT     C215238   5.503  20.440  19.597 -0.1935 -0.0815 -0.0704
 7620OCT     C115239  15.533   0.465   5.320  0.2495 -0.1386 -0.1763
 7620OCT     C215240  15.568   0.212   5.713  0.1681  0.1108  0.1661
 7621OCT     C115241  13.613  12.836   4.870  0.1057  0.1127 -0.1468
 7621OCT     C215242  13.771  12.674   4.491  0.1490  0.1223 -0.1238
 7622OCT     C115243  17.869  16.720  23.253  0.0645 -0.0096  0.1818
 7622OCT     C215244  18.068  17.027  23.048  0.0415 -0.0640  0.2350
 7623OCT     C115245  15.336  10.577  20.797  0.2142  0.0464 -0.0637
 7623OCT     C215246  15.509  10.899  21.099  0.1808 -0.1539 -0.0741
 7624OCT     C115247   7.386  13.870  21.806 -0.0008 -0.3384 -0.1077
 7624OCT     C215248   7.639  13.418  21.867  0.2695  0.0154  0.1450
 7625OCT     C115249   5.399  17.731  17.342 -0.4079  0.1401 -0.0244
 7625OCT     C215250   4.995  17.811  17.113 -0.3795 -0.3092  0.1964
 7626OCT     C115251   2.104   4.578   2.973  0.0238 -0.1725  0.3039
 7626OCT     C215252   1.877   4.534   3.374  0.0508 -0.3239 -0.0137
 7627OCT     C115253  11.876   3.400   6.536 -0.1750 -0.0056  0.0902
 7627OCT     C215254  11.793   3.812   6.745 -0.3902  0.1949  0.2547
 7628OCT     C115255   9.027   5.919   9.675 -0.0699  0.0246 -0.0537
 7628OCT     C215256   9.271   5.520   9.721  0.0421  0.0935  0.0479
 7629OCT     C115257   5.366  19.018   5.287 -0.0400  0.2967 -0.0921
 7629OCT     C215258   5.100  18.739   4.983  0.0657 -0.4306 -0.1371
 7630OCT     C115259  15.340  12.709  20.933  0.0049 -0.4531  0.1577
 7630OCT     C215260  15.539  12.495  20.572  0.1757 -0.1612  0.1997
 7631OCT     C115261  18.748  22.614   5.573 -0.2545 -0.2983 -0.0628
 7631OCT     C215262  18.433  22.661   5.222  0.1950 -0.1110 -0.3121
 7632OCT     C115263   5.659  18.897  10.293 -0.4014 -0.0006 -0.2206
 7632OCT     C215264   5.264  18.710  10.166  0.1084  0.0262  0.0001
 7633OCT     C115265  18.422   4.951  10.359 -0.1732  0.1188  0.5321
 7633OCT     C215266  18.489   4.508  10.392  0.1180  0.1759 -0.1555
 7634OCT     C115267   8.510  11.550  13.676 -0.0708 -0.0464  0.1191
 7634OCT     C215268   8.279  11.947  13.840 -0.0674  0.1084 -0.1318
 7635OCT     C115269   3.272   3.715  12.495  0.1210  0.3271  0.2550
 7635OCT     C215270   2.836   3.590  12.459 -0.1882  0.0025  0.1136
 7636OCT     C115271   7.437  17.837   0.352 -0.0274  0.2444 -0.2520
 7636OCT     C215272   7.528  17.477   0.579  0.1448  0.3551 -0.3188
 7637OCT     C115273  10.279  11.168   7.631 -0.1440  0.1001 -0.1463
 7637OCT     C215274  10.596  11.176   7.302  0.0716  0.0005 -0.1494
 7638OCT     C115275  14.318  21.677   2.860  0.0286  0.0801  0.3262
 7638OCT     C215276  13.899  21.531   2.681 -0.0152  0.2521  0.1762
 7639OCT     C115277   3.775  15.027   2.468  0.5567 -0.1681 -0.0343
 7639OCT     C215278   4.170  15.063   2.692  0.1554 -0.3280  0.0738
 7640OCT     C115279  12.308  21.837  17.639  0.1210  0.0890 -0.0206
 7640OCT     C215280  12.485  22.205  17.758 -0.1909  0.4249  0.2238
 7641OCT     C115281  16.754  14.933  12.511 -0.0167 -0.0315 -0.3976
 7641OCT     C215282  16.331  15.069  12.444  0.0893  0.1909 -0.0325
 7642OCT     C115283   1.365  12.886  13.586  0.1470  0.1245 -0.1043
 7642OCT     C215284   1.370  12.804  14.051  0.1268  0.1393  0.0997
 7643OCT     C115285   6.679  11.797   8.114  0.4154  0.1126  0.0890
 7643OCT     C215286   6.737  12.261   8.231 -0.3712  0.1887 -0.0770
 7644OCT     C115287   9.926  16.917  23.588 -0.1123  0.1452 -0.1771
 7644OCT     C215288   9.733  16.520  23.470 -0.1781 -0.0669  0.0464
 7645OCT     C115289  10.187  10.030  11.858 -0.2439  0.1900  0.1073
 7645OCT     C215290  10.239   9.667  11.567  0.1015  0.1757  0.0196
 7646OCT     C115291  20.919   3.607   6.395  0.3578 -0.2973  0.1160
 7646OCT     C215292  20.727   3.846   6.017  0.4005  0.2006 -0.0196
 7647OCT     C115293  17.533   2.394  14.199 -0.1643  0.2033 -0.1684
 7647OCT     C215294  17.961   2.247  14.220 -0.0827 -0.2379 -0.1358
 7648OCT     C115295   9.407   7.583   6.018  0.0061  0.1451 -0.1088
 7648OCT     C215296   9.239   7.442   6.452 -0.1792 -0.0248 -0.3161
 7649OCT     C115297   7.319  14.029  22.272  0.0232  0.1414 -0.5004
 7649OCT     C215298   7.635  14.387  22.164  0.3913  0.1371  0.0990
 7650OCT     C115299  23.530   3.162   3.913 -0.3066  0.2284  0.5630
 7650OCT     C215300  23.502   3.478   4.223 -0.1411  0.2454  0.1992
 7651OCT     C115301   2.017  17.922   9.766  0.1668  0.1070  0.0109
 7651OCT     C215302   2.341  18.183   9.642 -0.2440  0.0620  0.2008
 7652OCT     C115303  21.730  20.565  14.972  0.1759  0.0916 -0.1029
 7652OCT     C215304  21.714  20.837  15.297 -0.1957 -0.2285  0.2208
 7653OCT     C115305  11.947  12.461  16.030  0.3327 -0.0114  0.0875
 7653OCT     C215306  12.235  12.550  15.628 -0.0574 -0.1502  0.1484
 7654OCT     C115307   2.773   0.487   6.377  0.0275 -0.1019 -0.2398
 7654OCT     C215308   3.068   0.162   6.586  0.0905 -0.2262  0.1748
 7655OCT     C115309  14.812   9.491   3.612 -0.4069  0.2968 -0.2854
 7655OCT     C215310  14.854   9.876   3.899 -0.2222 -0.1592  0.2377
 7656OCT     C115311   3.572   1.004  16.652  0.0474  0.1599  0.1104
 7656OCT     C215312   3.667   0.761  16.283  0.3210  0.1027 -0.0483
 7657OCT     C115313  18.191   6.119   9.344 -0.2180 -0.0973  0.1552
 7657OCT     C215314  17.864   6.108   9.636 -0.0931  0.0884  0.3418
 7658OCT     C115315  14.621   9.236  16.941  0.0549 -0.2452 -0.0116
 7658OCT     C215316  14.379   9.011  17.234 -0.1513  0.2610  0.2424
 7659OCT     C115317   0.238   0.308  11.872 -0.1297  0.3544 -0.0500
 7659OCT     C215318   0.449   0.012  12.188 -0.2002  0.0262 -0.0008
 7660OCT     C115319  12.228  12.585   6.795 -0.3374 -0.2044 -0.0019
 7660OCT     C215320  12.504  12.141   6.693  0.1097  0.2675 -0.0514
 7661OCT     C115321   4.688  14.304  21.728  0.1397  0.0248  0.2584
 7661OCT     C215322   4.905  14.757  21.678 -0.2215 -0.4455 -0.0915
 7662OCT     C115323  12.233   8.731  17.044 -0.2402 -0.3501  0.0094
 7662OCT     C215324  12.016   8.331  17.115  0.0190 -0.0118 -0.1455
 7663OCT     C115325  22.526  20.312   0.730 -0.1241  0.0832  0.0019
 7663OCT     C215326  22.933  20.287   0.415 -0.1021  0.2997 -0.1993
 7664OCT     C115327  12.530  15.825  21.424  0.0163 -0.2431 -0.0611
 7664OCT     C215328  12.397  15.696  20.999 -0.1713  0.2162  0.0457
 7665OCT     C115329   9.543  12.260  16.419  0.0935 -0.1944 -0.4216
 7665OCT     C215330   9.140  12.351  16.680  0.1013 -0.1613 -0.1085
 7666OCT     C115331  13.898  11.115  15.206  0.0127 -0.2242 -0.3933
 7666OCT     C215332  13.915  11.188  15.624  0.3625 -0.1413 -0.3080
 7667OCT     C115333  12.155  15.716  17.232 -0.0661 -0.1597  0.1143
 7667OCT     C215334  12.358  15.595  17.586 -0.0373  0.2968 -0.2843
 7668OCT     C115335   9.809  17.726   0.563 -0.1009  0.2225 -0.0475
 7668OCT     C215336  10.092  17.410   0.814  0.0442  0.3374 -0.1626
 7669OCT     C115337  19.344  12.620   7.283 -0.0490 -0.2679  0.0722
 7669OCT     C215338  18.863  12.641   7.305  0.2068  0.2089  0.0982
 7670OCT     C115339   7.737  14.003  20.671 -0.0750 -0.0860  0.0504
 7670OCT     C215340   7.382  14.346  20.755 -0.0717  0.1852 -0.4593
 7671OCT     C115341   9.233  10.667  21.984 -0.1993 -0.4194 -0.0353
 7671OCT     C215342   8.978  11.021  21.833  0.1098  0.2419  0.1390
 7672OCT     C115343   7.013  21.745  20.586 -0.1925 -0.2318  0.2855
 7672OCT     C215344   7.127  22.181  20.841  0.1006 -0.0097 -0.2246
 7673OCT     C115345  11.251  19.708   1.526  0.1159 -0.0533  0.1464
 7673OCT     C215346  10.886  19.807   1.728 -0.0546 -0.1913  0.1004
 7674OCT     C115347   6.678   5.476  12.900  0.2429 -0.0962 -0.0076
 7674OCT     C215348   6.586   5.012  12.702 -0.3617  0.0981  0.1645
 7675OCT     C115349   4.864  20.749  12.719  0.0930 -0.1090  0.3027
 7675OCT     C215350   5.273  20.844  12.576 -0.3281 -0.1484 -0.0338
 7676OCT     C115351   6.577  22.400  15.487 -0.1272 -0.0329  0.0507
 7676OCT     C215352   6.773  22.303  15.117 -0.1188  0.2697 -0.2156
 7677OCT     C115353   3.771   6.513  14.700  0.2095  0.2836 -0.3236
 7677OCT     C215354   3.587   6.077  14.755  0.1192 -0.0947 -0.1775
 7678OCT     C115355   0.097   0.400  14.162 -0.0329  0.1713 -0.2074
 7678OCT     C215356  23.716   0.293  14.602  0.0619  0.3070 -0.1360
 7679OCT     C115357  14.883   5.545  13.048  0.2965  0.3352  0.1544
 7679OCT     C215358  14.810   5.924  12.724 -0.0523 -0.0572 -0.0410
 7680OCT     C115359   7.446   0.895  15.353 -0.0047 -0.1664 -0.2000
 7680OCT     C215360   7.241   0.778  15.763 -0.2611 -0.3423 -0.1611
 7681OCT     C115361  13.012  23.352   8.987 -0.0524 -0.1503 -0.1218
 7681OCT     C215362  12.993  23.644   9.348 -0.1227 -0.5138  0.1750
 7682OCT     C115363   6.146  10.139   3.309  0.0476  0.0997  0.0143
 7682OCT     C215364   6.511  10.341   3.042 -0.2987 -0.0113 -0.2535
 7683OCT     C115365  14.282   6.261   2.653 -0.0902  0.1718  0.0522
 7683OCT     C215366  14.217   5.831   2.833  0.1603  0.0842 -0.2068
 7684OCT     C115367  11.824   7.344  15.417  0.2151 -0.0076  0.0833
 7684OCT     C215368  12.156   7.477  15.713  0.0532 -0.0551  0.2779
 7685OCT     C115369   2.673  17.847  13.551 -0.2694  0.0658 -0.0889
 7685OCT     C215370   2.507  17.417  13.665 -0.0616 -0.2252 -0.0823
 7686OCT     C115371   9.599   8.326  17.822  0.1275 -0.1811  0.3965
 7686OCT     C215372   9.120   8.438  17.959  0.0577 -0.7102 -0.1213
 7687OCT     C115373  23.076  21.445  17.485  0.0036  0.3638  0.0023
 7687OCT     C215374  23.335  21.339  17.882  0.2199 -0.3876 -0.2145
 7688OCT     C115375   4.625  23.289   5.253  0.3252 -0.3498  0.2374
 7688OCT     C215376   4.465  23.692   5.114  0.4414 -0.2497 -0.1964
 7689OCT     C115377   9.763   4.817   9.474 -0.0084  0.2640 -0.3304
 7689OCT     C215378   9.988   4.532   9.795  0.1697 -0.3502 -0.1590
 7690OCT     C115379   4.519  15.137  21.634  0.0671  0.6102 -0.4821
 7690OCT     C215380   4.045  14.996  21.553 -0.3939 -0.0404 -0.2530
 7691OCT     C115381  20.983  15.095   4.743 -0.1192 -0.0568  0.0881
 7691OCT     C215382  20.975  14.643   4.812  0.2428  0.2032  0.1172
 7692OCT     C115383   4.664   3.017  21.693 -0.0566 -0.2217  0.1368
 7692OCT     C215384   4.328   2.866  21.388  0.0334 -0.2844  0.0125
 7693OCT     C115385   2.461  23.106   1.678  0.1120 -0.0417 -0.1411
 7693OCT     C215386   2.835  23.329   1.812  0.1061  0.0246 -0.0279
 7694OCT     C115387   2.880   3.110   4.723  0.0089 -0.0074  0.0280
 7694OCT     C215388   2.658   2.697   4.753 -0.1032 -0.1177  0.2867
 7695OCT     C115389  17.241   9.740  16.605 -0.1325 -0.3553 -0.2223
 7695OCT     C215390  16.856   9.561  16.788  0.0229  0.1208  0.1306
 7696OCT     C115391   6.916  20.388   5.495 -0.1885  0.0501 -0.4079
 7696OCT     C215392   6.970  20.003   5.236  0.1790  0.1005 -0.2048
 7697OCT     C115393  15.951  18.274  19.518 -0.1439  0.1397 -0.1696
 7697OCT     C215394  16.328  18.113  19.733  0.2040 -0.0888 -0.0961
 7698OCT     C115395  14.506   7.352   4.996 -0.2096  0.2134 -0.1448
 7698OCT     C215396  14.155   7.647   5.008  0.1292 -0.3129 -0.2466
 7699OCT     C115397   8.655  18.223  12.778 -0.2329  0.0241  0.0459
 7699OCT     C215398   8.351  17.857  12.846 -0.0919  0.2261  0.1163
 7700OCT     C115399  14.793  22.095   9.194 -0.1728  0.0884 -0.0918
 7700OCT     C215400  14.625  21.833   9.537 -0.0881 -0.3745  0.4736
 7701OCT     C115401   9.904   9.478  10.799 -0.5170 -0.1650  0.2545
 7701OCT     C215402  10.220   9.509  11.110 -0.0590 -0.0376  0.5167
 7702OCT     C115403  12.326  18.120   6.387  0.2651 -0.0403 -0.0621
 7702OCT     C215404  12.333  18.547   6.227  0.2179  0.1149 -0.3197
 7703OCT     C115405  18.255  19.863  18.860 -0.1537  0.1344 -0.4760
 7703OCT     C215406  18.288  19.522  19.164  0.4208 -0.2850  0.1769
 7704OCT     C115407  18.802   5.024   7.248  0.1486 -0.2701  0.0895
 7704OCT     C215408  18.944   4.977   7.667 -0.2996  0.2570  0.2685
 7705OCT     C115409  12.527   0.122  15.770 -0.0455  0.1999  0.0383
 7705OCT     C215410  12.330   0.532  15.791 -0.1029  0.0904  0.0713
 7706OCT     C115411  20.753   2.809  11.069  0.2474 -0.4314 -0.1712
 7706OCT     C215412  20.534   2.826  11.525 -0.0810  0.0220 -0.1166
 7707OCT     C115413   4.537   1.139  22.901 -0.0926 -0.2492  0.3669
 7707OCT     C215414   4.284   1.483  22.607  0.2259  0.4829  0.2216
 7708OCT     C115415   5.707   6.289  14.749  0.0788  0.2179  0.1927
 7708OCT     C215416   5.744   6.365  14.282 -0.2347  0.2373  0.1831
 7709OCT     C115417  15.696  19.511  20.604 -0.1453  0.1732  0.1333
 7709OCT     C215418  15.760  19.854  20.954  0.0362  0.3028 -0.0798
 7710OCT     C115419  14.363  19.365  11.200  0.2420  0.1261  0.1114
 7710OCT     C215420  14.460  19.558  11.592 -0.4197  0.3466  0.0383
 7711OCT     C115421  11.000   2.162  10.274  0.0472 -0.0866 -0.4944
 7711OCT     C215422  10.649   2.101  10.535 -0.0845  0.3231 -0.0540
 7712OCT     C115423  23.053  22.972  10.512  0.1313 -0.0486 -0.0949
 7712OCT     C215424  23.435  22.792  10.693 -0.0466  0.1069  0.1521
 7713OCT     C115425  10.799  21.048   1.094 -0.3808 -0.0414 -0.0672
 7713OCT     C215426  10.790  20.980   0.611  0.4096 -0.0267  0.0162
 7714OCT     C115427   2.244   7.129  17.695 -0.1176 -0.1780 -0.2960
 7714OCT     C215428   1.968   7.463  17.534  0.0584 -0.0914 -0.0138
 7715OCT     C115429  21.436   1.944  13.729 -0.1610 -0.3257  0.0431
 7715OCT     C215430  21.071   1.825  13.530 -0.0255  0.0944 -0.0186
 7716OCT     C115431  22.326  17.019   5.990 -0.0672 -0.1138  0.3148
 7716OCT     C215432  21.914  17.054   6.067 -0.4313 -0.4734  0.1340
 7717OCT     C115433  17.358  18.334  10.458 -0.0699  0.0173  0.1020
 7717OCT     C215434  17.018  18.123  10.634  0.0222 -0.2868 -0.1224
 7718OCT     C115435  22.879  10.558  14.634 -0.0052 -0.1680  0.2127
 7718OCT     C215436  23.021  10.436  15.042  0.2966  0.0875  0.1754
 7719OCT     C115437   9.904   0.351  14.790 -0.3303  0.1033 -0.0246
 7719OCT     C215438   9.600   0.543  14.425 -0.3566 -0.0102  0.1830
 7720OCT     C115439   0.036  15.103  15.252  0.1138  0.0819 -0.1405
 7720OCT     C215440   0.399  14.961  15.503 -0.0210  0.1855 -0.2746
 7721OCT     C115441  18.202  17.040   7.056 -0.0533  0.0337  0.1370
 7721OCT     C215442  18.627  17.331   7.045 -0.2092  0.1782  0.3921
 7722OCT     C115443  17.862  14.995   8.826 -0.0868 -0.0699 -0.1308
 7722OCT     C215444  17.665  15.404   8.620  0.3020  0.2740  0.1043
 7723OCT     C115445  16.642  19.119  19.717  0.1608 -0.1205 -0.0560
 7723OCT     C215446  16.513  19.168  20.201  0.2912 -0.0475 -0.1319
 7724OCT     C115447  11.725  18.771   6.490 -0.0341 -0.1865 -0.3613
 7724OCT     C215448  11.908  18.315   6.582  0.1361 -0.2540  0.5396
 7725OCT     C115449  22.205  19.508   6.456 -0.0077 -0.3460  0.0615
 7725OCT     C215450  21.794  19.482   6.304 -0.0073 -0.0905  0.0493
 7726OCT     C115451  10.703  13.550   5.101  0.2483 -0.0790  0.3254
 7726OCT     C215452  10.333  13.755   4.949  0.0296 -0.1388 -0.0786
 7727OCT     C115453   2.153   6.378   2.898 -0.1416 -0.2719  0.0613
 7727OCT     C215454   1.728   6.425   2.766 -0.1411  0.2172  0.1224
 7728OCT     C115455   6.150   9.149  12.664  0.0402  0.0848  0.3452
 7728OCT     C215456   5.995   8.706  12.843 -0.1599  0.5524  0.0209
 7729OCT     C115457   9.184   6.098  23.442  0.1316 -0.2364  0.1174
 7729OCT     C215458   9.041   5.919   0.090 -0.2038  0.2037 -0.0738
 7730OCT     C115459  21.893   5.648   6.147  0.1521 -0.1612  0.1692
 7730OCT     C215460  22.154   5.316   6.331 -0.2026 -0.0648 -0.0257
 7731OCT     C115461  18.649  20.749   5.840 -0.0830 -0.1889 -0.1577
 7731OCT     C215462  18.875  20.325   6.064  0.1358  0.1342 -0.2585
 7732OCT     C115463  10.836  12.425   3.636  0.0110  0.2546 -0.0634
 7732OCT     C215464  11.080  12.198   3.941  0.1414 -0.2172 -0.3244
 7733OCT     C115465   8.795  21.873   0.543  0.1116 -0.1012  0.0587
 7733OCT     C215466   8.617  22.267   0.489 -0.1227 -0.1242  0.2012
 7734OCT     C115467  21.734  15.934   2.261 -0.0800  0.0379  0.0207
 7734OCT     C215468  21.229  16.016   2.343 -0.4519 -0.1191 -0.0832
 7735OCT     C115469  13.230   5.172  15.769 -0.1439 -0.1997 -0.1545
 7735OCT     C215470  13.677   5.273  15.775 -0.5916 -0.1460 -0.0758
 7736OCT     C115471  19.356  13.732  13.261 -0.3760  0.2527  0.3152
 7736OCT     C215472  19.400  13.537  13.714  0.1968 -0.1400  0.3215
 7737OCT     C115473   7.016  22.396   3.100 -0.0237 -0.1821 -0.1281
 7737OCT     C215474   6.713  22.728   2.936 -0.0806  0.0603 -0.0980
 7738OCT     C115475  10.750   2.051   6.667 -0.0768 -0.2618  0.2865
 7738OCT     C215476  11.012   1.829   6.404  0.3501  0.1437 -0.0666
 7739OCT     C115477   7.185  17.420   1.510 -0.3774  0.2201 -0.3441
 7739OCT     C215478   6.867  17.435   1.813  0.1777 -0.0928 -0.0796
 7740OCT     C115479   9.904   9.984   7.748  0.1264 -0.2876 -0.1591
 7740OCT     C215480   9.843  10.110   8.166  0.1728  0.3755 -0.2181
 7741OCT     C115481  18.027   0.600  14.931 -0.0142 -0.1237  0.2108
 7741OCT     C215482  17.849   0.218  14.806  0.1896  0.1491 -0.3152
 7742OCT     C115483  17.621  17.174   1.930  0.4701 -0.0887 -0.4109
 7742OCT     C215484  17.212  17.451   1.962 -0.1221  0.2820  0.1272
 7743OCT     C115485  12.019  13.803  18.863  0.2350  0.2646  0.2582
 7743OCT     C215486  12.342  13.682  18.513 -0.0039 -0.1727  0.0176
 7744OCT     C115487  22.944   2.847  15.303 -0.1192  0.0392  0.0346
 7744OCT     C215488  22.937   3.305  15.137  0.1048 -0.1061  0.1697
 7745OCT     C115489  19.737   5.193  22.267  0.0506 -0.1302 -0.0118
 7745OCT     C215490  19.595   4.880  22.654  0.3117  0.1045 -0.1110
 7746OCT     C115491   8.525  14.363  22.530 -0.1225 -0.1027 -0.1298
 7746OCT     C215492   8.177  14.092  22.759  0.0522  0.2501  0.0328
 7747OCT     C115493  21.133  20.683  12.136  0.1938 -0.3157 -0.1665
 7747OCT     C215494  20.690  20.461  12.067 -0.1459 -0.1926 -0.1638
 7748OCT     C115495  20.331   7.857  17.115  0.2466  0.1391  0.1679
 7748OCT     C215496  20.034   7.589  17.376  0.0488  0.1686 -0.0429
 7749OCT     C115497  17.228  13.639  14.458 -0.0280 -0.2531  0.0484
 7749OCT     C215498  17.035  14.095  14.518  0.1584 -0.0537 -0.1619
 7750OCT     C115499  20.641   0.172   9.822 -0.0046 -0.2302 -0.0303
 7750OCT     C215500  20.708   0.661   9.807 -0.0556 -0.0703 -0.2069
 7751OCT     C115501  12.142   2.051  10.990 -0.0003  0.0601  0.2074
 7751OCT     C215502  12.045   2.410  10.735 -0.0249  0.0868 -0.1796
 7752OCT     C115503   4.328  22.161   5.879 -0.1324  0.1619 -0.1742
 7752OCT     C215504   4.507  21.984   5.551 -0.1363  0.1838 -0.1015
 7753OCT     C115505   8.559  15.667   7.017  0.1624 -0.1328  0.1591
 7753OCT     C215506   8.549  16.068   7.259 -0.3151  0.0337  0.0812
 7754OCT     C115507  20.654   8.179  19.803  0.2120 -0.1810 -0.0266
 7754OCT     C215508  20.982   7.873  19.673 -0.0463 -0.0724 -0.1565
 7755OCT     C115509  17.378   2.629  17.884  0.0030  0.0673 -0.1834
 7755OCT     C215510  17.286   2.333  18.170  0.0128 -0.0213  0.1855
 7756OCT     C115511  19.698  22.411  11.126 -0.2045 -0.5234 -0.0904
 7756OCT     C215512  19.629  22.599  11.497 -0.2500 -0.1714 -0.1368
 7757OCT     C115513  14.199   4.616   8.451 -0.4858  0.0149 -0.0155
 7757OCT     C215514  14.394   4.892   8.771  0.2749  0.3710 -0.1662
 7758OCT     C115515  18.716   8.592  14.239 -0.0422 -0.0076  0.0009
 7758OCT     C215516  18.881   8.491  14.706  0.3444 -0.1303  0.4406
 7759OCT     C115517  20.566   3.652  12.388  0.2668  0.3528  0.0810
 7759OCT     C215518  21.027   3.709  12.532  0.2211  0.0004  0.2104
 7760OCT     C115519   8.666  23.236  10.142 -0.1921 -0.0463 -0.1088
 7760OCT     C215520   8.419  22.843  10.276  0.0728 -0.1452  0.0278
 7761OCT     C115521   4.803  12.926   5.808 -0.0415 -0.0264  0.1075
 7761OCT     C215522   4.749  12.501   5.985 -0.0585 -0.3811  0.0372
 7762OCT     C115523   4.882   3.426   1.694  0.1379  0.1992 -0.0132
 7762OCT     C215524   5.038   3.076   1.391 -0.2798 -0.0660 -0.0101
 7763OCT     C115525  20.226  14.670   7.947 -0.4039 -0.1392  0.0701
 7763OCT     C215526  20.651  14.565   7.796 -0.0121 -0.1433  0.0560
 7764OCT     C115527  21.133  22.471  16.756  0.0439  0.2138  0.2877
 7764OCT     C215528  20.880  22.478  16.287 -0.0976  0.2335 -0.0039
 7765OCT     C115529  11.246   8.154  15.700  0.1532  0.2544 -0.3920
 7765OCT     C215530  11.660   7.911  15.645 -0.4249  0.1484 -0.3269
 7766OCT     C115531   6.146  13.270   1.485 -0.4457 -0.4048 -0.2504
 7766OCT     C215532   6.570  13.332   1.627  0.0632  0.0160  0.0501
 7767OCT     C115533  15.761   5.847   8.779 -0.1802 -0.1405  0.0530
 7767OCT     C215534  15.780   6.129   9.090 -0.3073  0.2496 -0.1954
 7768OCT     C115535   1.390  16.279  14.578 -0.2344 -0.0472  0.2406
 7768OCT     C215536   1.553  16.032  14.148  0.1642 -0.1030 -0.1763
 7769OCT     C115537   5.969  18.725  18.734 -0.1595  0.0243  0.2252
 7769OCT     C215538   5.519  18.563  18.778 -0.4730  0.0561 -0.1295
 7770OCT     C115539   3.086   7.827  14.579  0.2778 -0.3175 -0.3167
 7770OCT     C215540   3.206   7.671  14.117  0.0961  0.1832  0.2387
 7771OCT     C115541   6.034   3.513  15.579  0.1018 -0.0430  0.0641
 7771OCT     C215542   5.658   3.410  15.315  0.3562 -0.2696  0.0032
 7772OCT     C115543  11.162  11.099  17.920 -0.1355  0.0119  0.2097
 7772OCT     C215544  11.089  11.506  17.801  0.3560 -0.0282  0.2619
 7773OCT     C115545   6.944  22.648   6.916 -0.1518  0.0131  0.2006
 7773OCT     C215546   7.209  22.952   6.630  0.0795  0.3523  0.0782
 7774OCT     C115547   2.265  19.216   1.393 -0.0992  0.1547 -0.0765
 7774OCT     C215548   2.275  18.921   1.737  0.2104  0.1172  0.1089
 7775OCT     C115549  13.263  23.147   2.776 -0.0251 -0.0564  0.3819
 7775OCT     C215550  13.600  23.466   2.928 -0.0945 -0.4409  0.1877
 7776OCT     C115551   6.440   7.338   4.547  0.0378 -0.4969  0.3254
 7776OCT     C215552   6.819   7.193   4.409  0.1931  0.0901 -0.0886
 7777OCT     C115553  11.774  19.759  19.382  0.1029 -0.1371  0.0069
 7777OCT     C215554  11.283  19.701  19.292 -0.0062  0.0253  0.3109
 7778OCT     C115555  20.607  18.602  11.396 -0.4974 -0.2177  0.3610
 7778OCT     C215556  20.817  18.897  11.066 -0.1439  0.3267  0.0546
 7779OCT     C115557  15.359   8.507  15.953  0.1324  0.2665 -0.0780
 7779OCT     C215558  15.751   8.441  16.190  0.3406  0.0991  0.2733
 7780OCT     C115559   3.477  15.801   2.346 -0.1505 -0.2183 -0.0901
 7780OCT     C215560   3.411  15.399   2.558 -0.2112  0.0151  0.1051
 7781OCT     C115561  11.886  18.618  23.655  0.1006  0.0408 -0.2564
 7781OCT     C215562  11.856  19.046  23.667  0.2734  0.5914  0.2730
 7782OCT     C115563  17.795   0.055  20.513 -0.0221 -0.0017  0.3237
 7782OCT     C215564  17.725   0.362  20.857 -0.2701  0.0565 -0.1982
 7783OCT     C115565  17.834   4.750   1.265 -0.0376 -0.1765 -0.1755
 7783OCT     C215566  17.487   4.588   1.505  0.1638  0.1204  0.1307
 7784OCT     C115567   7.470   6.856   7.217 -0.0612 -0.0672  0.2883
 7784OCT     C215568   7.275   6.587   7.485 -0.2126 -0.1682 -0.0473
 7785OCT     C115569   0.459   4.769  17.659  0.2973 -0.3791  0.1811
 7785OCT     C215570   0.117   5.061  17.487 -0.1092  0.4150  0.4420
 7786OCT     C115571   4.661   0.259   7.383 -0.1862 -0.1783  0.4371
 7786OCT     C215572   4.434   0.218   7.754 -0.3233 -0.2969 -0.0292
 7787OCT     C115573  23.066  11.559  21.989 -0.0540  0.1885 -0.1723
 7787OCT     C215574  22.715  11.729  22.252  0.2628  0.1601  0.1458
 7788OCT     C115575   1.377  18.061   1.619 -0.2184 -0.0996 -0.0094
 7788OCT     C215576   1.010  18.298   1.493 -0.0392 -0.1118  0.0586
 7789OCT     C115577   7.846   3.437   8.905 -0.0653 -0.3469 -0.0175
 7789OCT     C215578   7.525   3.581   8.695 -0.1705  0.0755  0.2331
 7790OCT     C115579   2.688  21.198  17.261  0.1783  0.1768  0.0876
 7790OCT     C215580   3.150  21.225  17.041  0.5397 -0.1432 -0.2780
 7791OCT     C115581   1.837  19.834   2.142  0.3490 -0.3565  0.2136
 7791OCT     C215582   1.429  19.883   2.180 -0.1178 -0.0349 -0.2533
 7792OCT     C115583  21.120  13.319   4.802  0.1669 -0.1318  0.0189
 7792OCT     C215584  21.378  13.547   4.460 -0.2918 -0.0335 -0.0390
 7793OCT     C115585   4.797   8.197  16.183  0.2368 -0.0534  0.4240
 7793OCT     C215586   5.173   7.903  16.033  0.2075 -0.0270  0.1485
 7794OCT     C115587  16.915  14.907   8.340  0.5166  0.2187 -0.0250
 7794OCT     C215588  17.263  14.906   8.136  0.1081  0.1928  0.0411
 7795OCT     C115589  19.881  22.657   2.969  0.0819  0.4225  0.0717
 7795OCT     C215590  19.570  22.872   2.733  0.1771 -0.1453 -0.0421
 7796OCT     C115591  15.687   3.734  20.209 -0.0678 -0.1353 -0.3226
 7796OCT     C215592  15.375   3.421  20.216  0.2428  0.3641  0.2034
 7797OCT     C115593  22.416   3.228   5.026  0.1514 -0.1655  0.2721
 7797OCT     C215594  22.798   3.393   4.779  0.1046 -0.5439  0.1911
 7798OCT     C115595  14.846   3.010   0.053 -0.2163  0.3260 -0.0541
 7798OCT     C215596  14.900   3.410   0.157 -0.0587 -0.5049 -0.0492
 7799OCT     C115597  23.578  16.948  10.222  0.0677 -0.0150 -0.3579
 7799OCT     C215598  23.533  16.976   9.752 -0.0733  0.0032  0.1691
 7800OCT     C115599   7.226   4.202  20.090  0.3450 -0.2272 -0.0706
 7800OCT     C215600   7.630   3.949  20.237 -0.1860 -0.1157  0.3300
 7801OCT     C115601  22.013   7.913   1.262 -0.0129 -0.0639 -0.2794
 7801OCT     C215602  22.058   8.372   1.290  0.0863  0.1755  0.1525
 7802OCT     C115603   1.444  15.751   4.808 -0.1158 -0.0649  0.1059
 7802OCT     C215604   0.967  15.814   4.937  0.2244  0.2948  0.3862
 7803OCT     C115605   4.802  23.240  13.808  0.1902 -0.0816 -0.1762
 7803OCT     C215606   5.306  23.173  13.868 -0.1912 -0.3343 -0.1540
 7804OCT     C115607  15.763  10.186   8.097 -0.3380  0.0015  0.0865
 7804OCT     C215608  16.171  10.449   7.936  0.1004  0.4043 -0.0990
 7805OCT     C115609  17.396  11.175  14.858  0.2880 -0.2566  0.0237
 7805OCT     C215610  17.421  10.865  14.469  0.0435 -0.0775  0.0529
 7806OCT     C115611   6.708  16.384  21.345  0.1707  0.1485 -0.0576
 7806OCT     C215612   7.029  16.243  21.674  0.1445 -0.2531  0.4218
 7807OCT     C115613   5.805   6.928  19.800  0.0291 -0.0561  0.1164
 7807OCT     C215614   5.433   6.808  19.931  0.3353 -0.1934 -0.0280
 7808OCT     C115615  19.443  16.450  16.242  0.0223  0.0602  0.1067
 7808OCT     C215616  19.183  16.597  15.879  0.1149 -0.1487 -0.1511
 7809OCT     C115617  10.611  21.428   1.501  0.1362  0.2666 -0.1756
 7809OCT     C215618  10.188  21.638   1.472  0.3060  0.0726 -0.0402
 7810OCT     C115619   4.183  23.394   5.981 -0.2173 -0.1246  0.1702
 7810OCT     C215620   4.024  23.356   6.439  0.0477  0.1650 -0.2770
 7811OCT     C115621  21.926   7.776  16.904 -0.0195  0.3084 -0.0249
 7811OCT     C215622  22.299   7.650  17.204  0.1227  0.1719  0.1334
 7812OCT     C115623  17.329   3.867   1.474  0.2227 -0.2585  0.0995
 7812OCT     C215624  17.038   3.576   1.296 -0.4146  0.5552  0.2099
 7813OCT     C115625   6.138   2.714  19.511 -0.0363  0.1630  0.2816
 7813OCT     C215626   6.049   2.573  19.911  0.0967  0.0895 -0.0827
 7814OCT     C115627  12.150  23.342   8.346  0.0166 -0.0421  0.0980
 7814OCT     C215628  12.110  23.681   8.720  0.0222  0.2246 -0.1335
 7815OCT     C115629  17.991   5.635  14.296 -0.3571  0.2163 -0.1491
 7815OCT     C215630  18.242   5.900  14.587  0.2470  0.1289 -0.3457
 7816OCT     C115631  19.203  15.004   4.593 -0.0009  0.2477  0.2318
 7816OCT     C215632  18.850  15.224   4.770 -0.1086  0.0733  0.0585
 7817OCT     C115633   9.248  22.588  12.241 -0.2344  0.0117  0.0077
 7817OCT     C215634   9.211  22.158  12.160 -0.1069  0.0365 -0.1857
 7818OCT     C115635  22.917  13.988  15.857  0.0680  0.1969 -0.3619
 7818OCT     C215636  23.301  13.869  16.095  0.0663 -0.3781  0.0126
 7819OCT     C115637  19.096  20.271  19.067  0.0347  0.0785  0.0585
 7819OCT     C215638  18.657  20.119  19.186  0.1374  0.0992 -0.1411
 7820OCT     C115639  15.324  11.168   9.190 -0.6242  0.1349 -0.0452
 7820OCT     C215640  15.209  10.920   9.609  0.1175  0.0919  0.0899
 7821OCT     C115641  15.080   5.413  12.538 -0.1523 -0.0633  0.0068
 7821OCT     C215642  15.154   5.028  12.311 -0.0950 -0.2543  0.1380
 7822OCT     C115643  11.955  16.256   6.254  0.2397  0.1450 -0.0472
 7822OCT     C215644  11.583  16.429   6.372  0.1333 -0.1841  0.0509
 7823OCT     C115645   0.020   1.476  13.858  0.0649 -0.0557 -0.1503
 7823OCT     C215646  23.470   1.251  14.160  0.2265 -0.1958 -0.3895
 7824OCT     C115647  16.467   6.568  21.111 -0.0171 -0.0749  0.0149
 7824OCT     C215648  16.365   6.915  21.355 -0.0776  0.1538  0.0274
 7825OCT     C115649  14.709  11.212  12.078 -0.0876  0.1434 -0.0855
 7825OCT     C215650  14.832  11.036  11.659  0.1749 -0.1601 -0.1449
 7826OCT     C115651   5.451  18.328  19.717 -0.2103 -0.1262 -0.6013
 7826OCT     C215652   5.387  18.762  19.946  0.1781  0.0049  0.2054
 7827OCT     C115653  13.435  18.593  19.492  0.3880  0.1828  0.1906
 7827OCT     C215654  13.607  18.990  19.547 -0.2200 -0.1960 -0.1137
 7828OCT     C115655  12.614   6.911  15.300 -0.2851  0.0620  0.0068
 7828OCT     C215656  12.641   7.024  15.692 -0.4962  0.0091 -0.0721
 7829OCT     C115657  11.747  11.161   4.622  0.0603 -0.0588 -0.2636
 7829OCT     C215658  12.175  11.107   4.451 -0.2425  0.1150 -0.0862
 7830OCT     C115659  11.476  17.788  11.490 -0.1398 -0.0144 -0.0695
 7830OCT     C215660  11.274  17.436  11.642  0.1218  0.0092 -0.0833
 7831OCT     C115661  16.597  21.278  13.518 -0.0386 -0.0036  0.0640
 7831OCT     C215662  16.703  21.733  13.626  0.1558 -0.1442 -0.3288
 7832OCT     C115663  10.842  15.823   5.800 -0.0057 -0.0692  0.0926
 7832OCT     C215664  10.854  16.284   5.811 -0.1798 -0.0665  0.0084
 7833OCT     C115665  19.303   0.777  22.496 -0.0613  0.4162 -0.5605
 7833OCT     C215666  19.264   0.333  22.430  0.2918  0.2162 -0.3871
 7834OCT     C115667   2.908   8.982   8.321 -0.1468  0.1050  0.0426
 7834OCT     C215668   2.989   8.913   8.746  0.0220 -0.1599  0.0491
 7835OCT     C115669  17.385  22.668  12.012  0.1662 -0.1348 -0.1054
 7835OCT     C215670  17.221  22.268  12.219 -0.1660  0.0708 -0.0385
 7836OCT     C115671  14.752  23.696  18.975 -0.0419  0.1201 -0.6074
 7836OCT     C215672  14.941   0.254  19.356 -0.2180  0.2172 -0.0781
 7837OCT     C115673   1.614  20.449   4.257 -0.3730  0.0224  0.0662
 7837OCT     C215674   2.038  20.676   4.134 -0.0938  0.3768  0.0336
 7838OCT     C115675  21.170  13.815   7.796  0.3517 -0.0740  0.0512
 7838OCT     C215676  20.766  14.001   7.685  0.1721 -0.0963 -0.1738
 7839OCT     C115677  19.510   5.315   8.170 -0.0842 -0.1101  0.2023
 7839OCT     C215678  19.068   5.118   8.185  0.1480 -0.2570  0.2371
 7840OCT     C115679  13.602   4.952  22.166  0.0347  0.4922 -0.0601
 7840OCT     C215680  13.568   4.758  22.620  0.1882  0.1057  0.0925
 7841OCT     C115681   0.300   9.964  13.019  0.0358 -0.1212 -0.2430
 7841OCT     C215682   0.614   9.589  12.901  0.2055  0.1323 -0.5124
 7842OCT     C115683  10.286  23.282  12.747 -0.2203 -0.1162  0.0119
 7842OCT     C215684  10.306  23.725  12.764  0.2347  0.0803 -0.0004
 7843OCT     C115685   2.569   7.070   3.538 -0.1993 -0.1651  0.0012
 7843OCT     C215686   2.311   7.474   3.727  0.1973 -0.0478 -0.3136
 7844OCT     C115687  20.454   7.567  14.140 -0.2044 -0.0509  0.2692
 7844OCT     C215688  20.007   7.432  14.126  0.2275  0.1444  0.0179
 7845OCT     C115689   7.117   1.199   6.675  0.1856 -0.1339  0.2423
 7845OCT     C215690   6.743   1.159   6.375 -0.0016  0.1333  0.2302
 7846OCT     C115691   3.522  17.248  19.718 -0.1724  0.1909  0.3277
 7846OCT     C215692   3.629  17.653  19.828  0.1704  0.1549  0.6093
 7847OCT     C115693   0.487  22.798  15.807 -0.3398 -0.2218  0.1301
 7847OCT     C215694   0.272  22.708  16.235  0.1851  0.0551  0.0033
 7848OCT     C115695  17.669  21.312  14.953 -0.0109  0.1813 -0.1201
 7848OCT     C215696  18.083  21.065  14.950  0.3945 -0.0813 -0.0164
 7849OCT     C115697  15.305   3.419   3.289  0.3804  0.1888 -0.2497
 7849OCT     C215698  14.847   3.577   3.246 -0.4342 -0.0940 -0.1396
 7850OCT     C115699  23.278  10.256  13.242  0.2871  0.3106 -0.2213
 7850OCT     C215700  23.066   9.878  13.073 -0.0747  0.0546 -0.1692
 7851OCT     C115701  17.412   0.132  17.576  0.0046  0.0390 -0.1239
 7851OCT     C215702  17.531   0.345  18.033 -0.0106 -0.1685  0.0648
 7852OCT     C115703  22.490   9.450  20.758  0.3562  0.2184  0.0792
 7852OCT     C215704  22.842   9.702  20.632 -0.2471 -0.1607  0.1271
 7853OCT     C115705   7.481   9.882  22.270 -0.3298 -0.1774  0.1069
 7853OCT     C215706   7.463  10.227  21.978 -0.1353 -0.3334  0.4355
 7854OCT     C115707  18.194  18.081  15.905  0.3634 -0.0356  0.3597
 7854OCT     C215708  18.428  18.088  16.301 -0.0976  0.3943 -0.1698
 7855OCT     C115709  18.518   7.267  15.365  0.4148  0.1937  0.1196
 7855OCT     C215710  18.117   7.271  15.098  0.3060 -0.0013  0.0090
 7856OCT     C115711  16.358   3.749  10.005 -0.1532  0.0540  0.0208
 7856OCT     C215712  16.128   3.439  10.282 -0.0233  0.2818 -0.0714
 7857OCT     C115713   8.344   6.383   0.818  0.0619  0.0312 -0.0333
 7857OCT     C215714   8.219   6.378   1.273  0.1389  0.0294  0.5369
 7858OCT     C115715  17.642  19.240  10.618  0.0421  0.1402 -0.1362
 7858OCT     C215716  17.200  19.237  10.811  0.2929  0.1046 -0.2220
 7859OCT     C115717   5.869  15.590  21.317 -0.1082 -0.0456 -0.3556
 7859OCT     C215718   5.498  15.866  21.417 -0.4089  0.0522  0.0855
 7860OCT     C115719  15.050  14.935  23.338 -0.0187  0.0128  0.1763
 7860OCT     C215720  14.932  15.206  23.682  0.2018  0.1530 -0.0556
 7861OCT     C115721   4.476  21.344   9.332  0.1682  0.0797  0.0658
 7861OCT     C215722   4.089  21.241   9.547  0.0870 -0.1400  0.2647
 7862OCT     C115723   3.893  11.382  18.024 -0.0283  0.0326 -0.1761
 7862OCT     C215724   3.919  11.658  17.614 -0.1728 -0.1723  0.2093
 7863OCT     C115725  18.527  18.033   7.424 -0.1961  0.0599 -0.3318
 7863OCT     C215726  18.498  18.323   7.091 -0.1683 -0.1194 -0.1717
 7864OCT     C115727  18.715   1.827   2.230  0.0974  0.0150 -0.0667
 7864OCT     C215728  18.657   1.387   1.985  0.1276  0.1342 -0.0850
 7865OCT     C115729  10.738   8.939  11.645 -0.1815  0.3280  0.0735
 7865OCT     C215730  11.145   9.178  11.583 -0.1074 -0.0260  0.7680
 7866OCT     C115731   2.946   2.994   3.432 -0.2184  0.2187  0.0254
 7866OCT     C215732   3.335   2.796   3.412  0.1291  0.0371  0.1748
 7867OCT     C115733  17.191   2.533  21.047  0.0069 -0.2444 -0.0136
 7867OCT     C215734  17.221   2.030  20.982  0.1165 -0.1255 -0.1311
 7868OCT     C115735   5.040  10.117  21.540  0.2109  0.3498 -0.2794
 7868OCT     C215736   4.783  10.212  21.857  0.1921 -0.3441  0.1086
 7869OCT     C115737  14.115   5.289  11.521 -0.2750  0.2914  0.3856
 7869OCT     C215738  14.370   5.653  11.383  0.1917  0.3926 -0.2469
 7870OCT     C115739  19.183  12.989   3.419 -0.4222 -0.1655 -0.0837
 7870OCT     C215740  19.365  12.616   3.641  0.0738  0.0556 -0.1584
 7871OCT     C115741   7.828  11.767  22.181 -0.0124  0.2581  0.0469
 7871OCT     C215742   8.112  11.474  22.068 -0.2746  0.1726 -0.3673
 7872OCT     C115743  20.006   0.768  20.819 -0.1825 -0.0942  0.2293
 7872OCT     C215744  20.380   1.082  20.918 -0.1490 -0.1179 -0.2473
 7873OCT     C115745  11.446   0.352  15.230 -0.2558 -0.1232  0.0046
 7873OCT     C215746  11.825   0.340  14.960  0.1878  0.2322 -0.2434
 7874OCT     C115747  17.930   4.146   8.160 -0.0636 -0.1653  0.1934
 7874OCT     C215748  17.481   4.121   8.096 -0.0031 -0.2507 -0.0808
 7875OCT     C115749   8.259  14.384  23.516  0.0174  0.1701  0.3949
 7875OCT     C215750   8.061  14.422  23.115  0.0297 -0.0904  0.1385
 7876OCT     C115751  17.835   0.198  18.722 -0.1615  0.1252  0.0470
 7876OCT     C215752  17.666  23.556  18.717 -0.0508  0.1230  0.2823
 7877OCT     C115753   2.573  19.788   7.975  0.4734 -0.0845  0.0541
 7877OCT     C215754   2.546  19.631   8.413  0.2398  0.0842 -0.0987
 7878OCT     C115755   3.083   5.912   5.133  0.0285  0.1039 -0.2137
 7878OCT     C215756   3.334   5.780   4.735  0.0387  0.1954  0.1727
 7879OCT     C115757  22.205  20.775  21.374 -0.1328 -0.2317 -0.1699
 7879OCT     C215758  21.927  21.159  21.438 -0.2738  0.1795  0.2568
 7880OCT     C115759   4.933   1.125  14.792  0.1922  0.3406  0.0664
 7880OCT     C215760   4.638   0.842  15.054  0.0908 -0.0915  0.2196
 7881OCT     C115761  10.942  16.300  22.521  0.0286 -0.1373  0.0117
 7881OCT     C215762  10.567  16.278  22.722  0.2819 -0.2324 -0.3175
 7882OCT     C115763  23.454   4.743  10.320  0.3048 -0.0833  0.0535
 7882OCT     C215764  23.629   5.133  10.523 -0.1606 -0.2087  0.5306
 7883OCT     C115765  13.842  19.252   8.722 -0.1165  0.0591  0.5835
 7883OCT     C215766  13.825  19.012   9.084  0.1978  0.1153  0.1332
 7884OCT     C115767   2.103   9.407  23.136  0.0917  0.0436  0.0551
 7884OCT     C215768   1.967   9.647  23.516 -0.2227 -0.1819  0.0842
 7885OCT     C115769  19.807   0.902  22.677 -0.0280 -0.0256 -0.1785
 7885OCT     C215770  20.180   0.943  22.962  0.0835 -0.1384 -0.0791
 7886OCT     C115771  16.757  10.767   3.859  0.2230  0.0071 -0.0433
 7886OCT     C215772  16.629  11.098   3.561 -0.1416  0.0181 -0.3328
 7887OCT     C115773  19.811  18.909  18.117  0.3534  0.2571  0.3540
 7887OCT     C215774  19.888  18.740  18.533 -0.0199 -0.0588 -0.1178
 7888OCT     C115775   7.614  20.086  21.959  0.3687  0.1785  0.2444
 7888OCT     C215776   8.027  20.186  22.193 -0.1492  0.1324  0.2716
 7889OCT     C115777  22.072  21.341  12.167  0.0547  0.3794 -0.1783
 7889OCT     C215778  21.920  21.537  12.550 -0.2957 -0.2108  0.1178
 7890OCT     C115779   6.346   8.031  10.794  0.2366 -0.1591 -0.3894
 7890OCT     C215780   6.286   7.596  10.905 -0.0550 -0.2210  0.2290
 7891OCT     C115781   1.708  19.906  15.311  0.0835 -0.0706 -0.0592
 7891OCT     C215782   1.261  19.834  15.150 -0.0029 -0.0736  0.0668
 7892OCT     C115783   5.686   4.806  15.091  0.0162  0.0848  0.0086
 7892OCT     C215784   5.763   5.239  15.105  0.2004 -0.1508  0.0003
 7893OCT     C115785  16.082  12.544  10.404  0.0343  0.5174  0.0188
 7893OCT     C215786  15.781  12.482  10.760 -0.0491  0.3187  0.1304
 7894OCT     C115787   1.900   3.620  12.860 -0.0603  0.1492 -0.0602
 7894OCT     C215788   2.238   3.691  13.267 -0.1376 -0.0353 -0.0756
 7895OCT     C115789  15.620  16.931   2.283  0.2496 -0.1375  0.6120
 7895OCT     C215790  15.383  16.840   2.624  0.1370  0.4423 -0.3527
 7896OCT     C115791  11.143   6.524  21.624  0.0459  0.1464 -0.2372
 7896OCT     C215792  11.030   6.876  21.338  0.1843 -0.2322  0.4900
 7897OCT     C115793  21.985  10.005  22.896 -0.0194  0.1975 -0.3730
 7897OCT     C215794  21.595  10.140  23.137  0.1764 -0.1321 -0.0228
 7898OCT     C115795   3.816   2.257  11.538  0.0959 -0.0921  0.5142
 7898OCT     C215796   3.890   2.308  11.119  0.0008 -0.1319 -0.0563
 7899OCT     C115797  19.687   7.382  13.719  0.0432  0.0799  0.2282
 7899OCT     C215798  19.330   7.317  13.398  0.2881  0.0764 -0.1219
 7900OCT     C115799  20.123  12.546  10.274  0.0997  0.0834 -0.1182
 7900OCT     C215800  20.489  12.630   9.983 -0.3373  0.1765  0.2835
 7901OCT     C115801  13.570   7.215   4.544 -0.2099 -0.0221  0.0490
 7901OCT     C215802  13.997   7.191   4.300  0.1015 -0.2247  0.5395
 7902OCT     C115803  20.939  19.790  20.395  0.1202 -0.4207  0.3118
 7902OCT     C215804  21.284  19.545  20.434  0.0117 -0.0804 -0.0389
 7903OCT     C115805  22.622  21.344   2.535  0.3928  0.0496 -0.0816
 7903OCT     C215806  23.044  21.419   2.715 -0.2157  0.0733 -0.0485
 7904OCT     C115807  14.788   4.485   2.736 -0.0104 -0.0976 -0.0229
 7904OCT     C215808  14.999   4.477   2.337 -0.1844  0.0823 -0.3108
 7905OCT     C115809  23.395   1.220   5.283  0.1327 -0.2414  0.1360
 7905OCT     C215810   0.037   1.423   5.173 -0.1022  0.2931  0.0012
 7906OCT     C115811   1.605   7.085  20.837 -0.0725  0.4033 -0.2174
 7906OCT     C215812   1.561   7.405  21.200 -0.0677  0.0335 -0.1754
 7907OCT     C115813  14.702  22.399   0.130  0.1380  0.4940  0.3287
 7907OCT     C215814  14.688  22.367  23.399 -0.1458 -0.1508  0.1741
 7908OCT     C115815  11.147   1.146   3.233 -0.0639 -0.2832 -0.0940
 7908OCT     C215816  11.471   1.337   2.993  0.1546  0.1724 -0.1494
 7909OCT     C115817  16.077  10.266  20.125  0.0659  0.2590  0.2533
 7909OCT     C215818  15.706  10.529  20.281  0.1296 -0.0013 -0.0044
 7910OCT     C115819  10.730   6.361  14.810  0.0133  0.2283 -0.0317
 7910OCT     C215820  11.049   6.152  14.545  0.1283  0.0625  0.2422
 7911OCT     C115821   4.934  17.909  16.616 -0.3699 -0.4265  0.1579
 7911OCT     C215822   5.002  18.093  16.222 -0.3025 -0.0514 -0.3102
 7912OCT     C115823  11.253  19.947   6.223  0.2471 -0.0136 -0.1953
 7912OCT     C215824  11.263  19.575   5.969  0.0993 -0.0977 -0.1437
 7913OCT     C115825   6.354  23.304   3.519 -0.0009  0.2397  0.1511
 7913OCT     C215826   6.001  23.630   3.412 -0.2149  0.4094 -0.0680
 7914OCT     C115827  23.336   1.513  11.000  0.0669  0.0428 -0.0926
 7914OCT     C215828  23.526   1.886  10.874 -0.4732 -0.2256  0.0543
 7915OCT     C115829   8.385  13.507  21.801  0.0090  0.2466 -0.2847
 7915OCT     C215830   7.968  13.781  21.796  0.0954 -0.1291  0.2484
 7916OCT     C115831  18.580   0.876   7.002 -0.2051 -0.0485 -0.2802
 7916OCT     C215832  18.286   0.791   7.326 -0.5131 -0.4087 -0.0645
 7917OCT     C115833   8.906  18.458   3.596  0.1780  0.0415  0.1276
 7917OCT     C215834   9.063  18.877   3.373  0.3142 -0.4645  0.0625
 7918OCT     C115835  21.462   6.469   2.929  0.0867 -0.1341  0.3747
 7918OCT     C215836  21.420   6.890   3.007 -0.0319 -0.3307  0.1334
 7919OCT     C115837   6.399  19.993  10.654 -0.1178  0.0612 -0.0452
 7919OCT     C215838   6.566  19.556  10.530 -0.0217  0.2681  0.0787
 7920OCT     C115839   3.537  14.085   8.568  0.0113 -0.2141  0.0390
 7920OCT     C215840   3.442  13.640   8.478  0.0952 -0.1758  0.0682
 7921OCT     C115841  20.899  11.121   9.399 -0.0662  0.0689 -0.4738
 7921OCT     C215842  21.046  10.704   9.359  0.0747  0.3353 -0.2210
 7922OCT     C115843  12.353  21.793   4.849 -0.3511  0.0053  0.1710
 7922OCT     C215844  12.609  21.476   5.121  0.2770  0.0484  0.1487
 7923OCT     C115845  21.223  15.320   9.188 -0.4445 -0.0593 -0.1473
 7923OCT     C215846  21.470  14.971   9.107 -0.0578 -0.3255  0.1286
 7924OCT     C115847   9.828   6.595  12.246 -0.2744  0.0710 -0.3447
 7924OCT     C215848  10.320   6.491  12.239 -0.1758 -0.0312 -0.1344
 7925OCT     C115849  21.269   9.445  14.980 -0.2009  0.0449  0.4172
 7925OCT     C215850  21.060   9.216  15.294 -0.3088  0.0404  0.0627
 7926OCT     C115851  13.235   4.550   2.444  0.4174  0.2680  0.0941
 7926OCT     C215852  13.218   4.851   2.092  0.1873  0.1792 -0.0105
 7927OCT     C115853   7.989   3.215   4.637 -0.0016 -0.1256 -0.3442
 7927OCT     C215854   8.397   3.264   4.445 -0.0073 -0.2847 -0.0784
 7928OCT     C115855   1.423  20.323  15.249  0.2112  0.0743 -0.0712
 7928OCT     C215856   1.921  20.432  15.307 -0.1482 -0.1575 -0.1449
 7929OCT     C115857  10.714  16.523  13.611 -0.2278  0.0181  0.0357
 7929OCT     C215858  10.406  16.212  13.531 -0.0102  0.0033  0.3334
 7930OCT     C115859   6.906  15.617   7.752  0.1478  0.1437 -0.0527
 7930OCT     C215860   7.275  15.489   7.862 -0.1276  0.1699 -0.4099
 7931OCT     C115861  11.575  18.707   5.779  0.0409 -0.0471  0.2240
 7931OCT     C215862  11.804  18.752   5.424  0.2949 -0.3074  0.0619
 7932OCT     C115863  17.287  12.079  14.432  0.4613  0.3209  0.1618
 7932OCT     C215864  16.961  11.801  14.628 -0.0841 -0.3026 -0.0901
 7933OCT     C115865  20.487   8.270  14.127 -0.0630  0.0310  0.1308
 7933OCT     C215866  20.710   8.520  14.454 -0.2085  0.1007 -0.0373
 7934OCT     C115867  10.491  23.470  19.429 -0.0052 -0.1414 -0.0100
 7934OCT     C215868  10.375   0.001  19.058  0.1982  0.0260  0.0149
 7935OCT     C115869  17.423  15.286   0.687 -0.2464 -0.3165  0.2086
 7935OCT     C215870  17.518  14.840   0.631  0.0833  0.1855  0.2722
 7936OCT     C115871  22.810  22.868   0.103 -0.2166  0.0779  0.1172
 7936OCT     C215872  22.502  23.054  23.543  0.0610 -0.2653  0.5169
 7937OCT     C115873  16.536   9.975  16.999 -0.0102 -0.2308  0.0836
 7937OCT     C215874  16.186   9.703  17.057  0.3022  0.0863  0.0512
 7938OCT     C115875   1.571   1.412   4.118 -0.1116 -0.0713 -0.0064
 7938OCT     C215876   1.104   1.467   4.163  0.1868 -0.0203 -0.0093
 7939OCT     C115877   7.681  23.364  12.590 -0.4885 -0.1721  0.0074
 7939OCT     C215878   7.512  23.727  12.351  0.1007 -0.0980 -0.2969
 7940OCT     C115879  16.380  12.848   1.265 -0.0550  0.0298  0.2485
 7940OCT     C215880  16.405  13.096   0.859 -0.2590 -0.0771 -0.0707
 7941OCT     C115881  21.458   7.232  18.057  0.0988  0.0625 -0.1623
 7941OCT     C215882  21.523   7.275  17.609 -0.6766  0.0496  0.1906
 7942OCT     C115883   8.417  13.003   5.274 -0.0782 -0.0664  0.1403
 7942OCT     C215884   8.313  12.854   4.800  0.1717  0.2311 -0.0529
 7943OCT     C115885  22.662  20.953  20.946  0.0077 -0.2116 -0.2056
 7943OCT     C215886  22.734  20.528  20.664  0.2452 -0.1255 -0.2872
 7944OCT     C115887   7.842   3.701   7.083  0.2643  0.0242  0.0305
 7944OCT     C215888   7.502   3.613   7.433 -0.0620 -0.1406  0.1335
 7945OCT     C115889  22.919  23.561  12.550 -0.0313 -0.1793 -0.0083
 7945OCT     C215890  22.711   0.130  12.272 -0.1454  0.1069 -0.0610
 7946OCT     C115891  21.167   0.094  17.042  0.1661  0.1956 -0.0719
 7946OCT     C215892  21.587   0.090  17.186 -0.0785 -0.2370  0.2253
 7947OCT     C115893   9.001  17.385   2.747 -0.2273 -0.2687  0.1626
 7947OCT     C215894   8.804  17.434   2.398  0.4517 -0.1053 -0.0184
 7948OCT     C115895  20.733  23.723  19.423  0.0678  0.2765  0.2018
 7948OCT     C215896  20.387  23.719  19.758 -0.3134  0.3045  0.2629
 7949OCT     C115897  10.948  18.485  17.394  0.1164 -0.0158 -0.1790
 7949OCT     C215898  11.165  18.115  17.255  0.3297 -0.2839  0.2047
 7950OCT     C115899  17.398  21.125   4.954  0.3522 -0.1526 -0.1926
 7950OCT     C215900  17.032  20.946   4.751  0.0604 -0.0187  0.0499
 7951OCT     C115901  12.917   4.733   4.413 -0.2411 -0.0355  0.0937
 7951OCT     C215902  13.246   4.600   4.654  0.1507  0.1917  0.1870
 7952OCT     C115903   0.942   6.543   4.581 -0.1156  0.2078 -0.1134
 7952OCT     C215904   1.378   6.552   4.741  0.0676  0.0182 -0.0811
 7953OCT     C115905  12.333   9.594   9.096  0.1290  0.0957 -0.1334
 7953OCT     C215906  12.258   9.337   9.547  0.1407  0.1136 -0.3805
 7954OCT     C115907   3.230  22.006   1.815  0.0967 -0.2607  0.0239
 7954OCT     C215908   3.130  22.453   1.619  0.1264 -0.6229  0.2671
 7955OCT     C115909  13.296  16.538  14.588  0.2034  0.1015  0.3212
 7955OCT     C215910  12.904  16.291  14.508 -0.2663 -0.2652 -0.1083
 7956OCT     C115911  23.741  21.711  20.624 -0.3407  0.4886  0.2131
 7956OCT     C215912  23.447  22.014  20.438 -0.0001 -0.1423  0.0471
 7957OCT     C115913  18.630  19.122  13.191 -0.2177 -0.2605 -0.0160
 7957OCT     C215914  18.148  19.204  13.177 -0.0727 -0.1072 -0.0496
 7958OCT     C115915   1.630   1.706  16.711  0.1148  0.4156 -0.0008
 7958OCT     C215916   1.919   1.869  16.461  0.0440  0.2872  0.2221
 7959OCT     C115917  16.290   0.334  14.070  0.1319 -0.2463  0.2530
 7959OCT     C215918  16.098   0.774  14.097 -0.2714 -0.0391 -0.1563
 7960OCT     C115919  19.460  22.617  10.745  0.3274 -0.0944  0.1184
 7960OCT     C215920  19.282  22.469  10.335 -0.3052  0.0749  0.3743
 7961OCT     C115921  16.558   0.541  16.275  0.1372 -0.0357 -0.2635
 7961OCT     C215922  16.970   0.767  16.262  0.0985 -0.0486  0.0656
 7962OCT     C115923   2.466  22.001   0.050 -0.1557  0.0026  0.0540
 7962OCT     C215924   2.434  22.202   0.440 -0.0065 -0.0232  0.0406
 7963OCT     C115925   6.637   3.104   9.251  0.1418 -0.0690 -0.1795
 7963OCT     C215926   6.785   3.188   9.635 -0.0015  0.3127  0.0268
 7964OCT     C115927  20.054  13.708  12.354 -0.3188  0.1186 -0.0762
 7964OCT     C215928  19.733  14.046  12.222  0.1117 -0.4688 -0.1678
 7965OCT     C115929  19.321   2.744  14.186  0.1296 -0.1545 -0.2883
 7965OCT     C215930  18.892   2.607  14.359 -0.0230  0.2847 -0.0341
 7966OCT     C115931   7.871  19.694   0.609  0.1590  0.1109  0.4150
 7966OCT     C215932   8.173  19.545   0.274 -0.0954  0.1853  0.3008
 7967OCT     C115933   1.486   8.745  14.920 -0.0999 -0.1325 -0.1552
 7967OCT     C215934   1.390   8.246  15.071 -0.0426 -0.2881 -0.1984
 7968OCT     C115935  17.758  10.667   2.180 -0.0260  0.1160  0.3370
 7968OCT     C215936  17.808  10.922   2.576  0.0308  0.0676 -0.2035
 7969OCT     C115937   3.039  14.626  20.802  0.1962 -0.2851 -0.0966
 7969OCT     C215938   3.074  14.360  21.213 -0.0715  0.0069 -0.0441
 7970OCT     C115939  17.671  18.405   6.776  0.0207 -0.0876  0.2391
 7970OCT     C215940  17.590  18.310   6.293  0.0186 -0.0419  0.0927
 7971OCT     C115941  17.082   0.015   7.017  0.3274 -0.3084 -0.1606
 7971OCT     C215942  16.636   0.030   7.160 -0.4542  0.0995  0.0927
 7972OCT     C115943  20.257   0.555  21.349 -0.1174  0.2387 -0.1525
 7972OCT     C215944  20.610   0.798  21.327  0.0548  0.2436  0.0816
 7973OCT     C115945   5.897  11.055   4.327  0.2572  0.0547  0.2655
 7973OCT     C215946   5.763  11.188   4.748  0.3877 -0.1806  0.2824
 7974OCT     C115947   9.237   0.698  10.359  0.0315 -0.2722  0.0059
 7974OCT     C215948   9.636   0.556  10.450 -0.2244 -0.0994 -0.0450
 7975OCT     C115949  17.420  11.086  11.540  0.2809  0.1442 -0.1075
 7975OCT     C215950  17.195  10.832  11.870 -0.0148  0.0396  0.1743
 7976OCT     C115951  17.764  13.558  21.898  0.0505  0.1619  0.1232
 7976OCT     C215952  17.607  13.774  22.236 -0.1461 -0.2927 -0.1483
 7977OCT     C115953  13.558   8.389  13.919  0.1434 -0.0195  0.0474
 7977OCT     C215954  13.646   8.079  13.523  0.0485  0.0560  0.1368
 7978OCT     C115955  23.511  18.474   5.195  0.2287  0.2728 -0.0389
 7978OCT     C215956  23.330  18.608   5.573  0.2024  0.0283  0.0124
 7979OCT     C115957  16.470  10.160  11.379  0.0864  0.1262  0.0695
 7979OCT     C215958  16.319   9.822  11.121 -0.0910 -0.3691  0.4371
 7980OCT     C115959   4.910  12.666  19.674 -0.5117 -0.1778 -0.0034
 7980OCT     C215960   4.534  12.922  19.621 -0.0794  0.1183 -0.2686
 7981OCT     C115961   2.877  12.756  20.079 -0.2228  0.0031 -0.0447
 7981OCT     C215962   2.923  13.020  19.653 -0.0595  0.2617  0.1680
 7982OCT     C115963   8.565  12.938  11.153 -0.4444 -0.1192  0.0049
 7982OCT     C215964   8.961  12.868  10.893  0.2203 -0.2159  0.0554
 7983OCT     C115965  14.189  15.907   1.472  0.1466 -0.2582 -0.0104
 7983OCT     C215966  13.870  16.251   1.346 -0.1518 -0.0396  0.2544
 7984OCT     C115967   4.949  10.400  23.597  0.0020  0.3532  0.1678
 7984OCT     C215968   5.175  10.039  23.703  0.4021  0.2182  0.0435
 7985OCT     C115969  22.689  13.439  21.910  0.2199 -0.0925 -0.0815
 7985OCT     C215970  23.049  13.218  22.085 -0.2263 -0.2487 -0.3033
 7986OCT     C115971  10.197  10.417   7.965  0.0016 -0.1441  0.3244
 7986OCT     C215972   9.807  10.610   8.160 -0.0696 -0.1618 -0.0734
 7987OCT     C115973  13.710   3.530  16.228  0.0261 -0.0195 -0.5949
 7987OCT     C215974  13.962   3.508  15.884 -0.2109  0.0118  0.0468
 7988OCT     C115975   3.470   5.836  17.573  0.1058  0.1384  0.4973
 7988OCT     C215976   3.149   6.066  17.301  0.3195 -0.0859  0.2061
 7989OCT     C115977   3.384  12.244  20.553 -0.2247 -0.2039  0.0987
 7989OCT     C215978   2.996  12.141  20.716 -0.0100 -0.1090  0.0832
 7990OCT     C115979  22.290   7.535   5.979 -0.0075 -0.1461 -0.1754
 7990OCT     C215980  22.742   7.737   5.973  0.0502  0.2007 -0.1707
 7991OCT     C115981  10.218   3.135  22.744 -0.0233 -0.2404 -0.0664
 7991OCT     C215982  10.547   3.257  23.023  0.2446 -0.2510  0.2199
 7992OCT     C115983   9.252  10.894   9.791  0.5959 -0.1849 -0.2147
 7992OCT     C215984   8.812  10.952  10.029 -0.2640  0.2241 -0.0122
 7993OCT     C115985  21.456   5.342  20.959  0.0501 -0.2065 -0.1528
 7993OCT     C215986  21.396   5.208  21.471 -0.4039 -0.0811 -0.0364
 7994OCT     C115987   8.286   2.136  10.878  0.1434 -0.2552  0.2239
 7994OCT     C215988   8.699   2.178  10.714  0.0912 -0.0175  0.1265
 7995OCT     C115989   6.962  14.834   5.192 -0.1192 -0.1597  0.0966
 7995OCT     C215990   7.144  15.215   5.068  0.2999 -0.2543  0.0128
 7996OCT     C115991   4.750   9.579  13.717 -0.0016  0.3802  0.0516
 7996OCT     C215992   4.322   9.597  13.817 -0.0197  0.1591 -0.1148
 7997OCT     C115993   2.847   9.457  13.566  0.0744  0.0942  0.0667
 7997OCT     C215994   3.083   9.326  13.948  0.2618  0.3039 -0.3020
 7998OCT     C115995   0.181   5.625  10.898 -0.0519  0.3522  0.0680
 7998OCT     C215996   0.524   5.615  10.672  0.0024  0.0912  0.2755
 7999OCT     C115997  10.183   8.599   8.808  0.4166 -0.1505  0.0073
 7999OCT     C215998  10.639   8.802   8.867  0.0975 -0.1855  0.0437
 8000OCT     C115999  23.524  12.997   7.676  0.1519  0.1950 -0.0010
 8000OCT     C216000  23.622  12.817   7.280  0.1187  0.0365  0.1247
 8001OCT     C116001  22.293  20.674  13.214 -0.2694 -0.1035 -0.2409
 8001OCT     C216002  22.186  20.310  13.030  0.0828  0.1028 -0.0554
 8002OCT     C116003  17.228   9.528   9.441  0.1407 -0.1840  0.2144
 8002OCT     C216004  17.169   9.344   9.854  0.0065 -0.0712  0.0722
 8003OCT     C116005   9.681  14.367  11.690 -0.0828 -0.0961  0.2040
 8003OCT     C216006   9.773  14.579  11.367  0.0239 -0.3840  0.2045
 8004OCT     C116007  20.486  23.218  13.206  0.0569  0.0239 -0.0388
 8004OCT     C216008  20.579  23.027  13.654 -0.0247  0.1404  0.3971
 8005OCT     C116009  23.611  12.110  13.570  0.0956 -0.3630 -0.0406
 8005OCT     C216010  23.262  11.944  13.856 -0.0663  0.2630  0.0482
 8006OCT     C116011  19.714   3.969  15.816 -0.3552 -0.2992  0.0837
 8006OCT     C216012  19.705   3.740  15.367  0.2814  0.0630 -0.2453
 8007OCT     C116013   4.203  15.445  12.801 -0.2103  0.2336  0.4124
 8007OCT     C216014   4.013  15.815  12.940  0.2305  0.0923  0.2284
 8008OCT     C116015  12.080   7.781   5.770  0.0552 -0.3821  0.0845
 8008OCT     C216016  11.874   8.054   6.138 -0.0741  0.1395 -0.0974
 8009OCT     C116017  19.077   3.608   6.390  0.1987  0.2735  0.0362
 8009OCT     C216018  19.140   4.070   6.658  0.1557 -0.2364 -0.3092
 8010OCT     C116019   9.696   2.978  10.874  0.1040 -0.1783 -0.1600
 8010OCT     C216020   9.539   3.333  10.610  0.0726 -0.2762 -0.2114
 8011OCT     C116021   9.772  20.584  19.608 -0.0210 -0.0571  0.0815
 8011OCT     C216022   9.589  21.033  19.433  0.2897 -0.1772  0.1336
 8012OCT     C116023  11.289   8.754   4.868 -0.1015 -0.1007 -0.1674
 8012OCT     C216024  11.705   8.613   4.627  0.0167  0.1337  0.0559
 8013OCT     C116025  17.492  18.505   9.245  0.2281  0.0863  0.1267
 8013OCT     C216026  17.118  18.276   8.980 -0.3107 -0.0962  0.2381
 8014OCT     C116027   8.954  22.956  10.389  0.0676 -0.2441 -0.3093
 8014OCT     C216028   8.628  23.114  10.679  0.1146  0.5597 -0.0033
 8015OCT     C116029   6.595   3.993  20.021  0.4490 -0.7172  0.1371
 8015OCT     C216030   6.911   3.874  19.715  0.1282  0.3933  0.0097
 8016OCT     C116031  12.080  13.608  11.370 -0.3677 -0.1868 -0.1135
 8016OCT     C216032  12.234  13.641  10.920  0.3792 -0.0242  0.1002
 8017OCT     C116033  15.997   9.800   7.111 -0.0091 -0.2659  0.0117
 8017OCT     C216034  16.044  10.252   6.868  0.3587 -0.2300 -0.0368
 8018OCT     C116035  18.303   1.513  16.055  0.1875 -0.1472 -0.2171
 8018OCT     C216036  18.300   1.160  16.303  0.3516  0.2131  0.1246
 8019OCT     C116037   0.411   3.546   5.012 -0.0408 -0.1337  0.2465
 8019OCT     C216038   0.029   3.335   5.176  0.2184 -0.0860 -0.1610
 8020OCT     C116039  20.883   6.318  19.743  0.0906 -0.1314 -0.1003
 8020OCT     C216040  20.780   6.189  19.274  0.3390 -0.0599 -0.2657
 8021OCT     C116041   2.347   0.417  14.150  0.0728 -0.0578 -0.0581
 8021OCT     C216042   2.216   0.841  14.298 -0.1312 -0.2444  0.1464
 8022OCT     C116043   0.200   8.564   5.570  0.2275 -0.0317  0.1652
 8022OCT     C216044  23.546   8.373   5.518  0.1229 -0.0289  0.0959
 8023OCT     C116045   1.847  14.792  22.990 -0.0207 -0.0739 -0.1342
 8023OCT     C216046   1.457  14.741  22.902  0.0291  0.1902 -0.3833
 8024OCT     C116047   8.711   8.851  22.564 -0.1390  0.0667  0.4165
 8024OCT     C216048   8.435   8.825  22.915  0.1632  0.2945  0.0151
 8025OCT     C116049   1.378   1.948   5.056  0.4326 -0.0327  0.0910
 8025OCT     C216050   1.275   1.547   5.092  0.1927  0.0972  0.1825
 8026OCT     C116051  21.395  16.824  17.221 -0.2164 -0.0649 -0.0220
 8026OCT     C216052  21.462  16.360  17.230 -0.1123  0.0326  0.2894
 8027OCT     C116053   8.685   1.886  11.603 -0.0545  0.0333  0.3133
 8027OCT     C216054   8.997   2.174  11.812 -0.0923 -0.4012  0.1147
 8028OCT     C116055  19.277  17.508  12.149 -0.0097 -0.1284  0.2151
 8028OCT     C216056  19.042  17.443  11.740  0.0880 -0.0827 -0.2918
 8029OCT     C116057   5.337  15.346  21.205  0.5115 -0.2559  0.2549
 8029OCT     C216058   5.515  15.220  21.547 -0.0304 -0.0049  0.0490
 8030OCT     C116059   7.140   6.729   8.089 -0.3580  0.0480 -0.1089
 8030OCT     C216060   6.813   6.931   8.357  0.3669 -0.0611  0.1959
 8031OCT     C116061   5.490  10.126   7.292  0.0580 -0.0506  0.2212
 8031OCT     C216062   5.159   9.741   7.327 -0.0275 -0.1350 -0.0485
 8032OCT     C116063  13.883  17.889  16.332  0.1386  0.0069  0.0106
 8032OCT     C216064  13.959  18.353  16.455  0.1611  0.3780  0.3475
 8033OCT     C116065   6.607   5.278  21.981  0.1898 -0.4542 -0.4240
 8033OCT     C216066   6.620   4.837  21.818 -0.2142 -0.2817  0.4073
 8034OCT     C116067  22.453   2.934  15.253 -0.1848 -0.1758  0.2745
 8034OCT     C216068  22.120   2.835  14.972 -0.3826 -0.1742  0.1458
 8035OCT     C116069  11.207  14.121  23.536 -0.2263 -0.2562 -0.1617
 8035OCT     C216070  11.307  14.560  23.723  0.1552 -0.3612 -0.0737
 8036OCT     C116071  10.226   9.676  20.717 -0.1939 -0.1385 -0.1039
 8036OCT     C216072  10.056   9.630  21.142 -0.1885  0.0898  0.1470
 8037OCT     C116073  20.600   2.201  17.621  0.0756  0.0863  0.3206
 8037OCT     C216074  20.961   2.234  17.851 -0.2425 -0.2779 -0.0066
 8038OCT     C116075   9.698  22.364  20.754  0.0913 -0.1414  0.0759
 8038OCT     C216076   9.285  22.383  20.509  0.1628 -0.1046  0.0452
 8039OCT     C116077  11.539   9.674   5.698 -0.0528  0.2121 -0.1357
 8039OCT     C216078  11.568   9.861   6.146  0.1106  0.3236  0.1593
 8040OCT     C116079  18.636  10.783   5.358 -0.0736 -0.3175  0.3700
 8040OCT     C216080  19.018  10.905   5.074  0.1334 -0.1008 -0.0615
 8041OCT     C116081  16.815   3.931  13.476  0.2780  0.0608  0.0817
 8041OCT     C216082  16.766   3.622  13.825 -0.0955 -0.2827  0.0114
 8042OCT     C116083   0.338  19.129  18.461  0.2207  0.2722  0.1915
 8042OCT     C216084   0.332  19.610  18.406  0.0130  0.1155 -0.0254
 8043OCT     C116085   1.036  14.150  10.269 -0.2326  0.1193  0.3226
 8043OCT     C216086   1.239  14.514  10.366  0.1057 -0.1815  0.0282
 8044OCT     C116087   9.003  18.291   2.888 -0.4815  0.0269 -0.3320
 8044OCT     C216088   9.293  18.309   3.250 -0.0918  0.0600  0.0997
 8045OCT     C116089  16.416  19.655   5.498 -0.1956 -0.0675  0.1517
 8045OCT     C216090  15.997  19.802   5.723 -0.1979  0.0266 -0.0798
 8046OCT     C116091   9.290  19.025  23.221 -0.1182 -0.1546  0.0959
 8046OCT     C216092   9.693  19.079  23.466 -0.4413  0.1791  0.0940
 8047OCT     C116093  20.086  18.796  14.552  0.1705 -0.0962 -0.1142
 8047OCT     C216094  20.414  18.947  14.226  0.2716 -0.0208  0.0553
 8048OCT     C116095   3.257   1.147   0.804 -0.1327 -0.3096 -0.1758
 8048OCT     C216096   3.413   0.781   1.100 -0.0271  0.4386 -0.2108
 8049OCT     C116097   5.595   8.867   5.412  0.1091  0.2564 -0.1912
 8049OCT     C216098   5.336   9.153   5.631 -0.2841 -0.0516  0.0771
 8050OCT     C116099   5.935  15.871   2.405  0.0419  0.0378  0.1462
 8050OCT     C216100   5.631  16.283   2.315 -0.0598  0.0778 -0.2965
 8051OCT     C116101   2.441  17.582   2.973 -0.0352 -0.1778 -0.2116
 8051OCT     C216102   2.615  17.181   2.785  0.1176 -0.0388  0.2291
 8052OCT     C116103  18.962  15.373  10.070 -0.4245  0.1927  0.1158
 8052OCT     C216104  19.439  15.515  10.003  0.2717  0.1617 -0.2052
 8053OCT     C116105   1.505  18.517   2.453  0.2006  0.0320 -0.3528
 8053OCT     C216106   1.664  18.606   2.892 -0.2305  0.1175 -0.1536
 8054OCT     C116107  11.280   0.023  20.042  0.1144 -0.2759 -0.1435
 8054OCT     C216108  11.594   0.227  20.242 -0.3045 -0.0753  0.1251
 8055OCT     C116109  13.751   6.743  19.388  0.1493  0.0523 -0.1674
 8055OCT     C216110  13.515   6.470  19.027  0.1144  0.2048  0.5038
 8056OCT     C116111   4.169  10.719  12.037  0.2493 -0.1610  0.1840
 8056OCT     C216112   3.884  10.418  12.261  0.1628  0.0362 -0.1611
 8057OCT     C116113   6.553   0.690  12.700 -0.2302  0.0177  0.1349
 8057OCT     C216114   6.473   0.270  12.887  0.2398 -0.1145  0.1246
 8058OCT     C116115   1.392   5.818  12.688 -0.1154 -0.2738 -0.3466
 8058OCT     C216116   1.541   6.258  12.678  0.0081  0.4380  0.3711
 8059OCT     C116117   3.864  19.542  13.494  0.0699  0.3881  0.3434
 8059OCT     C216118   4.261  19.387  13.417  0.0696  0.1297  0.1961
 8060OCT     C116119  19.996   9.194  10.953  0.0852  0.1479  0.0140
 8060OCT     C216120  20.251   9.619  10.937 -0.1400  0.1452 -0.1316
 8061OCT     C116121  12.223  17.541  12.670  0.2449 -0.0897 -0.1422
 8061OCT     C216122  12.451  17.487  12.225 -0.2060  0.0442 -0.2769
 8062OCT     C116123  16.577  12.517   5.668  0.1032  0.0795  0.0646
 8062OCT     C216124  16.400  12.685   5.285 -0.3081 -0.3308 -0.3184
 8063OCT     C116125  10.508   4.557  11.609  0.1707 -0.1721 -0.0223
 8063OCT     C216126  10.096   4.622  11.336 -0.2715 -0.0361  0.1307
 8064OCT     C116127   7.935   4.502  23.135 -0.2734 -0.1644 -0.2258
 8064OCT     C216128   7.703   4.215  22.885 -0.0534  0.0622 -0.1903
 8065OCT     C116129   8.235  17.194  11.420  0.1816 -0.2536  0.1640
 8065OCT     C216130   8.005  17.484  11.744 -0.1190  0.4418  0.1427
 8066OCT     C116131  20.628  10.958  13.956 -0.2001 -0.2560 -0.0422
 8066OCT     C216132  20.273  10.852  14.235  0.2672  0.1986 -0.4286
 8067OCT     C116133  21.849   2.765   2.556 -0.0366  0.1363  0.1545
 8067OCT     C216134  22.264   2.674   2.723 -0.0451 -0.2977  0.0610
 8068OCT     C116135   9.504  17.251  14.971 -0.0232  0.1713  0.2524
 8068OCT     C216136   9.667  17.062  15.347 -0.1240  0.1400 -0.2295
 8069OCT     C116137   4.882   8.314   9.327 -0.2818 -0.0836 -0.1151
 8069OCT     C216138   4.756   8.262   9.796  0.2731  0.0962 -0.1274
 8070OCT     C116139  23.493   6.619   2.812 -0.2560  0.1548  0.0780
 8070OCT     C216140  23.251   6.295   2.589  0.1357  0.1887  0.2128
 8071OCT     C116141  21.084   1.992  20.074 -0.1023 -0.1158  0.1643
 8071OCT     C216142  21.246   1.620  20.309 -0.0061  0.2315  0.4473
 8072OCT     C116143  11.286  15.674   2.421 -0.1126  0.1455  0.0481
 8072OCT     C216144  11.006  15.600   2.775 -0.0236 -0.0375 -0.0579
 8073OCT     C116145   4.340   0.398   8.937 -0.0442  0.2053  0.1247
 8073OCT     C216146   4.708   0.713   9.110 -0.3533  0.4582  0.1182
 8074OCT     C116147  19.454  19.305  17.942  0.1643 -0.1330 -0.0802
 8074OCT     C216148  18.998  19.227  17.924 -0.3203  0.0571 -0.0619
 8075OCT     C116149   8.892   6.721  10.773  0.0320 -0.0514  0.2548
 8075OCT     C216150   8.756   6.379  11.077  0.3247 -0.1049 -0.0566
 8076OCT     C116151  11.393   6.468  21.159  0.1239 -0.0477 -0.5295
 8076OCT     C216152  11.283   6.113  21.435 -0.0675  0.2845  0.1285
 8077OCT     C116153   6.405  17.070   2.287 -0.3082  0.2177 -0.0466
 8077OCT     C216154   6.809  16.956   2.125  0.0513  0.1287  0.0652
 8078OCT     C116155  11.808  11.576   2.053 -0.0949  0.2415 -0.2544
 8078OCT     C216156  11.507  11.657   2.386 -0.0119  0.1434  0.2236
 8079OCT     C116157   9.622   5.560   7.979  0.2206  0.0170  0.0415
 8079OCT     C216158   9.201   5.456   8.217 -0.0606 -0.1731 -0.2616
 8080OCT     C116159   8.813   2.037  22.291  0.2390  0.0551 -0.1137
 8080OCT     C216160   9.237   1.918  22.054  0.1582  0.1882 -0.3611
 8081OCT     C116161   6.263   5.003  12.197 -0.0654  0.0420 -0.0100
 8081OCT     C216162   6.387   4.548  12.394 -0.0394 -0.3287  0.0673
 8082OCT     C116163  20.900  22.066  22.466  0.0692 -0.4503  0.1826
 8082OCT     C216164  21.290  22.027  22.294  0.3188 -0.1473  0.2730
 8083OCT     C116165   2.181   7.624   4.737  0.2304 -0.1380 -0.1521
 8083OCT     C216166   2.115   7.212   4.768  0.2586  0.0712  0.0501
 8084OCT     C116167   5.950   7.547  15.068  0.4446 -0.1400  0.0139
 8084OCT     C216168   6.127   7.668  14.608 -0.4678 -0.1242 -0.2808
 8085OCT     C116169   2.559  19.233  21.372  0.0894 -0.0098 -0.0974
 8085OCT     C216170   2.298  19.409  21.746  0.1399 -0.1743  0.1227
 8086OCT     C116171   3.231  15.450   5.916  0.1808 -0.0636 -0.3185
 8086OCT     C216172   3.216  15.435   5.463  0.1226 -0.0609  0.3214
 8087OCT     C116173  16.911  21.120  14.648  0.0276  0.3138 -0.0215
 8087OCT     C216174  17.072  21.559  14.620  0.1760  0.4955  0.3575
 8088OCT     C116175  18.673   3.476  10.268  0.1673  0.2589 -0.0624
 8088OCT     C216176  18.922   3.121  10.077  0.1144 -0.1845 -0.3721
 8089OCT     C116177  12.682  13.104   3.811 -0.1982  0.0236  0.0210
 8089OCT     C216178  12.464  13.534   3.998 -0.0802  0.1557 -0.0931
 8090OCT     C116179   4.007   2.257  18.533 -0.5970  0.2972 -0.1494
 8090OCT     C216180   3.767   2.603  18.581 -0.4554 -0.0551 -0.3382
 8091OCT     C116181   7.676  23.189  15.248 -0.0576  0.0503 -0.5119
 8091OCT     C216182   7.584  23.644  15.422  0.0111 -0.5842 -0.2164
 8092OCT     C116183   5.847   2.127  17.250 -0.2654  0.0151 -0.2187
 8092OCT     C216184   6.311   2.040  17.237  0.0984 -0.0269 -0.1722
 8093OCT     C116185   9.101   8.641   3.279  0.2489 -0.3425  0.0176
 8093OCT     C216186   9.050   8.655   3.750  0.0579 -0.0280 -0.3862
 8094OCT     C116187  17.856  19.505   6.821  0.2643  0.3144  0.0340
 8094OCT     C216188  17.882  19.081   6.818 -0.2122  0.2508 -0.0057
 8095OCT     C116189  14.668  15.934  19.711  0.3149  0.1032 -0.0141
 8095OCT     C216190  14.712  15.550  19.970  0.0183  0.3586  0.2111
 8096OCT     C116191  21.982  14.564  18.164  0.2337 -0.1008 -0.4741
 8096OCT     C216192  22.380  14.858  17.985  0.4039 -0.0695  0.0970
 8097OCT     C116193  10.574  15.446  17.990  0.1063 -0.1664  0.1776
 8097OCT     C216194  10.957  15.286  17.751  0.1325  0.4094 -0.0664
 8098OCT     C116195  17.899  17.721  20.955  0.0721 -0.3710  0.0889
 8098OCT     C216196  18.137  17.447  20.685  0.1941  0.0708 -0.0592
 8099OCT     C116197   7.101  20.531  15.303  0.0152 -0.2604  0.4265
 8099OCT     C216198   6.803  20.424  15.654  0.0375  0.2259 -0.0619
 8100OCT     C116199  19.318  14.887  23.376  0.1112 -0.0214  0.3468
 8100OCT     C216200  19.739  14.973  23.624 -0.1929 -0.0745 -0.2340
 8101OCT     C116201   1.925  10.542   7.846 -0.0206  0.0971  0.2345
 8101OCT     C216202   2.257  10.836   8.058  0.3630  0.3241  0.0649
 8102OCT     C116203  10.506  17.590   0.247  0.1053 -0.1797  0.0228
 8102OCT     C216204  10.263  17.493  23.609 -0.1259 -0.2226  0.2558
 8103OCT     C116205  13.033   0.140  16.659 -0.3084 -0.0959 -0.3489
 8103OCT     C216206  12.703   0.471  16.703 -0.4090  0.0541  0.3749
 8104OCT     C116207  22.990   5.486  22.333  0.0947 -0.0252 -0.4004
 8104OCT     C216208  23.396   5.749  22.371  0.0797  0.1975 -0.0103
 8105OCT     C116209   4.616   5.692   6.300  0.2559 -0.0465  0.1937
 8105OCT     C216210   4.276   5.855   6.021  0.0862 -0.0187 -0.0863
 8106OCT     C116211  23.049  16.899   3.030  0.0227 -0.0508 -0.3459
 8106OCT     C216212  23.475  16.671   2.926 -0.0450  0.3425  0.2265
 8107OCT     C116213  11.873   7.037  12.681 -0.0885  0.2969 -0.1002
 8107OCT     C216214  11.821   6.756  13.053  0.0245 -0.4539 -0.1896
 8108OCT     C116215  15.690  16.122   1.554  0.2531 -0.1976  0.2173
 8108OCT     C216216  15.489  15.932   1.202  0.3782 -0.0192 -0.0475
 8109OCT     C116217   9.851  19.245  16.847 -0.1147  0.0640 -0.0545
 8109OCT     C216218   9.731  19.678  17.033  0.0822 -0.2496  0.1337
 8110OCT     C116219   7.821  11.454  21.580 -0.3405 -0.0625  0.1661
 8110OCT     C216220   7.981  11.392  21.084 -0.2033  0.1245 -0.0628
 8111OCT     C116221  16.153  11.774   6.699  0.2189 -0.1665 -0.1767
 8111OCT     C216222  16.451  11.404   6.605  0.0224  0.1627 -0.0681
 8112OCT     C116223  20.301   6.650  19.199 -0.0245 -0.0901 -0.2927
 8112OCT     C216224  20.013   6.623  19.584  0.0466 -0.0703  0.1081
 8113OCT     C116225   4.886   8.969  22.714  0.0615  0.2373  0.1372
 8113OCT     C216226   4.843   8.639  22.974 -0.0641  0.0501 -0.0069
 8114OCT     C116227   7.406   3.827  15.652 -0.2298 -0.0444  0.3626
 8114OCT     C216228   7.384   4.268  15.863 -0.1024 -0.1744 -0.0993
 8115OCT     C116229  17.144  17.971  16.322  0.2798  0.1361 -0.0102
 8115OCT     C216230  17.472  17.596  16.256  0.2181 -0.3778 -0.2030
 8116OCT     C116231  18.559  13.449   8.785  0.5275  0.1511  0.1172
 8116OCT     C216232  18.770  12.993   8.867 -0.0563 -0.2899 -0.0673
 8117OCT     C116233   8.473   9.498   0.756 -0.1096  0.2363 -0.4301
 8117OCT     C216234   8.681   9.650   1.164  0.2107  0.1903  0.0272
 8118OCT     C116235   3.258   9.584   1.248 -0.2616  0.0387  0.3459
 8118OCT     C216236   3.189   9.317   0.857  0.1906 -0.2269 -0.0548
 8119OCT     C116237  12.808  13.658  19.387 -0.0624  0.1571  0.2877
 8119OCT     C216238  13.226  13.436  19.399  0.4157 -0.4149 -0.3739
 8120OCT     C116239  13.733   8.562  10.475 -0.1352 -0.4629 -0.3176
 8120OCT     C216240  13.646   8.786  10.023  0.1083 -0.2185 -0.2252
 8121OCT     C116241  21.116  13.810   6.453  0.3019 -0.2048 -0.2463
 8121OCT     C216242  21.292  13.635   6.848 -0.0302  0.0117 -0.1345
 8122OCT     C116243   1.932  15.393  21.620 -0.1052  0.3168  0.1083
 8122OCT     C216244   1.873  15.572  21.185  0.0606  0.2343 -0.2200
 8123OCT     C116245  22.802  11.866  22.686  0.3050  0.4099  0.1306
 8123OCT     C216246  22.947  11.776  23.117 -0.0369  0.2113  0.0679
 8124OCT     C116247  22.940  12.673   2.381 -0.0268  0.2546 -0.3099
 8124OCT     C216248  23.306  12.679   2.065  0.0277 -0.1556 -0.1235
 8125OCT     C116249   1.211  19.021   7.827 -0.1954  0.1148 -0.2427
 8125OCT     C216250   0.982  19.160   7.458  0.1570  0.0863  0.1053
 8126OCT     C116251   7.505  22.340  10.289  0.1949 -0.0089  0.1427
 8126OCT     C216252   7.211  22.686  10.397 -0.2194 -0.0292  0.1245
 8127OCT     C116253  21.650   2.138  21.058  0.0475  0.2274  0.0295
 8127OCT     C216254  21.971   1.785  21.072  0.3746 -0.2160  0.3580
 8128OCT     C116255  16.718  20.109   1.538 -0.1078  0.0046  0.0658
 8128OCT     C216256  16.305  20.267   1.611 -0.2375 -0.1488  0.2183
 8129OCT     C116257   3.426  18.945   2.679  0.0020  0.1607 -0.0329
 8129OCT     C216258   3.539  18.641   3.027  0.1638 -0.3466 -0.1127
 8130OCT     C116259   7.537   5.672   0.268 -0.2259  0.0043 -0.1918
 8130OCT     C216260   7.782   6.019   0.034  0.0588  0.3388  0.1229
 8131OCT     C116261  23.686   7.506  23.247 -0.1374  0.0050 -0.1565
 8131OCT     C216262  23.709   7.742  23.618  0.0418  0.0040  0.3020
 8132OCT     C116263   0.585   7.019  17.376 -0.1502  0.2870  0.2598
 8132OCT     C216264   0.803   6.652  17.230  0.0707  0.2631 -0.1624
 8133OCT     C116265   2.399   8.024  10.143 -0.1149  0.0572  0.1816
 8133OCT     C216266   2.768   8.305  10.088  0.1720 -0.3897 -0.0476
 8134OCT     C116267  16.279  23.042  23.018  0.2758 -0.0449  0.0347
 8134OCT     C216268  16.514  23.191  23.409  0.2097 -0.1745  0.2169
 8135OCT     C116269  18.713  12.514  16.090 -0.0985 -0.0444  0.3479
 8135OCT     C216270  19.125  12.480  16.322  0.3853  0.0053  0.1108
 8136OCT     C116271  19.240   5.420   3.918 -0.3515 -0.0510  0.4833
 8136OCT     C216272  19.385   5.712   3.603  0.1261 -0.0294  0.2488
 8137OCT     C116273  17.360   2.008  16.289 -0.0944 -0.0111  0.3688
 8137OCT     C216274  17.229   1.615  16.514 -0.1042 -0.0214  0.0604
 8138OCT     C116275   1.681  19.529   8.628  0.1420 -0.0174  0.1591
 8138OCT     C216276   2.042  19.592   8.244 -0.2303  0.0914  0.0272
 8139OCT     C116277  17.808  11.356  17.373 -0.3378 -0.1670 -0.2070
 8139OCT     C216278  18.251  11.322  17.164  0.1845  0.0263 -0.1040
 8140OCT     C116279  18.259  17.421   5.272  0.2314  0.1269  0.0508
 8140OCT     C216280  18.628  17.237   5.127 -0.1604 -0.0429  0.1112
 8141OCT     C116281  19.398   3.479   1.250  0.1518  0.2038  0.1743
 8141OCT     C216282  19.558   3.336   1.640 -0.2775 -0.0142  0.1645
 8142OCT     C116283  12.521  15.298  22.766  0.1197 -0.1789  0.0004
 8142OCT     C216284  12.724  15.724  22.969  0.1576  0.2963 -0.1822
 8143OCT     C116285  13.536  16.023  15.106  0.2020 -0.0914  0.3151
 8143OCT     C216286  13.554  16.240  15.535  0.1656  0.0361 -0.0162
 8144OCT     C116287   3.593   9.707  14.301  0.5569 -0.3983 -0.3057
 8144OCT     C216288   3.532   9.304  14.305 -0.0102  0.0556 -0.0460
 8145OCT     C116289   3.917  10.113  14.635 -0.4181 -0.0906  0.1487
 8145OCT     C216290   3.848  10.500  14.374  0.2655  0.0215  0.0672
 8146OCT     C116291   8.877  15.369   5.277  0.0133  0.1006 -0.2213
 8146OCT     C216292   8.746  15.572   4.872 -0.2445 -0.0930 -0.2507
 8147OCT     C116293   8.873   2.591  23.192 -0.2507 -0.3637  0.3393
 8147OCT     C216294   8.412   2.596  23.409  0.0437  0.0352 -0.3139
 8148OCT     C116295   9.329   2.376   4.465  0.5856 -0.0403 -0.3021
 8148OCT     C216296   9.072   2.656   4.785 -0.2358 -0.0383  0.0074
 8149OCT     C116297   8.571  14.865   0.637 -0.0873  0.1919 -0.0619
 8149OCT     C216298   8.352  15.183   0.355  0.0430  0.1815  0.2178
 8150OCT     C116299   2.014  13.514   0.693  0.1909 -0.1898  0.1143
 8150OCT     C216300   1.605  13.762   0.824  0.1206 -0.0000  0.0853
 8151OCT     C116301  15.875   9.152  20.335  0.1452  0.0091  0.1590
 8151OCT     C216302  16.158   9.479  20.188 -0.2170  0.1644 -0.2227
 8152OCT     C116303  20.158  16.059  20.239 -0.0254  0.1657 -0.3133
 8152OCT     C216304  19.781  16.303  20.194 -0.0147 -0.7688  0.3059
 8153OCT     C116305  10.111   4.336   1.093 -0.1217  0.2802 -0.1194
 8153OCT     C216306  10.273   3.909   1.169  0.0110  0.3005  0.1449
 8154OCT     C116307   5.659   6.368  21.570  0.1639  0.1159 -0.2313
 8154OCT     C216308   5.239   6.583  21.636 -0.0456 -0.1486  0.0305
 8155OCT     C116309  10.580  12.661   5.615  0.1076 -0.0729  0.1107
 8155OCT     C216310  10.291  12.347   5.715  0.3203  0.0712 -0.1656
 8156OCT     C116311  10.648  11.731  10.352  0.0918 -0.2252 -0.0018
 8156OCT     C216312  10.431  11.895  10.721  0.2393  0.1853  0.1133
 8157OCT     C116313  15.283   7.570  15.689 -0.1663 -0.2900 -0.1772
 8157OCT     C216314  14.895   7.368  15.775  0.0681 -0.4561  0.2718
 8158OCT     C116315  22.224   5.625  13.950  0.4437  0.1834  0.0457
 8158OCT     C216316  21.833   5.733  14.156 -0.1459  0.2211 -0.0688
 8159OCT     C116317   4.461   2.741   5.958  0.2995 -0.0861 -0.4098
 8159OCT     C216318   4.638   2.992   5.619  0.1671 -0.0189  0.1085
 8160OCT     C116319   2.660  14.631  16.421  0.0494 -0.1683  0.2047
 8160OCT     C216320   2.694  14.751  16.848  0.3006  0.2244 -0.0881
 8161OCT     C116321   7.917  18.570  11.828  0.0411  0.2910  0.3105
 8161OCT     C216322   8.010  18.439  11.368 -0.0311  0.0042  0.1195
 8162OCT     C116323  12.701   8.026  10.873 -0.0632  0.0729  0.0856
 8162OCT     C216324  13.161   7.929  11.041 -0.1243  0.0173  0.0998
 8163OCT     C116325  10.865   1.985   2.187  0.1763  0.0129  0.0184
 8163OCT     C216326  10.446   1.936   2.391  0.3525  0.1370  0.2673
 8164OCT     C116327  10.074   5.541  15.238 -0.0707  0.1696  0.0904
 8164OCT     C216328  10.277   5.154  15.036  0.1576 -0.1557  0.3158
 8165OCT     C116329   6.432  15.607   2.227  0.2395 -0.2142 -0.0145
 8165OCT     C216330   6.800  15.682   2.595  0.1974  0.5486 -0.1542
 8166OCT     C116331  10.929  22.543   6.710 -0.4121 -0.1336 -0.0639
 8166OCT     C216332  11.280  22.864   6.690  0.0237 -0.0440 -0.3261
 8167OCT     C116333  19.152  17.657  11.317  0.0005  0.0314 -0.1233
 8167OCT     C216334  19.138  17.862  10.882  0.5102  0.1268  0.0296
 8168OCT     C116335   5.194  11.221   3.299  0.3009 -0.0908 -0.1692
 8168OCT     C216336   5.224  10.737   3.418 -0.2313 -0.1240 -0.1007
 8169OCT     C116337   1.774   8.041   8.261  0.3395 -0.1894  0.1270
 8169OCT     C216338   1.660   8.160   8.656 -0.1307  0.3123  0.1317
 8170OCT     C116339  10.661   6.148   0.945 -0.1837 -0.0663  0.0253
 8170OCT     C216340  10.591   5.939   0.488 -0.0741  0.1396  0.2687
 8171OCT     C116341   5.297   0.429   5.135  0.1735 -0.0630  0.3249
 8171OCT     C216342   5.038   0.287   5.469  0.2037  0.3161 -0.1106
 8172OCT     C116343  13.012  18.725   0.896  0.0214 -0.0475  0.0990
 8172OCT     C216344  13.059  18.282   0.804 -0.1120  0.0952 -0.2655
 8173OCT     C116345   7.146   9.660   4.814  0.1305 -0.1968 -0.0504
 8173OCT     C216346   6.771   9.963   5.002  0.0816 -0.1611 -0.3457
 8174OCT     C116347  15.521  18.723  12.697  0.3828 -0.1216  0.1420
 8174OCT     C216348  15.270  18.295  12.530 -0.0795  0.0843 -0.0696
 8175OCT     C116349  10.687   3.706  23.318  0.1838  0.0300  0.0646
 8175OCT     C216350  10.346   3.730  23.618 -0.0177 -0.2078 -0.3413
 8176OCT     C116351  23.386  15.273  21.304 -0.1086 -0.2643 -0.1287
 8176OCT     C216352  23.014  14.956  21.380  0.1015 -0.1540 -0.2479
 8177OCT     C116353  15.346  23.727   1.843  0.0407  0.0352  0.1050
 8177OCT     C216354  15.651   0.074   1.476  0.1027  0.2204  0.1039
 8178OCT     C116355  23.173   8.707  18.056  0.2077 -0.1472  0.0990
 8178OCT     C216356  23.460   8.348  17.884 -0.2006 -0.1488 -0.1199
 8179OCT     C116357  23.594  12.873   3.978  0.1159  0.0650  0.1195
 8179OCT     C216358  23.545  13.239   3.630 -0.0995  0.1092  0.1842
 8180OCT     C116359   0.614   3.382  19.806 -0.0915  0.0629 -0.0045
 8180OCT     C216360   0.516   3.236  20.220 -0.3963  0.2362 -0.0003
 8181OCT     C116361  20.634   1.653   9.210  0.1855 -0.2037 -0.2242
 8181OCT     C216362  20.900   1.833   9.579  0.0586 -0.2214 -0.0575
 8182OCT     C116363  16.106   0.533   1.006 -0.2276 -0.0527 -0.1642
 8182OCT     C216364  16.407   0.612   0.672 -0.3916  0.0472 -0.1218
 8183OCT     C116365   7.942  10.300  20.920 -0.0226 -0.0410  0.6718
 8183OCT     C216366   7.626  10.633  20.845  0.1183  0.1056 -0.0191
 8184OCT     C116367   0.546  16.711  17.341 -0.1242  0.0185 -0.1587
 8184OCT     C216368   0.649  16.769  17.823  0.1041 -0.1849  0.0240
 8185OCT     C116369   8.843   9.935  22.101 -0.0595  0.0947  0.0226
 8185OCT     C216370   9.200  10.138  21.970 -0.0756  0.1796 -0.4585
 8186OCT     C116371   3.809  13.412  16.500 -0.1340  0.0850 -0.2128
 8186OCT     C216372   3.800  13.811  16.698  0.2277 -0.0939 -0.1563
 8187OCT     C116373  14.673   8.939  16.148 -0.1140 -0.0466  0.1365
 8187OCT     C216374  14.823   8.583  15.874 -0.3631 -0.0894  0.2663
 8188OCT     C116375  13.476  19.071  13.245 -0.0737  0.2303  0.1410
 8188OCT     C216376  13.904  18.912  13.150 -0.2193 -0.0813 -0.1717
 8189OCT     C116377   9.406   4.244  13.382 -0.0632 -0.0834 -0.0077
 8189OCT     C216378   9.631   4.380  13.037  0.2050  0.0195 -0.1277
 8190OCT     C116379   1.265  14.718  17.455  0.0583  0.1008  0.2445
 8190OCT     C216380   1.114  15.124  17.301 -0.1224  0.3430  0.0785
 8191OCT     C116381  13.022  21.276  13.651  0.0548 -0.0628 -0.4577
 8191OCT     C216382  12.913  21.680  13.396 -0.2012  0.2289  0.1931
 8192OCT     C116383   5.290   0.110  16.545  0.0065 -0.0016  0.1380
 8192OCT     C216384   5.095  23.715  16.118  0.3267  0.0833 -0.4563
 8193OCT     C116385  14.847   2.970   8.898 -0.1388 -0.2670  0.0811
 8193OCT     C216386  14.936   3.271   8.605 -0.1603  0.0658 -0.0251
 8194OCT     C116387  23.274  17.384   7.129  0.0639  0.0986 -0.1587
 8194OCT     C216388  23.138  17.687   7.458  0.1554  0.0013  0.2177
 8195OCT     C116389   5.180   8.488  12.014 -0.0327  0.2396  0.1497
 8195OCT     C216390   5.454   8.490  12.389  0.0268  0.0873 -0.2868
 8196OCT     C116391  19.792  11.985  21.348  0.1187 -0.0961 -0.2880
 8196OCT     C216392  19.524  11.651  21.140  0.2340 -0.0232 -0.0045
 8197OCT     C116393   8.165  17.311  21.342 -0.1513 -0.3069  0.1088
 8197OCT     C216394   7.744  17.463  21.442 -0.2158  0.1140  0.0699
 8198OCT     C116395  14.508  15.252   2.279  0.0474  0.5055 -0.1975
 8198OCT     C216396  14.712  15.106   2.675 -0.4388 -0.0225 -0.1767
 8199OCT     C116397  14.591  15.721  18.737  0.0718 -0.0788 -0.3870
 8199OCT     C216398  15.080  15.822  18.780  0.1537  0.3102 -0.3987
 8200OCT     C116399  10.355  14.402  13.483 -0.0438 -0.1392  0.2856
 8200OCT     C216400  10.055  14.086  13.677  0.1178 -0.2125 -0.4389
 8201OCT     C116401   4.573   0.667  17.398  0.3261  0.1147  0.0582
 8201OCT     C216402   4.815   0.249  17.440 -0.2625  0.2663  0.1681
 8202OCT     C116403  22.000   8.957   7.142 -0.4063 -0.4467 -0.1005
 8202OCT     C216404  22.379   8.736   6.972  0.0062 -0.3576 -0.0482
 8203OCT     C116405  21.816   8.482  20.163 -0.0124 -0.1028  0.1040
 8203OCT     C216406  21.884   8.605  20.573 -0.0059  0.1861  0.1101
 8204OCT     C116407  15.483  10.957  15.787 -0.2790 -0.3062  0.0613
 8204OCT     C216408  15.793  11.296  15.836  0.3625  0.2814 -0.0385
 8205OCT     C116409  14.743  11.910  12.128 -0.0528 -0.0633  0.1036
 8205OCT     C216410  14.989  12.096  12.508 -0.3848 -0.2395 -0.0784
 8206OCT     C116411  19.558   5.264  13.902 -0.2704 -0.2724  0.1635
 8206OCT     C216412  19.172   5.044  13.994 -0.1517 -0.3318 -0.1143
 8207OCT     C116413  10.441  21.524  14.839  0.0086  0.1301 -0.3300
 8207OCT     C216414  10.740  21.507  14.477 -0.0819  0.3080 -0.0120
 8208OCT     C116415  16.242  16.005  14.171  0.4924 -0.2507  0.1048
 8208OCT     C216416  15.921  15.993  14.545  0.2710 -0.1448  0.2412
 8209OCT     C116417   2.243   0.860  23.149  0.2022  0.0790  0.1952
 8209OCT     C216418   2.421   0.720  22.698  0.1231  0.0392 -0.1146
 8210OCT     C116419  17.998  10.340   1.107 -0.2872 -0.2963 -0.3371
 8210OCT     C216420  17.923  10.100   1.507  0.0918  0.0761  0.0175
 8211OCT     C116421   1.097   5.664  15.133  0.2493 -0.1071 -0.0054
 8211OCT     C216422   0.944   5.319  15.415  0.3320 -0.0378 -0.1288
 8212OCT     C116423  19.426  14.250  22.172 -0.2529 -0.0550  0.2261
 8212OCT     C216424  19.369  14.125  21.709  0.1466 -0.2719 -0.1987
 8213OCT     C116425   5.187   6.108  14.064  0.0908  0.1350 -0.5098
 8213OCT     C216426   5.288   6.566  14.140  0.5841  0.2316 -0.2385
 8214OCT     C116427  16.997  20.073   8.273  0.1788  0.1860 -0.1400
 8214OCT     C216428  17.182  20.445   8.056 -0.1466 -0.0483 -0.2382
 8215OCT     C116429  10.230  15.111  13.131  0.3445  0.1594 -0.0732
 8215OCT     C216430  10.556  14.778  13.109  0.1800  0.0401 -0.0933
 8216OCT     C116431  14.413  16.977  11.702 -0.1727  0.0993 -0.2324
 8216OCT     C216432  14.087  16.640  11.672  0.1582 -0.2366 -0.1896
 8217OCT     C116433  20.418   0.456  15.980  0.0049 -0.3354 -0.1005
 8217OCT     C216434  20.491   0.044  15.933  0.0066  0.1683  0.2823
 8218OCT     C116435  21.067  17.024  22.081 -0.4610 -0.0521  0.1589
 8218OCT     C216436  20.971  16.587  21.998 -0.3205  0.0286 -0.0815
 8219OCT     C116437  19.261  14.349  16.855 -0.1497 -0.1273 -0.1669
 8219OCT     C216438  19.469  14.596  17.244 -0.0852  0.1117  0.2843
 8220OCT     C116439   7.893   5.365  19.595 -0.1283 -0.1040  0.1293
 8220OCT     C216440   8.220   5.010  19.543  0.0766  0.1474  0.2650
 8221OCT     C116441  20.648   3.843  15.407 -0.0393 -0.1308  0.0622
 8221OCT     C216442  20.781   4.238  15.569 -0.0009 -0.4412 -0.2465
 8222OCT     C116443  17.831  16.544  21.047 -0.0635  0.3074 -0.2240
 8222OCT     C216444  18.253  16.617  21.170  0.1099  0.2021 -0.1810
 8223OCT     C116445  15.530   8.323   2.437  0.1043 -0.4714  0.0308
 8223OCT     C216446  15.741   8.510   2.098  0.0546  0.1687  0.1730
 8224OCT     C116447  16.611   5.445  23.526 -0.0833 -0.1320  0.2761
 8224OCT     C216448  16.578   5.756   0.121 -0.1289  0.0823  0.0202
 8225OCT     C116449   3.984  18.773   9.201 -0.0982  0.3736 -0.2972
 8225OCT     C216450   3.733  19.159   9.272 -0.0952 -0.2283  0.3203
 8226OCT     C116451   9.766  20.279  19.049  0.2130  0.2747 -0.0039
 8226OCT     C216452  10.136  20.376  19.283 -0.1048 -0.0200  0.0693
 8227OCT     C116453  23.066  18.061  12.814 -0.2134  0.0258  0.1232
 8227OCT     C216454  23.331  17.697  12.901  0.1888  0.0796 -0.1258
 8228OCT     C116455  13.411  17.786   4.480 -0.1214  0.1278 -0.0784
 8228OCT     C216456  13.091  17.508   4.578 -0.0441  0.0775 -0.3595
 8229OCT     C116457   2.585  21.366   5.518 -0.1388  0.2885 -0.4288
 8229OCT     C216458   2.983  21.512   5.368  0.2831  0.0034 -0.0353
 8230OCT     C116459  16.687   5.768  21.084 -0.1163 -0.2438 -0.2001
 8230OCT     C216460  16.533   6.128  20.859  0.3329  0.0618 -0.0958
 8231OCT     C116461  11.482  20.030   1.887  0.0889 -0.0957  0.2839
 8231OCT     C216462  11.703  19.662   1.767 -0.2212  0.0488 -0.0201
 8232OCT     C116463  22.290   5.582   3.574  0.1439 -0.1483  0.1992
 8232OCT     C216464  22.410   5.213   3.865 -0.1701 -0.0494 -0.3826
 8233OCT     C116465  15.379  20.565  22.538 -0.1708 -0.3162  0.2361
 8233OCT     C216466  14.885  20.584  22.679  0.0181  0.1522 -0.0703
 8234OCT     C116467  11.169  13.673  18.644 -0.0956 -0.1053 -0.3511
 8234OCT     C216468  10.753  13.837  18.330  0.5439  0.4459  0.1651
 8235OCT     C116469  22.999   2.967  16.969 -0.0923  0.0343  0.0632
 8235OCT     C216470  22.669   3.008  17.326  0.0949 -0.0524 -0.0079
 8236OCT     C116471  14.128   9.061  13.469  0.0583 -0.4303  0.0863
 8236OCT     C216472  13.813   8.922  13.752 -0.1060  0.2303 -0.3629
 8237OCT     C116473  15.424   4.218   6.853 -0.0783  0.1446  0.2455
 8237OCT     C216474  15.836   4.176   6.601  0.1684  0.2566  0.1315
 8238OCT     C116475   1.795  17.597  20.153 -0.1127  0.2318 -0.1688
 8238OCT     C216476   2.141  17.476  19.866  0.1593 -0.0017  0.0812
 8239OCT     C116477   5.672   6.610   0.547 -0.0158 -0.1878 -0.0037
 8239OCT     C216478   5.907   6.324   0.227  0.3987  0.2994  0.0041
 8240OCT     C116479   8.637  23.233  21.811  0.3217 -0.1039 -0.2288
 8240OCT     C216480   9.084  23.018  21.789 -0.0540 -0.2386  0.1952
 8241OCT     C116481  10.584   7.583  19.121 -0.0454 -0.3559 -0.1190
 8241OCT     C216482  10.167   7.810  19.305 -0.0670  0.1799  0.2126
 8242OCT     C116483   1.730  15.394  16.502 -0.0580  0.3292  0.1158
 8242OCT     C216484   1.732  15.218  16.123  0.0072  0.2060  0.0850
 8243OCT     C116485  10.380   0.185  11.395  0.1480 -0.3265 -0.4382
 8243OCT     C216486  10.488   0.626  11.109  0.2961 -0.2836  0.0455
 8244OCT     C116487  16.800  14.015  13.513  0.0889 -0.1139 -0.1946
 8244OCT     C216488  16.731  14.262  13.091  0.0373 -0.0367  0.1521
 8245OCT     C116489  21.698  22.571  10.470 -0.4708  0.1994  0.0542
 8245OCT     C216490  21.656  22.968  10.243  0.3573 -0.1483 -0.0975
 8246OCT     C116491   2.432  19.797  21.209  0.0651 -0.2031 -0.1064
 8246OCT     C216492   2.043  19.827  21.516  0.4004  0.1163 -0.0732
 8247OCT     C116493  16.693   6.408  22.704 -0.3584 -0.2921  0.6150
 8247OCT     C216494  17.043   6.732  22.764  0.1622  0.2772  0.0688
 8248OCT     C116495  19.359  15.406   2.352  0.1385 -0.3181  0.0983
 8248OCT     C216496  19.607  15.597   2.784  0.2416  0.0300 -0.0903
 8249OCT     C116497  22.356  22.214   5.967 -0.1719 -0.1040 -0.1295
 8249OCT     C216498  22.204  22.572   6.206  0.0974  0.1326 -0.3096
 8250OCT     C116499   7.209  15.857   8.880  0.2119  0.1537  0.0528
 8250OCT     C216500   6.993  15.864   9.285  0.0794  0.3721 -0.3470
 8251OCT     C116501  10.584   4.744  22.046  0.4771 -0.0948  0.3166
 8251OCT     C216502  10.286   4.729  21.660 -0.3880 -0.0323  0.2497
 8252OCT     C116503  20.878   0.736   7.548 -0.1480 -0.0249 -0.0202
 8252OCT     C216504  20.776   0.886   7.987 -0.1886 -0.1624 -0.2411
 8253OCT     C116505  16.183   8.532  10.087 -0.2869 -0.1667  0.0795
 8253OCT     C216506  16.152   8.466   9.598  0.1327  0.2289  0.2610
 8254OCT     C116507  10.831  11.396  20.107  0.2999  0.1246  0.0063
 8254OCT     C216508  10.684  11.746  19.802 -0.0709 -0.2754  0.1712
 8255OCT     C116509   4.053   0.304   5.512 -0.2451 -0.2051  0.3766
 8255OCT     C216510   4.055   0.440   5.017 -0.1917 -0.2110  0.0986
 8256OCT     C116511  16.932  12.595   9.171  0.2111  0.3556 -0.1202
 8256OCT     C216512  16.711  12.536   8.699 -0.2254  0.1078 -0.2577
 8257OCT     C116513   0.672   7.303   6.319 -0.1738  0.2654 -0.0559
 8257OCT     C216514   0.761   7.744   6.193 -0.1647  0.0472 -0.3285
 8258OCT     C116515  12.098  19.127  21.460  0.2611  0.0352 -0.3177
 8258OCT     C216516  12.406  19.240  21.157 -0.0380 -0.0767  0.2140
 8259OCT     C116517   5.940   6.767   6.784 -0.0451  0.2175 -0.0259
 8259OCT     C216518   6.116   7.202   6.671  0.0451  0.0290  0.2351
 8260OCT     C116519  11.985   5.826   1.227 -0.1918 -0.1785 -0.2120
 8260OCT     C216520  12.160   5.673   0.826  0.1195 -0.0931  0.1303
 8261OCT     C116521  10.867  11.610   4.660  0.4690 -0.2328 -0.0681
 8261OCT     C216522  10.782  11.951   4.952  0.1111  0.2691 -0.0333
 8262OCT     C116523   8.569   7.237   1.580 -0.0885  0.1109 -0.0657
 8262OCT     C216524   8.839   7.087   1.922 -0.0223 -0.1856 -0.2126
 8263OCT     C116525  12.790   2.212  18.146  0.3296 -0.3827  0.1050
 8263OCT     C216526  13.048   2.002  17.803  0.2077  0.0040 -0.0701
 8264OCT     C116527   0.407  16.589  19.578 -0.2105  0.1006  0.0662
 8264OCT     C216528   0.294  16.438  19.109  0.0155  0.1767  0.0893
 8265OCT     C116529   0.226  10.670  16.017  0.3090  0.3555  0.4395
 8265OCT     C216530   0.521  10.821  16.359 -0.0758  0.0836 -0.0376
 8266OCT     C116531  15.705   4.369   8.798 -0.3422 -0.3645 -0.0628
 8266OCT     C216532  15.845   4.774   8.967 -0.1684  0.6641 -0.4738
 8267OCT     C116533  21.640   6.982  21.422  0.0413  0.0591  0.1232
 8267OCT     C216534  21.329   7.072  21.084 -0.2647  0.6134  0.3094
 8268OCT     C116535  13.561  21.526  18.374 -0.0075  0.3763  0.5719
 8268OCT     C216536  13.234  21.175  18.208  0.1800 -0.3179 -0.0193
 8269OCT     C116537  23.448  21.270   7.873  0.1089  0.1834 -0.2612
 8269OCT     C216538  23.011  21.343   7.642 -0.1698 -0.1893 -0.0076
 8270OCT     C116539  18.412   4.617  12.177 -0.0287 -0.1976  0.2341
 8270OCT     C216540  18.189   4.307  12.004 -0.1636 -0.2457 -0.2249
 8271OCT     C116541  19.405  14.090  21.215  0.2881 -0.0090 -0.1653
 8271OCT     C216542  19.430  14.509  21.384 -0.0676 -0.0316 -0.2747
 8272OCT     C116543  21.931  11.126   4.661  0.1027  0.1928  0.3772
 8272OCT     C216544  21.647  10.898   4.973  0.1790 -0.2975  0.1214
 8273OCT     C116545  13.749   2.546  21.895 -0.0977 -0.0982 -0.0407
 8273OCT     C216546  14.165   2.498  21.798  0.3081 -0.3170 -0.2907
 8274OCT     C116547  18.998   6.663   9.403  0.3723  0.2106 -0.0741
 8274OCT     C216548  18.984   6.990   9.176 -0.1284  0.1600  0.1778
 8275OCT     C116549  16.093   9.201  17.853  0.2787  0.2285 -0.0902
 8275OCT     C216550  16.328   9.230  18.265 -0.0191 -0.1079 -0.0210
 8276OCT     C116551  22.340   4.114  21.774 -0.0576  0.1697 -0.1805
 8276OCT     C216552  21.912   4.041  21.993  0.2498  0.3765 -0.2185
 8277OCT     C116553   8.023   4.162  12.232  0.1115  0.1843 -0.2483
 8277OCT     C216554   7.821   4.526  12.444 -0.1328  0.2396  0.1514
 8278OCT     C116555   2.586  18.987   1.087 -0.1373 -0.1933 -0.0031
 8278OCT     C216556   2.467  18.980   0.617 -0.0417 -0.2103 -0.2322
 8279OCT     C116557  19.557  15.302  18.542 -0.0272  0.1435  0.1391
 8279OCT     C216558  19.566  15.341  19.013  0.2608 -0.0115  0.1084
 8280OCT     C116559  18.924  11.584   6.553  0.0438  0.1166 -0.0640
 8280OCT     C216560  18.434  11.493   6.634  0.1386  0.3633 -0.0826
 8281OCT     C116561   4.886  11.584  11.915 -0.2124  0.3204  0.2712
 8281OCT     C216562   4.991  12.023  11.938 -0.0910  0.1959  0.3479
 8282OCT     C116563   8.311   3.618  18.484 -0.3308  0.0151 -0.1494
 8282OCT     C216564   8.540   3.476  18.887 -0.0647  0.1164  0.3646
 8283OCT     C116565   7.394  13.744  10.319 -0.1789 -0.0048 -0.1083
 8283OCT     C216566   7.364  14.003  10.724  0.1288 -0.1865  0.0935
 8284OCT     C116567   4.963  10.779  20.092  0.2538 -0.2798  0.0636
 8284OCT     C216568   4.491  10.694  20.099 -0.1118 -0.3238  0.3257
 8285OCT     C116569  10.608  21.976  14.691 -0.0002 -0.2162  0.1496
 8285OCT     C216570  10.683  21.880  15.127 -0.0464  0.1461 -0.3388
 8286OCT     C116571   9.275  13.472  20.196 -0.1056  0.3066  0.1523
 8286OCT     C216572   8.960  13.164  20.507  0.1210 -0.1714  0.0730
 8287OCT     C116573  19.361   7.343  10.907 -0.1574  0.1390 -0.1554
 8287OCT     C216574  19.759   7.595  10.996  0.1485 -0.0402 -0.0516
 8288OCT     C116575  13.131  21.329  23.508 -0.1163 -0.3420  0.5831
 8288OCT     C216576  13.026  20.969  23.317  0.4461  0.1527  0.6300
 8289OCT     C116577   0.531  12.384   0.963  0.4742  0.1325  0.1711
 8289OCT     C216578   0.914  12.440   1.199  0.1725 -0.1673 -0.3332
 8290OCT     C116579  20.376   8.938   5.591 -0.1927  0.1507  0.2506
 8290OCT     C216580  20.132   8.518   5.544  0.1691  0.0057  0.0415
 8291OCT     C116581   1.756  21.257  23.178  0.1541 -0.1071  0.4734
 8291OCT     C216582   1.830  21.310  23.667  0.3249  0.1671  0.2047
 8292OCT     C116583  20.103  13.323   4.239  0.3784 -0.3488  0.3284
 8292OCT     C216584  19.647  13.350   4.356 -0.0132  0.0743  0.0226
 8293OCT     C116585  20.879  22.358   3.971 -0.1360  0.0643 -0.0082
 8293OCT     C216586  21.222  22.428   4.278  0.3535  0.0459 -0.2420
 8294OCT     C116587  10.262   2.827   6.338 -0.0777  0.3659 -0.0369
 8294OCT     C216588  10.700   2.994   6.336  0.3251 -0.4132 -0.0120
 8295OCT     C116589  12.811  11.139   2.569 -0.0127  0.4004 -0.1199
 8295OCT     C216590  13.003  11.463   2.364 -0.1031  0.1125  0.0398
 8296OCT     C116591   5.402   4.639   8.009 -0.0142 -0.0747  0.4134
 8296OCT     C216592   5.208   4.744   8.487  0.0940  0.0069 -0.1126
 8297OCT     C116593  12.702   7.820   1.036  0.0281  0.0529 -0.0253
 8297OCT     C216594  12.342   8.156   0.954 -0.1232  0.3535  0.1692
 8298OCT     C116595  17.725   3.902   2.705 -0.2334  0.0609 -0.0481
 8298OCT     C216596  17.783   4.340   2.902  0.1377 -0.2482  0.2975
 8299OCT     C116597  18.452   7.033  17.426  0.0194  0.2877  0.2418
 8299OCT     C216598  18.667   7.451  17.410  0.1228  0.0773  0.0131
 8300OCT     C116599  11.799  11.852  17.617 -0.2650  0.1758 -0.0404
 8300OCT     C216600  11.952  11.850  17.127 -0.0464  0.2712 -0.2064
 8301OCT     C116601   9.269  20.427   9.362 -0.3108  0.0664  0.1036
 8301OCT     C216602   9.473  20.120   9.609 -0.1294  0.3533  0.3403
 8302OCT     C116603  20.318   1.621   3.542  0.4449  0.1182 -0.0712
 8302OCT     C216604  20.630   1.327   3.658  0.0391  0.0556 -0.3536
 8303OCT     C116605  10.876   1.954  21.166 -0.1066 -0.3055 -0.0035
 8303OCT     C216606  11.157   1.992  20.882 -0.3183  0.1078  0.4668
 8304OCT     C116607  12.782   1.247   1.887  0.2253  0.1106  0.0473
 8304OCT     C216608  12.965   0.896   2.139  0.4361  0.1268 -0.4513
 8305OCT     C116609  17.901  10.976  17.028 -0.0914 -0.2953  0.1086
 8305OCT     C216610  18.148  10.805  16.690  0.0027  0.4240  0.0512
 8306OCT     C116611   7.382   9.025   0.541 -0.3065 -0.1132  0.3096
 8306OCT     C216612   7.314   8.609   0.766  0.0336 -0.4657 -0.3662
 8307OCT     C116613  15.878  21.604  15.358 -0.1097  0.1955 -0.0283
 8307OCT     C216614  15.695  21.237  15.191  0.0675  0.4113  0.0565
 8308OCT     C116615  11.942   1.082   1.289 -0.0543  0.0259 -0.1392
 8308OCT     C216616  12.133   1.109   0.863 -0.0170  0.0035 -0.0201
 8309OCT     C116617  18.797   7.492  20.863  0.1385 -0.0898 -0.2290
 8309OCT     C216618  18.632   7.258  21.239 -0.1802  0.0476 -0.3305
 8310OCT     C116619  11.281   0.970  23.557 -0.1086  0.0522 -0.3398
 8310OCT     C216620  11.800   0.997  23.641  0.2267 -0.2367  0.2344
 8311OCT     C116621   1.927   6.623   7.158 -0.0214  0.0680  0.3600
 8311OCT     C216622   2.126   6.872   6.764  0.0793 -0.1138  0.2274
 8312OCT     C116623   5.969  12.085  11.026 -0.1388 -0.0734  0.2814
 8312OCT     C216624   5.589  11.760  11.144 -0.6602  0.0519 -0.2491
 8313OCT     C116625   4.550  14.607  12.671  0.1020  0.3144 -0.1002
 8313OCT     C216626   4.429  15.026  12.852 -0.2143  0.0268  0.2916
 8314OCT     C116627   0.916   3.388  22.950  0.2100  0.1666  0.3103
 8314OCT     C216628   1.082   3.047  22.682  0.1792 -0.0559 -0.3413
 8315OCT     C116629  15.178   0.903   7.553  0.1863  0.0641  0.0683
 8315OCT     C216630  14.784   0.631   7.534  0.0824  0.0198 -0.2549
 8316OCT     C116631  11.949  14.074  17.491 -0.3813  0.0281  0.1187
 8316OCT     C216632  11.938  13.707  17.792 -0.3122 -0.0643 -0.1315
 8317OCT     C116633   0.989  17.765  11.273 -0.0004  0.0407  0.0712
 8317OCT     C216634   1.070  18.033  10.893 -0.0233 -0.0200  0.2354
 8318OCT     C116635  20.165  10.982  20.318 -0.0431 -0.0506 -0.1819
 8318OCT     C216636  20.446  11.153  20.652  0.1872 -0.0623 -0.2123
 8319OCT     C116637  10.222  20.199   2.817  0.4272  0.2466  0.2229
 8319OCT     C216638  10.454  20.362   2.414  0.0492 -0.0123 -0.0380
 8320OCT     C116639  15.291  15.280  19.397  0.0708 -0.1796 -0.3508
 8320OCT     C216640  15.440  15.643  19.192  0.3408  0.1972 -0.1452
 8321OCT     C116641  13.514  11.803   0.908 -0.0455 -0.0880  0.2277
 8321OCT     C216642  13.669  11.961   1.359 -0.1772  0.0403 -0.1339
 8322OCT     C116643  16.493   2.201   2.746 -0.0849 -0.2120 -0.1608
 8322OCT     C216644  16.194   1.945   2.939  0.1063  0.2248 -0.2396
 8323OCT     C116645   2.126   3.048  12.636  0.1126  0.3460  0.1607
 8323OCT     C216646   2.378   3.324  12.365  0.0750 -0.2796 -0.1184
 8324OCT     C116647  14.302  14.456   3.376 -0.2316  0.2212  0.2424
 8324OCT     C216648  13.937  14.580   3.120  0.3692  0.2138 -0.0053
 8325OCT     C116649  10.641   6.797  23.273 -0.0272  0.1639 -0.1398
 8325OCT     C216650  10.562   7.212  23.076  0.1694  0.1770 -0.2801
 8326OCT     C116651  16.046   4.757   9.472  0.0764 -0.0981 -0.0308
 8326OCT     C216652  15.827   4.872   9.852 -0.0046 -0.4626  0.1991
 8327OCT     C116653  13.912  11.333  10.379  0.3689  0.1115  0.3347
 8327OCT     C216654  13.516  11.190  10.281 -0.0929 -0.1201 -0.1128
 8328OCT     C116655  10.912   6.403  14.024 -0.0821  0.1257  0.2686
 8328OCT     C216656  11.085   6.594  14.453  0.1561  0.1103 -0.1005
 8329OCT     C116657  11.359  19.364  19.636 -0.0477  0.1039 -0.2658
 8329OCT     C216658  11.759  19.502  19.844 -0.0912 -0.0841  0.0939
 8330OCT     C116659  10.585  18.597  13.697  0.2266 -0.2592 -0.0077
 8330OCT     C216660  10.337  18.424  14.068  0.3640  0.2388  0.0130
 8331OCT     C116661   3.276  23.716   7.608 -0.1728 -0.4647  0.3358
 8331OCT     C216662   3.136   0.087   7.173  0.0664 -0.0297  0.0488
 8332OCT     C116663   3.412   8.132   7.118 -0.0001  0.0085  0.0953
 8332OCT     C216664   3.612   7.746   7.353 -0.1754 -0.0749  0.1297
 8333OCT     C116665   7.931  17.420  21.881 -0.0125  0.2263 -0.0531
 8333OCT     C216666   7.738  17.030  21.650  0.2479  0.1062 -0.0293
 8334OCT     C116667  20.553  17.172  12.860 -0.4235 -0.1073  0.0476
 8334OCT     C216668  20.873  17.435  12.574  0.1767  0.2866 -0.2511
 8335OCT     C116669   7.144  19.999   0.619  0.0774 -0.2897  0.1233
 8335OCT     C216670   7.140  20.327   0.928 -0.0354 -0.0948  0.2191
 8336OCT     C116671  14.599  15.139   4.504 -0.1160 -0.1033  0.3394
 8336OCT     C216672  14.712  15.085   4.035 -0.2844  0.1311  0.3252
 8337OCT     C116673  16.295   8.779  17.032 -0.1193  0.0777 -0.0577
 8337OCT     C216674  16.652   8.466  17.104  0.1699 -0.1341 -0.0080
 8338OCT     C116675   9.281  20.885   6.573 -0.2714  0.0049 -0.2203
 8338OCT     C216676   9.102  20.962   6.179  0.1565  0.2087  0.2556
 8339OCT     C116677  11.824   4.341  16.278 -0.1172  0.2039  0.1086
 8339OCT     C216678  11.784   4.496  16.739  0.0195 -0.3331  0.1842
 8340OCT     C116679  12.820  19.457  17.874  0.1816 -0.3428 -0.1414
 8340OCT     C216680  12.901  19.787  18.251 -0.2493 -0.1640  0.1631
 8341OCT     C116681  20.764  17.663   2.922 -0.0772 -0.1655  0.1758
 8341OCT     C216682  20.458  17.366   2.749 -0.0706  0.2548  0.0525
 8342OCT     C116683  20.051   2.247  11.088 -0.4115  0.0104 -0.0592
 8342OCT     C216684  20.460   2.447  11.175  0.0757  0.1622 -0.1123
 8343OCT     C116685  11.015   3.775  14.070 -0.0755 -0.0240  0.2162
 8343OCT     C216686  11.341   3.766  14.401  0.0965  0.0152 -0.1386
 8344OCT     C116687   1.265  14.386  22.454  0.1114 -0.0423 -0.2589
 8344OCT     C216688   1.291  14.801  22.257 -0.0928  0.0361 -0.1272
 8345OCT     C116689   6.769  12.957  22.596  0.1562 -0.1303  0.1879
 8345OCT     C216690   7.153  13.229  22.580 -0.1456 -0.2024 -0.0355
 8346OCT     C116691  14.954   6.951  16.646 -0.0803 -0.1047 -0.1615
 8346OCT     C216692  14.793   6.587  16.839 -0.1036  0.3954 -0.1268
 8347OCT     C116693   7.720   6.388   1.091  0.0049 -0.0551  0.1674
 8347OCT     C216694   7.728   6.845   1.286 -0.1321 -0.0399  0.1667
 8348OCT     C116695  17.378  22.586   1.991 -0.0080  0.0918 -0.0719
 8348OCT     C216696  17.571  22.561   2.448 -0.1618  0.0553  0.3125
 8349OCT     C116697   8.971  21.936  13.775 -0.0690 -0.1213 -0.1141
 8349OCT     C216698   8.704  22.164  14.143 -0.0145  0.1712  0.3432
 8350OCT     C116699   1.708  10.954  13.742 -0.1462 -0.0827 -0.2492
 8350OCT     C216700   2.164  10.870  13.863 -0.3037 -0.2200 -0.1388
 8351OCT     C116701  15.167   9.125   8.350 -0.0446  0.5414 -0.5307
 8351OCT     C216702  15.112   8.964   7.916 -0.2078  0.2350  0.1668
 8352OCT     C116703   5.160   6.998  18.987 -0.0117 -0.1906  0.1155
 8352OCT     C216704   5.323   6.562  18.906 -0.3679 -0.0834 -0.1178
 8353OCT     C116705  17.084  16.783   2.681  0.1820  0.2003  0.3208
 8353OCT     C216706  16.818  17.198   2.732  0.1766 -0.3763 -0.1505
 8354OCT     C116707   7.580  16.671   9.948 -0.1310  0.1440 -0.2827
 8354OCT     C216708   7.762  16.893  10.285 -0.1033 -0.2391 -0.0673
 8355OCT     C116709   7.537  15.150   3.489 -0.0678  0.0928 -0.0663
 8355OCT     C216710   7.320  15.228   3.051 -0.1434  0.0700  0.0316
 8356OCT     C116711   5.817  10.243   1.287 -0.2545  0.1685 -0.2108
 8356OCT     C216712   5.364  10.135   1.346  0.0400 -0.2216 -0.2792
 8357OCT     C116713  21.344  20.824  20.676  0.2119 -0.2211  0.0146
 8357OCT     C216714  21.171  20.555  20.278 -0.0381 -0.1836  0.1181
 8358OCT     C116715  22.355   9.950   6.180 -0.0156 -0.0029 -0.0201
 8358OCT     C216716  22.128  10.216   5.826 -0.1643 -0.1980 -0.0485
 8359OCT     C116717   8.477   1.408  13.689  0.1664  0.2489 -0.0214
 8359OCT     C216718   8.537   0.982  13.881  0.2451  0.0083  0.0027
 8360OCT     C116719  13.785   0.111  21.430  0.0036  0.0070 -0.1670
 8360OCT     C216720  13.884  23.434  21.661  0.0938 -0.1135 -0.2048
 8361OCT     C116721  11.005  14.302  21.061 -0.3261  0.2007 -0.1732
 8361OCT     C216722  11.322  14.513  20.812  0.3061  0.1750  0.1955
 8362OCT     C116723  23.604   3.873  15.363 -0.0872 -0.2540 -0.5314
 8362OCT     C216724   0.045   4.164  15.058 -0.1529 -0.3921 -0.1422
 8363OCT     C116725   2.935   8.892   9.295  0.1231 -0.0679 -0.0544
 8363OCT     C216726   3.308   9.069   9.355 -0.0743 -0.2715 -0.1382
 8364OCT     C116727  16.299  22.929   5.428 -0.1167  0.1091 -0.4897
 8364OCT     C216728  16.693  23.113   5.492  0.1252  0.2226  0.0195
 8365OCT     C116729   8.781   8.920  11.262 -0.2486 -0.2113  0.0307
 8365OCT     C216730   9.027   8.528  11.453 -0.4246 -0.5559 -0.2376
 8366OCT     C116731   9.456  18.217   7.796 -0.4832 -0.1214 -0.0499
 8366OCT     C216732   9.257  18.154   8.228  0.0551 -0.0443  0.3148
 8367OCT     C116733   6.531   3.097  14.768  0.1366 -0.0268  0.2830
 8367OCT     C216734   6.506   3.500  14.876  0.0106 -0.2049  0.1340
 8368OCT     C116735   0.698  17.287   7.573  0.0873  0.1912 -0.3852
 8368OCT     C216736   0.420  17.554   7.824 -0.2055 -0.1672 -0.2839
 8369OCT     C116737   9.501  13.948   9.426  0.1605  0.1648 -0.0602
 8369OCT     C216738   9.141  14.079   9.131 -0.1681 -0.3852  0.2058
 8370OCT     C116739   0.854   3.732  13.044 -0.0493 -0.0413 -0.0691
 8370OCT     C216740   1.294   3.632  13.221  0.2495 -0.1403 -0.0981
 8371OCT     C116741   0.771   2.239  22.499 -0.1123  0.2924  0.3840
 8371OCT     C216742   0.533   2.704  22.423  0.1321  0.1636  0.3109
 8372OCT     C116743  19.548  16.294  18.401  0.0410 -0.2051 -0.3355
 8372OCT     C216744  19.096  16.334  18.557  0.2665 -0.0219 -0.0074
 8373OCT     C116745  10.087   0.775  20.822 -0.3767 -0.1987  0.1819
 8373OCT     C216746   9.866   0.411  21.016  0.3172 -0.2000 -0.0857
 8374OCT     C116747  19.539  11.550  23.579  0.2245  0.1726  0.0405
 8374OCT     C216748  19.477  11.534   0.273 -0.0792 -0.0647 -0.0835
 8375OCT     C116749  22.141  16.159  19.312 -0.1178  0.0258  0.0256
 8375OCT     C216750  22.139  16.572  19.322  0.1801  0.0255  0.4151
 8376OCT     C116751   4.026  20.064  22.358 -0.0431 -0.1759  0.2460
 8376OCT     C216752   4.045  20.255  21.918  0.0548  0.1701  0.3798
 8377OCT     C116753   1.492   2.925  14.029  0.0522  0.1196 -0.0112
 8377OCT     C216754   1.245   3.275  14.180 -0.1926 -0.2108  0.1032
 8378OCT     C116755   3.388  12.577   0.068 -0.1175 -0.2176 -0.2914
 8378OCT     C216756   2.996  12.772   0.077 -0.2156  0.0438  0.3113
 8379OCT     C116757  19.007  12.903  11.260  0.0019 -0.1740 -0.0714
 8379OCT     C216758  19.030  13.345  11.136  0.4939 -0.1022  0.2914
 8380OCT     C116759  11.566  15.997  17.755  0.0874 -0.0889 -0.2391
 8380OCT     C216760  11.375  16.024  18.135 -0.2163  0.0301  0.0634
 8381OCT     C116761  20.185  11.840  18.004  0.2501 -0.0133 -0.2978
 8381OCT     C216762  20.085  12.315  17.943 -0.1078  0.2922 -0.2135
 8382OCT     C116763  23.330  14.379  20.275 -0.0800 -0.1690  0.3126
 8382OCT     C216764  23.047  14.145  20.555 -0.0429 -0.0697 -0.0226
 8383OCT     C116765  11.695  19.204   5.622 -0.0495 -0.1862  0.3168
 8383OCT     C216766  11.306  19.123   5.828 -0.0748  0.1612 -0.2681
 8384OCT     C116767  23.213  12.326  23.398 -0.1036  0.1342  0.1959
 8384OCT     C216768  23.156  11.892  23.543  0.1215 -0.1143 -0.2174
 8385OCT     C116769   7.225  10.380  17.702  0.1152 -0.1329 -0.0434
 8385OCT     C216770   7.576  10.165  17.414  0.3927  0.0692 -0.3036
 8386OCT     C116771   7.014  18.373  18.375  0.1691 -0.0084  0.2731
 8386OCT     C216772   7.095  18.695  18.029  0.1110 -0.0439  0.2824
 8387OCT     C116773   6.079   7.212  19.131 -0.1051  0.0866 -0.3017
 8387OCT     C216774   6.420   7.016  18.928  0.1854 -0.1423 -0.0777
 8388OCT     C116775   2.162  18.564   1.324 -0.0638  0.0395  0.0181
 8388OCT     C216776   1.842  18.931   1.469 -0.4474 -0.3508 -0.0293
 8389OCT     C116777   4.032   4.021   9.818 -0.1065  0.0492  0.0349
 8389OCT     C216778   4.338   3.682   9.793  0.0150  0.2210 -0.2493
 8390OCT     C116779   8.293  14.008   8.791 -0.5526 -0.0134  0.0142
 8390OCT     C216780   8.171  14.368   8.524  0.2118  0.0533 -0.2053
 8391OCT     C116781   1.659  16.518   8.907  0.0215  0.1716  0.3651
 8391OCT     C216782   1.235  16.495   9.019  0.1317 -0.0734 -0.1450
 8392OCT     C116783   0.690  11.013  15.971 -0.2061 -0.3013  0.0655
 8392OCT     C216784   0.622  10.822  15.549  0.1037 -0.1253 -0.1126
 8393OCT     C116785  20.068  18.352  15.492 -0.2398  0.2611 -0.1019
 8393OCT     C216786  20.053  18.755  15.396 -0.2280  0.0149 -0.0965
 8394OCT     C116787   3.210   8.483  10.238 -0.2185 -0.1842  0.3529
 8394OCT     C216788   3.123   8.784   9.839 -0.5545 -0.2918 -0.0417
 8395OCT     C116789  14.259  10.866   3.423 -0.2487 -0.0794 -0.0287
 8395OCT     C216790  13.864  11.131   3.328 -0.4688  0.3771  0.1937
 8396OCT     C116791   2.670  16.046  16.130 -0.3314 -0.4274 -0.3248
 8396OCT     C216792   2.573  16.094  15.662  0.4487  0.1734  0.0308
 8397OCT     C116793   7.076   4.189  11.938 -0.1036 -0.1256  0.1627
 8397OCT     C216794   7.332   3.879  11.663 -0.0880 -0.1364 -0.1116
 8398OCT     C116795   3.086   0.936   3.800  0.2615  0.2918 -0.1351
 8398OCT     C216796   3.367   1.137   3.563  0.1659 -0.2974 -0.1975
 8399OCT     C116797   3.510  15.522  11.160 -0.0467  0.0466 -0.0550
 8399OCT     C216798   3.841  15.299  11.498 -0.0181  0.1989  0.4733
 8400OCT     C116799  21.670   1.476  22.615  0.3228  0.1234  0.0584
 8400OCT     C216800  21.514   1.241  22.232  0.0464  0.0654 -0.0380
 8401OCT     C116801   1.748   1.579   0.482 -0.3383  0.0404 -0.1950
 8401OCT     C216802   1.754   2.031   0.679 -0.1409  0.1517  0.1962
 8402OCT     C116803   6.905   3.070   7.209 -0.2365  0.2707 -0.0321
 8402OCT     C216804   7.037   3.558   7.187  0.0527  0.0819  0.1085
 8403OCT     C116805   8.620  17.534   6.689 -0.0973 -0.1615 -0.0213
 8403OCT     C216806   8.814  17.323   7.084  0.0095  0.3472  0.1349
 8404OCT     C116807  21.420   0.766   5.745  0.2726 -0.0880 -0.0223
 8404OCT     C216808  21.924   0.597   5.780  0.1197  0.3724 -0.5163
 8405OCT     C116809  18.277   9.517  14.424  0.2424  0.0230 -0.0541
 8405OCT     C216810  18.116   9.209  14.777  0.2851 -0.3401 -0.0580
 8406OCT     C116811  15.728   1.776  19.498 -0.3130 -0.1370  0.6093
 8406OCT     C216812  15.657   1.541  19.879 -0.1864 -0.2817  0.2225
 8407OCT     C116813  14.416  12.053  22.068  0.0772  0.3085 -0.1015
 8407OCT     C216814  14.287  11.718  22.459 -0.1783  0.3072  0.5399
 8408OCT     C116815   3.501   3.047  22.414 -0.1780  0.1868  0.2149
 8408OCT     C216816   3.367   2.990  21.957  0.2478  0.2359 -0.0847
 8409OCT     C116817  18.577   3.283  13.963 -0.1382  0.3950 -0.0682
 8409OCT     C216818  18.517   3.561  13.631  0.0944 -0.1985 -0.1461
 8410OCT     C116819   4.178  11.034  22.446  0.0027 -0.4075  0.4099
 8410OCT     C216820   3.985  11.453  22.643  0.3910  0.0033  0.4247
 8411OCT     C116821  12.169   9.412  19.975  0.0707 -0.1382 -0.0552
 8411OCT     C216822  12.526   9.159  19.822 -0.1010 -0.0874  0.3380
 8412OCT     C116823   4.218  22.501  16.565 -0.2343  0.0610 -0.1384
 8412OCT     C216824   4.367  22.928  16.525 -0.0548  0.3344  0.5028
 8413OCT     C116825   8.127  21.851   0.879 -0.1054 -0.4872 -0.3433
 8413OCT     C216826   8.156  21.512   1.164  0.1118 -0.1699 -0.1647
 8414OCT     C116827   8.745  15.593  12.926 -0.2554 -0.0248  0.1432
 8414OCT     C216828   9.034  15.741  13.300  0.0630  0.2858  0.0718
 8415OCT     C116829   2.951   3.546  21.734  0.1729 -0.1526  0.1188
 8415OCT     C216830   2.608   3.394  21.503 -0.1374 -0.2256 -0.3000
 8416OCT     C116831  18.498  16.851   6.266  0.0762  0.1112  0.0838
 8416OCT     C216832  18.780  17.123   6.465 -0.4777 -0.1534  0.1413
 8417OCT     C116833  13.598   4.499   3.102 -0.0765  0.0069  0.1663
 8417OCT     C216834  13.325   4.645   3.479 -0.2053 -0.0355  0.0136
 8418OCT     C116835  14.368  16.203   1.077 -0.1054 -0.6807  0.1874
 8418OCT     C216836  14.749  15.956   1.173  0.3040 -0.0707 -0.0994
 8419OCT     C116837  20.976  22.951  16.792 -0.1649 -0.3592  0.0655
 8419OCT     C216838  21.254  22.970  16.379  0.1519  0.0438  0.1028
 8420OCT     C116839  15.798  16.233  11.904  0.1830 -0.1583 -0.0279
 8420OCT     C216840  15.398  16.278  11.747 -0.2057  0.0886 -0.1827
 8421OCT     C116841  11.683  20.628   7.957 -0.0921  0.0701 -0.0052
 8421OCT     C216842  12.055  20.561   7.685  0.0244 -0.0132  0.1492
 8422OCT     C116843  10.018  12.238  14.449 -0.2788 -0.0564  0.5648
 8422OCT     C216844   9.826  12.423  13.995 -0.1009 -0.0095  0.3241
 8423OCT     C116845  23.208  21.605  16.649  0.0773 -0.0527 -0.0720
 8423OCT     C216846  23.586  21.426  16.676  0.2305 -0.2626 -0.3968
 8424OCT     C116847  17.821   1.429  12.856 -0.2756  0.0249  0.2056
 8424OCT     C216848  17.369   1.364  12.824 -0.0702 -0.1211  0.2169
 8425OCT     C116849  10.730  11.150  12.998 -0.0654  0.2796 -0.0774
 8425OCT     C216850  10.876  11.297  13.422  0.0091 -0.3345 -0.4565
 8426OCT     C116851  18.788  14.087  19.683  0.0223  0.0922  0.0942
 8426OCT     C216852  18.761  13.720  19.949  0.0450 -0.0616  0.0931
 8427OCT     C116853   7.361   6.671   5.742 -0.2307 -0.0847  0.1746
 8427OCT     C216854   7.169   6.369   5.423  0.3200 -0.1983 -0.0104
 8428OCT     C116855  22.082  22.682  12.641  0.2809  0.0555 -0.3433
 8428OCT     C216856  21.799  22.332  12.451 -0.0791 -0.2127  0.0451
 8429OCT     C116857   1.177  13.513  16.680 -0.0786 -0.3251 -0.1223
 8429OCT     C216858   0.861  13.461  16.415 -0.3221  0.0996 -0.1988
 8430OCT     C116859  22.185   8.355  12.755  0.0572  0.3927 -0.0808
 8430OCT     C216860  22.209   8.567  12.316  0.1127  0.1098  0.0021
 8431OCT     C116861   0.512  14.632   0.212  0.0865 -0.3428  0.4485
 8431OCT     C216862   0.238  15.013   0.157 -0.0195 -0.1228  0.1547
 8432OCT     C116863  10.490  20.790   4.569  0.2008  0.0866  0.2365
 8432OCT     C216864  10.874  20.875   4.322 -0.1827  0.3032 -0.1159
 8433OCT     C116865  15.033   1.652   5.305 -0.1840  0.1820 -0.0901
 8433OCT     C216866  15.457   1.635   5.038 -0.0445  0.0302  0.1626
 8434OCT     C116867   8.747  14.966  14.176  0.0075 -0.3633  0.0698
 8434OCT     C216868   8.471  15.242  14.442 -0.3027  0.1988  0.1425
 8435OCT     C116869  19.743   8.842   9.229  0.0968 -0.1225  0.0712
 8435OCT     C216870  19.298   8.657   9.074  0.0800 -0.0727  0.2230
 8436OCT     C116871  20.587   5.336  12.992  0.1586 -0.1198  0.1269
 8436OCT     C216872  20.491   5.611  13.423  0.2586  0.0610 -0.0952
 8437OCT     C116873  15.232   8.080  11.105 -0.2172  0.0349 -0.1319
 8437OCT     C216874  15.117   8.531  11.109  0.1405  0.1781 -0.1648
 8438OCT     C116875   9.878  12.363  14.945 -0.1154 -0.0604 -0.1247
 8438OCT     C216876  10.239  12.200  15.283  0.0707 -0.0963  0.0556
 8439OCT     C116877   3.142   5.892  15.728  0.2846  0.2368 -0.1692
 8439OCT     C216878   3.092   5.568  15.358  0.0113 -0.0602 -0.3512
 8440OCT     C116879  15.359   2.911  19.079 -0.1617 -0.0545  0.1213
 8440OCT     C216880  15.394   3.239  18.750  0.1587  0.1914  0.1372
 8441OCT     C116881   1.267   2.782   0.795 -0.4331  0.0198 -0.1107
 8441OCT     C216882   1.165   3.266   0.848 -0.1309  0.2231 -0.0837
 8442OCT     C116883  13.743  12.619  22.002 -0.0439 -0.1300  0.3625
 8442OCT     C216884  13.806  12.567  22.427  0.2666 -0.2062  0.1166
 8443OCT     C116885   6.394  12.548  12.157  0.0385  0.1518 -0.3925
 8443OCT     C216886   6.561  12.408  12.583 -0.0216  0.0263 -0.1356
 8444OCT     C116887  21.043   1.042  21.928  0.1069 -0.3538 -0.1592
 8444OCT     C216888  21.187   0.629  21.878 -0.3295  0.5620  0.1288
 8445OCT     C116889   1.361  13.292  19.199 -0.4057  0.0134 -0.1146
 8445OCT     C216890   1.545  13.659  19.412 -0.1265 -0.0806  0.2518
 8446OCT     C116891  23.305  10.780   4.460  0.1116  0.0016  0.1616
 8446OCT     C216892  23.424  11.123   4.211  0.2065 -0.1499 -0.0553
 8447OCT     C116893  10.058  11.104  22.826 -0.1305  0.0620  0.0290
 8447OCT     C216894  10.248  11.307  23.136 -0.0620 -0.2064  0.1401
 8448OCT     C116895   7.132   7.958   5.298  0.0332 -0.1900  0.0743
 8448OCT     C216896   7.188   7.849   5.751 -0.0324 -0.0568  0.1921
 8449OCT     C116897  20.807   5.601  16.175 -0.2559  0.2612 -0.0635
 8449OCT     C216898  20.727   6.108  16.274  0.1164  0.1583  0.0220
 8450OCT     C116899  14.322  17.303   1.304  0.4853 -0.0622  0.1193
 8450OCT     C216900  14.130  17.315   0.862  0.2208 -0.1572  0.0683
 8451OCT     C116901   1.012   6.193   5.031 -0.0292 -0.2915 -0.0088
 8451OCT     C216902   0.686   6.489   5.120  0.0487  0.1143  0.0682
 8452OCT     C116903  15.433  19.837  23.562  0.2796 -0.0940 -0.1264
 8452OCT     C216904  15.867  20.006  23.683  0.3069  0.0031 -0.3444
 8453OCT     C116905  14.253  12.725   8.540 -0.1474 -0.2541 -0.1290
 8453OCT     C216906  14.156  12.737   8.041  0.1725  0.0585 -0.4343
 8454OCT     C116907  15.723  12.127  14.002 -0.0068 -0.1202  0.0059
 8454OCT     C216908  15.455  12.218  14.378  0.4795  0.1963  0.0100
 8455OCT     C116909  16.674   7.931  15.902  0.0464  0.0093  0.4065
 8455OCT     C216910  16.554   8.382  15.944  0.4529 -0.0887  0.2593
 8456OCT     C116911  17.225   1.554  22.453  0.6042 -0.2360 -0.1640
 8456OCT     C216912  16.897   1.604  22.808  0.3098 -0.2432  0.2479
 8457OCT     C116913  20.826  19.977  21.779 -0.0994 -0.2432 -0.0614
 8457OCT     C216914  20.619  20.009  22.166 -0.2214  0.0232 -0.3830
 8458OCT     C116915   1.321  16.880   5.482  0.0258  0.0885 -0.1446
 8458OCT     C216916   1.710  17.021   5.711 -0.1751 -0.3169  0.1066
 8459OCT     C116917  11.537  21.769   2.605 -0.3095  0.0046  0.1712
 8459OCT     C216918  11.421  21.467   2.349  0.1639  0.1425  0.1337
 8460OCT     C116919  21.158  17.554   0.366 -0.1756  0.1337  0.1171
 8460OCT     C216920  21.588  17.578   0.181  0.1816 -0.1585  0.0587
 8461OCT     C116921   3.183  15.599  20.215  0.1907  0.0810 -0.0996
 8461OCT     C216922   2.932  15.257  19.998  0.0074 -0.2255  0.0576
 8462OCT     C116923  15.583   6.869   1.746 -0.0681  0.0281  0.1156
 8462OCT     C216924  15.409   6.449   1.662 -0.1996  0.2021  0.0045
 8463OCT     C116925  22.529   9.797  21.111  0.1116  0.2933  0.0913
 8463OCT     C216926  22.161   9.745  21.361 -0.5778 -0.2346  0.0086
 8464OCT     C116927   2.921  23.365  17.952 -0.2189  0.0466 -0.1408
 8464OCT     C216928   2.604  23.229  17.650  0.0494  0.2539  0.1000
 8465OCT     C116929   2.839  21.664   9.974 -0.2633  0.0677  0.0175
 8465OCT     C216930   3.270  21.718  10.040  0.1292 -0.2560  0.0954
 8466OCT     C116931   6.533  15.636   6.797  0.0284  0.0692  0.2086
 8466OCT     C216932   6.937  15.337   6.772 -0.0138 -0.0813 -0.1421
 8467OCT     C116933   1.572  19.734   1.626 -0.1976 -0.2993  0.2226
 8467OCT     C216934   1.138  19.830   1.804 -0.0409 -0.1470 -0.1742
 8468OCT     C116935  20.840   2.847  15.693  0.2417 -0.1108 -0.1608
 8468OCT     C216936  21.022   2.728  15.272 -0.2154 -0.4333 -0.2682
 8469OCT     C116937  12.790   2.233  19.647 -0.0216 -0.0288 -0.0470
 8469OCT     C216938  12.489   1.947  19.892 -0.0233 -0.2213  0.4654
 8470OCT     C116939  14.396   2.004  17.217 -0.3637  0.0967 -0.0938
 8470OCT     C216940  14.647   2.359  17.409  0.1752 -0.0816 -0.1558
 8471OCT     C116941  11.945   5.518  12.107  0.1437  0.2161  0.1449
 8471OCT     C216942  11.950   5.925  12.113  0.0256 -0.1601 -0.0799
 8472OCT     C116943   4.510  19.753   5.061  0.0774  0.1650 -0.3160
 8472OCT     C216944   4.040  19.880   5.200 -0.2745  0.2437  0.0838
 8473OCT     C116945  11.927  10.484   2.875 -0.3385 -0.2620  0.0084
 8473OCT     C216946  11.709  10.323   3.195 -0.0174 -0.2298  0.0493
 8474OCT     C116947  16.518   4.915  17.692 -0.2637 -0.2197  0.1477
 8474OCT     C216948  16.607   4.506  17.837 -0.0661 -0.3727  0.1039
 8475OCT     C116949   0.620   5.275   5.825 -0.3096  0.2720 -0.0606
 8475OCT     C216950   0.257   5.435   6.052 -0.0067 -0.0891 -0.0559
 8476OCT     C116951   0.409   3.451   9.488 -0.0652 -0.4087 -0.1573
 8476OCT     C216952   0.617   3.863   9.495 -0.1583  0.0948  0.0070
 8477OCT     C116953  16.670   6.912   9.809 -0.1286  0.2208 -0.1759
 8477OCT     C216954  16.410   6.622   9.700 -0.2266 -0.0395  0.1337
 8478OCT     C116955   2.318   3.883  12.759 -0.0509  0.0925  0.2402
 8478OCT     C216956   2.160   4.346  12.608  0.1479  0.2127  0.0183
 8479OCT     C116957   0.155  19.392   7.877  0.0952  0.0074  0.2368
 8479OCT     C216958   0.392  19.134   7.555 -0.1828 -0.2781  0.2464
 8480OCT     C116959  17.793   2.652   7.202  0.0134  0.1311 -0.0604
 8480OCT     C216960  18.027   2.845   7.583  0.3885 -0.4086  0.3647
 8481OCT     C116961   2.351  13.038  13.764  0.1768 -0.0431  0.0228
 8481OCT     C216962   2.501  13.292  14.087  0.2251  0.1078 -0.0162
 8482OCT     C116963   0.426  15.357  14.163  0.0832  0.1260 -0.5042
 8482OCT     C216964   0.774  15.663  14.192  0.0926  0.0760 -0.3925
 8483OCT     C116965   0.936   9.458   3.068  0.3119 -0.0125 -0.2934
 8483OCT     C216966   1.224   9.319   3.407 -0.0578 -0.2840 -0.1549
 8484OCT     C116967  19.219  14.672  22.412 -0.1355 -0.0791  0.1433
 8484OCT     C216968  19.425  15.052  22.616  0.1256  0.2979 -0.2718
 8485OCT     C116969   1.276  23.390   3.451 -0.0519 -0.1252 -0.3818
 8485OCT     C216970   1.620  23.650   3.277  0.0693  0.0470 -0.5736
 8486OCT     C116971   6.721   4.334   2.503  0.1873 -0.0649  0.1623
 8486OCT     C216972   7.059   4.525   2.331 -0.1018  0.0738 -0.2514
 8487OCT     C116973  18.173   0.766  17.594 -0.1850  0.0276  0.0845
 8487OCT     C216974  17.842   0.959  17.888 -0.0871  0.1283 -0.0773
 8488OCT     C116975   0.682  10.310  16.441 -0.1397 -0.1390 -0.3386
 8488OCT     C216976   0.344  10.445  16.694 -0.0519  0.0341  0.0916
 8489OCT     C116977   4.877  22.861  10.384 -0.1024 -0.0458 -0.0783
 8489OCT     C216978   4.447  22.995  10.423  0.1129 -0.0121 -0.0839
 8490OCT     C116979   2.765  20.307  22.507 -0.0992  0.0918 -0.3641
 8490OCT     C216980   2.659  20.022  22.190  0.1834 -0.1458 -0.0330
 8491OCT     C116981  14.070   3.298  16.839 -0.0917 -0.0689  0.0502
 8491OCT     C216982  14.416   3.026  16.646 -0.0994  0.3658  0.1354
 8492OCT     C116983  21.666  13.669   3.480 -0.1666  0.0982 -0.2859
 8492OCT     C216984  21.348  13.964   3.371  0.1624 -0.0343 -0.1221
 8493OCT     C116985  22.903  13.479  15.562  0.0559  0.0075  0.1225
 8493OCT     C216986  22.575  13.155  15.721 -0.4748 -0.0041  0.0997
 8494OCT     C116987  14.748  19.773  12.456  0.0536 -0.2581  0.0433
 8494OCT     C216988  14.918  20.146  12.693 -0.4825 -0.4468  0.0567
 8495OCT     C116989   3.733  16.063  10.929  0.1278 -0.0139 -0.0112
 8495OCT     C216990   3.372  16.022  11.220  0.0486 -0.3631  0.2257
 8496OCT     C116991  16.360  13.904  14.282 -0.1106 -0.1370  0.1503
 8496OCT     C216992  16.530  14.245  14.054  0.0326  0.0510  0.0405
 8497OCT     C116993  10.925  14.691   2.211  0.0814 -0.1166 -0.1820
 8497OCT     C216994  10.932  14.534   1.800 -0.0789 -0.4583 -0.5668
 8498OCT     C116995  10.078  16.305  22.835 -0.0691 -0.2305 -0.0945
 8498OCT     C216996   9.731  16.375  22.584 -0.1409  0.3289  0.2563
 8499OCT     C116997   5.117  23.600   8.221 -0.0776  0.0359 -0.1265
 8499OCT     C216998   5.490  23.271   8.343 -0.0367  0.0621 -0.3070
 8500OCT     C116999   2.853  19.072   0.315  0.1918  0.3818 -0.0839
 8500OCT     C217000   3.018  19.323  23.696 -0.2889 -0.3056  0.1437
 8501OCT     C117001  16.708   8.982   1.752  0.0276 -0.3716 -0.1619
 8501OCT     C217002  16.597   8.858   2.222  0.2254 -0.2606 -0.1730
 8502OCT     C117003   5.220  13.458   8.146  0.0723 -0.0251  0.0893
 8502OCT     C217004   4.750  13.489   8.017 -0.3874 -0.2667 -0.0465
 8503OCT     C117005   1.262  14.680   4.943 -0.0477  0.0332  0.3068
 8503OCT     C217006   0.932  14.457   5.088  0.2388  0.0957 -0.1791
 8504OCT     C117007  11.639  13.927   4.823  0.2240 -0.0106 -0.0002
 8504OCT     C217008  12.118  13.874   4.778 -0.0450 -0.1299 -0.0141
 8505OCT     C117009  12.280  11.266  11.092  0.2333  0.1378  0.1598
 8505OCT     C217010  12.358  10.832  11.051  0.0991 -0.1020  0.0769
 8506OCT     C117011  15.557  16.253  16.429 -0.3044 -0.0081 -0.1956
 8506OCT     C217012  15.541  16.621  16.661 -0.2010 -0.1914  0.1381
 8507OCT     C117013  17.575   3.713   7.522  0.3407 -0.1948  0.1580
 8507OCT     C217014  17.544   3.500   7.126  0.2537  0.0069  0.2631
 8508OCT     C117015   3.255  12.243  16.339  0.1618 -0.2730  0.3427
 8508OCT     C217016   2.833  12.403  16.136  0.0555 -0.2881  0.2100
 8509OCT     C117017  15.114  11.045  15.013 -0.4948 -0.0616  0.0647
 8509OCT     C217018  15.121  10.938  15.468 -0.0454  0.1563  0.0627
 8510OCT     C117019   7.764   8.790   7.995  0.0304  0.3371 -0.2452
 8510OCT     C217020   8.009   8.402   8.056  0.0483  0.2816 -0.2428
 8511OCT     C117021   6.183  20.850   8.428  0.1568  0.4300 -0.0913
 8511OCT     C217022   6.269  21.298   8.425  0.0970  0.1948 -0.0132
 8512OCT     C117023  13.064  10.062  10.202  0.1697  0.1363 -0.1025
 8512OCT     C217024  12.960   9.772   9.803  0.1905  0.1960 -0.0976
 8513OCT     C117025   9.171   3.021  17.951 -0.2954 -0.1241 -0.3144
 8513OCT     C217026   9.427   2.917  17.543 -0.2530 -0.3598 -0.0665
 8514OCT     C117027   7.608  14.654  22.715  0.3706  0.2378 -0.0246
 8514OCT     C217028   8.002  14.664  22.566  0.1110 -0.0380 -0.2874
 8515OCT     C117029   7.701  13.823   6.940 -0.1334  0.0077 -0.0977
 8515OCT     C217030   7.709  13.353   6.737  0.0309 -0.2016 -0.2758
 8516OCT     C117031  22.557  12.952  21.879  0.0996  0.3838 -0.2393
 8516OCT     C217032  22.426  12.629  22.175 -0.0176  0.0122  0.2637
 8517OCT     C117033   1.965   8.265  10.335  0.1088 -0.1795 -0.2842
 8517OCT     C217034   2.292   8.473  10.008  0.1402 -0.1799  0.2109
 8518OCT     C117035   9.803   8.331  17.359 -0.2048  0.1915  0.0221
 8518OCT     C217036  10.106   8.649  17.244 -0.0283 -0.4234 -0.2081
 8519OCT     C117037  13.254  19.264   2.689  0.0984  0.0937  0.0870
 8519OCT     C217038  13.288  18.843   2.498  0.1585 -0.0664  0.0908
 8520OCT     C117039   4.628   4.677   8.803  0.3961 -0.0326 -0.2187
 8520OCT     C217040   4.285   4.946   8.765 -0.0301  0.0278  0.0707
 8521OCT     C117041  11.412  17.078   6.950  0.2047 -0.1263 -0.2458
 8521OCT     C217042  11.576  16.878   7.352  0.1996  0.1691 -0.0446
 8522OCT     C117043  10.712   8.010  13.503  0.3613  0.0668  0.4568
 8522OCT     C217044  10.361   8.279  13.297  0.1899 -0.1044  0.1533
 8523OCT     C117045  10.038  12.075  13.036 -0.2376 -0.3214 -0.0233
 8523OCT     C217046  10.495  12.017  12.842 -0.4097 -0.1310  0.1356
 8524OCT     C117047   6.863  15.358   3.204  0.0293 -0.4548 -0.0901
 8524OCT     C217048   6.547  15.156   3.459  0.1836 -0.0273  0.0290
 8525OCT     C117049  16.347  19.487   1.035  0.0765  0.1252  0.3418
 8525OCT     C217050  16.095  19.058   1.154  0.1078 -0.3484 -0.2877
 8526OCT     C117051   0.046  10.048   2.839  0.0457 -0.2558 -0.0049
 8526OCT     C217052  23.631  10.345   3.187  0.3910 -0.0149 -0.0553
 8527OCT     C117053   7.337  11.588  17.369  0.3957 -0.3667  0.0709
 8527OCT     C217054   7.211  12.064  17.497  0.0225  0.0424  0.0102
 8528OCT     C117055   9.248  13.819   2.972  0.1092  0.0660 -0.1750
 8528OCT     C217056   8.892  13.803   2.652 -0.0991 -0.0709  0.1106
 8529OCT     C117057   7.672  15.577   8.818  0.0182 -0.2239 -0.6515
 8529OCT     C217058   7.716  15.875   9.148  0.1479 -0.0557 -0.0075
 8530OCT     C117059  22.925  22.591   3.841 -0.1107 -0.0186 -0.0489
 8530OCT     C217060  23.158  22.570   4.200  0.3195 -0.0488 -0.0534
 8531OCT     C117061   4.206  23.155   9.054  0.2760  0.2447 -0.2927
 8531OCT     C217062   4.103  22.797   8.743  0.4271 -0.1913  0.0478
 8532OCT     C117063  22.638  23.212  14.042  0.0906  0.1936  0.1178
 8532OCT     C217064  22.285  23.268  14.279  0.1269  0.3301 -0.1650
 8533OCT     C117065   9.871   9.709  13.022 -0.0322 -0.0351  0.1947
 8533OCT     C217066  10.046   9.288  13.076  0.2927 -0.0956 -0.0452
 8534OCT     C117067   0.453   6.152  19.637 -0.1071 -0.0162 -0.2575
 8534OCT     C217068   0.286   6.283  19.217  0.0268  0.1449  0.0036
 8535OCT     C117069  12.094  19.498  14.859  0.1409  0.0291 -0.0386
 8535OCT     C217070  12.354  19.765  14.566  0.3374  0.3060  0.1830
 8536OCT     C117071   4.970  20.650  20.720  0.2273  0.0050  0.0442
 8536OCT     C217072   4.732  20.419  20.406  0.1776  0.0918 -0.3184
 8537OCT     C117073  23.190   2.025  11.555  0.0811  0.1734  0.2758
 8537OCT     C217074  23.284   2.202  11.149  0.2008  0.5374 -0.0598
 8538OCT     C117075  11.590  14.282  22.593  0.1331 -0.1671 -0.2355
 8538OCT     C217076  11.916  14.035  22.835 -0.0389 -0.1859  0.0070
 8539OCT     C117077   9.303   4.341   8.837  0.0743  0.2666 -0.2166
 8539OCT     C217078   9.741   4.430   9.065 -0.5345 -0.2272 -0.0266
 8540OCT     C117079  12.381  14.184  13.275 -0.2322  0.0465  0.3574
 8540OCT     C217080  12.478  13.867  12.940 -0.1129  0.2460  0.2777
 8541OCT     C117081   5.901  18.282  10.410  0.1432  0.1197  0.0543
 8541OCT     C217082   6.043  17.821  10.437 -0.0644  0.2197  0.0715
 8542OCT     C117083   0.537  22.868   6.470 -0.0237 -0.4126  0.2609
 8542OCT     C217084   0.149  22.767   6.654  0.4014 -0.1945 -0.3786
 8543OCT     C117085   9.357  21.440  22.473 -0.2359  0.0182  0.1048
 8543OCT     C217086   9.577  21.241  22.090 -0.0585 -0.0809 -0.0120
 8544OCT     C117087  17.580  13.521   8.082 -0.1189  0.0504 -0.0976
 8544OCT     C217088  17.868  13.182   8.158  0.4101 -0.2735  0.0433
 8545OCT     C117089  21.214   9.326  12.036  0.1338  0.1512 -0.0880
 8545OCT     C217090  21.127   9.026  11.686  0.1550  0.1480  0.1786
 8546OCT     C117091   3.167   1.824  19.508  0.4620  0.1054  0.1396
 8546OCT     C217092   3.588   1.804  19.433 -0.1909  0.1074 -0.2903
 8547OCT     C117093  13.558  12.652   9.357  0.1655 -0.1125 -0.1898
 8547OCT     C217094  13.491  13.073   9.133  0.2360  0.1825 -0.0877
 8548OCT     C117095  16.774  18.636  14.594  0.4267  0.2693 -0.0108
 8548OCT     C217096  16.489  18.413  14.421 -0.1393 -0.2011  0.0280
 8549OCT     C117097  18.398  16.692  14.996  0.1432  0.1846 -0.0175
 8549OCT     C217098  18.055  16.570  15.261 -0.2142  0.0190  0.0883
 8550OCT     C117099   5.923  14.001  20.222 -0.0376 -0.0851  0.1776
 8550OCT     C217100   5.919  14.356  20.543 -0.1895 -0.0970 -0.1122
 8551OCT     C117101  17.449   5.499   3.028 -0.2746  0.1471  0.0247
 8551OCT     C217102  17.256   5.585   3.381  0.0112  0.2109  0.2971
 8552OCT     C117103   0.625  13.387  12.915  0.2618  0.1854 -0.1299
 8552OCT     C217104   0.305  13.311  12.584  0.0474 -0.4316 -0.0099
 8553OCT     C117105   8.969  19.009  20.727  0.3405 -0.3024 -0.0289
 8553OCT     C217106   9.074  19.385  20.469  0.2302  0.0237  0.1983
 8554OCT     C117107  10.682  12.209   2.862 -0.2224  0.3386  0.2390
 8554OCT     C217108  11.029  12.189   3.177 -0.3564  0.1556  0.2330
 8555OCT     C117109   6.913   8.981  14.944 -0.0624  0.1050 -0.1928
 8555OCT     C217110   7.052   9.456  15.031 -0.1269  0.0140 -0.3376
 8556OCT     C117111  15.842  17.703  20.790  0.0224  0.1911 -0.1493
 8556OCT     C217112  15.855  18.225  20.845  0.0144  0.2988  0.0238
 8557OCT     C117113  23.005  12.127   8.435 -0.2575  0.0424  0.1641
 8557OCT     C217114  22.662  11.966   8.211 -0.0859  0.1480  0.0539
 8558OCT     C117115  18.862  21.990  12.007  0.2399  0.4871 -0.1934
 8558OCT     C217116  19.279  22.205  12.192  0.0915  0.0086 -0.0732
 8559OCT     C117117  23.551  14.318  23.391  0.1180  0.0135  0.1475
 8559OCT     C217118  23.732  14.472   0.101 -0.2226  0.3382  0.1151
 8560OCT     C117119   1.395  14.179  12.996  0.3594  0.1359 -0.1293
 8560OCT     C217120   0.975  14.161  13.204 -0.0746  0.0180 -0.1601
 8561OCT     C117121  19.340  22.123   6.231 -0.1363  0.0623  0.0936
 8561OCT     C217122  19.220  21.759   5.944  0.1619  0.1413  0.1448
 8562OCT     C117123  10.219  17.374  20.392 -0.0511  0.1219 -0.0113
 8562OCT     C217124   9.898  17.712  20.223  0.0517  0.1905 -0.2505
 8563OCT     C117125   9.793   7.420  20.729 -0.3245  0.3210  0.0077
 8563OCT     C217126   9.383   7.572  20.698  0.1649 -0.6838 -0.3588
 8564OCT     C117127  22.236  14.116  11.580  0.2476  0.0305  0.1236
 8564OCT     C217128  22.542  14.366  11.392  0.2513  0.1703  0.0464
 8565OCT     C117129   7.957  21.266  12.003  0.0396 -0.1296  0.0650
 8565OCT     C217130   8.158  21.010  12.338  0.3177 -0.0334  0.0759
 8566OCT     C117131   9.942  14.184  23.603  0.0457  0.2481  0.1688
 8566OCT     C217132   9.849  14.103   0.287 -0.3095  0.2380 -0.3976
 8567OCT     C117133  18.355  21.552  22.204  0.2322  0.1195  0.3344
 8567OCT     C217134  18.310  21.940  22.097  0.0516  0.1218  0.0063
 8568OCT     C117135   2.833  11.358   6.448 -0.0876 -0.0039 -0.0715
 8568OCT     C217136   2.893  10.902   6.486 -0.0191  0.1897  0.0884
 8569OCT     C117137  21.099   6.018  10.617 -0.3445 -0.1801 -0.4913
 8569OCT     C217138  21.059   5.580  10.827  0.2472  0.0695  0.1049
 8570OCT     C117139  16.112   7.713   5.921 -0.1046  0.2895 -0.4680
 8570OCT     C217140  16.407   7.402   5.678 -0.0937  0.1526  0.0013
 8571OCT     C117141  15.624  22.035  13.934 -0.0847 -0.0982 -0.0354
 8571OCT     C217142  16.031  21.854  13.750 -0.4144  0.2311 -0.0735
 8572OCT     C117143  14.235   4.885   9.968  0.1380 -0.0342 -0.2496
 8572OCT     C217144  14.089   4.670  10.353  0.4228 -0.0090 -0.2239
 8573OCT     C117145  22.585  12.304  21.847  0.5402  0.2184  0.1709
 8573OCT     C217146  22.286  12.639  21.640  0.0739  0.2180 -0.1335
 8574OCT     C117147  22.072  10.708  16.441  0.1144 -0.2514 -0.3392
 8574OCT     C217148  22.552  10.504  16.447 -0.4734  0.1587 -0.0932
 8575OCT     C117149  10.799   2.129  18.530 -0.2247  0.2944  0.2818
 8575OCT     C217150  11.288   2.105  18.469 -0.1094 -0.0457  0.2903
 8576OCT     C117151  21.611   4.579   6.021  0.3556  0.2991 -0.0870
 8576OCT     C217152  21.628   4.120   5.842  0.1117 -0.4179 -0.0637
 8577OCT     C117153  10.605  18.101  14.433 -0.1794 -0.1924  0.0340
 8577OCT     C217154  10.453  18.517  14.632  0.2761 -0.3825  0.0187
 8578OCT     C117155  12.744  18.375  14.608  0.0630 -0.0240  0.1851
 8578OCT     C217156  12.738  18.033  14.937  0.2056  0.1196 -0.0691
 8579OCT     C117157  19.350  14.153   3.364  0.0361 -0.2552 -0.0891
 8579OCT     C217158  19.872  14.042   3.312  0.1833 -0.1377 -0.0681
 8580OCT     C117159   9.564   2.380  21.903  0.1787  0.1846 -0.3631
 8580OCT     C217160   9.983   2.172  21.747 -0.0953  0.0280 -0.0007
 8581OCT     C117161   5.992  21.506  19.803  0.0372  0.3339 -0.1710
 8581OCT     C217162   6.418  21.592  19.771 -0.1551  0.1766  0.3030
 8582OCT     C117163  11.931   0.424   0.447  0.4177  0.3486  0.1160
 8582OCT     C217164  12.192   0.291   0.799 -0.2626  0.2649  0.1548
 8583OCT     C117165   0.028  10.594  19.281  0.0237 -0.2515 -0.2078
 8583OCT     C217166   0.114  10.655  18.854 -0.0962 -0.0836  0.2078
 8584OCT     C117167   6.380   3.300   9.940 -0.1621 -0.0691  0.0352
 8584OCT     C217168   6.332   2.882  10.204 -0.1704 -0.1793  0.0635
 8585OCT     C117169  15.373  16.001  13.170  0.3038  0.0357  0.4709
 8585OCT     C217170  15.865  16.107  13.188 -0.2219  0.1176 -0.0430
 8586OCT     C117171  13.756  21.225  22.896  0.0917  0.0340 -0.0587
 8586OCT     C217172  14.170  21.334  22.675 -0.2712 -0.0618  0.0094
 8587OCT     C117173  18.549   9.966   1.865 -0.1098 -0.3149 -0.1203
 8587OCT     C217174  18.789  10.335   2.017  0.1202 -0.2575  0.2016
 8588OCT     C117175  14.909  20.850  21.118 -0.0148 -0.1705  0.2154
 8588OCT     C217176  14.696  21.067  20.756 -0.0043  0.2482 -0.1905
 8589OCT     C117177  10.796   2.426   5.268 -0.2662  0.0463 -0.4820
 8589OCT     C217178  11.275   2.463   5.406  0.3830  0.0964 -0.4522
 8590OCT     C117179  12.668  16.355   0.028 -0.2841  0.1362 -0.5036
 8590OCT     C217180  12.742  16.161   0.426 -0.2483 -0.0985 -0.0110
 8591OCT     C117181  20.611   6.351  15.796  0.2438  0.4500  0.1101
 8591OCT     C217182  20.498   6.396  15.352  0.1231 -0.2739  0.4881
 8592OCT     C117183   8.719  13.827  16.084 -0.2650  0.4023  0.1130
 8592OCT     C217184   9.234  13.808  16.207  0.2470  0.2301  0.2039
 8593OCT     C117185   4.430  21.594   8.920  0.2494 -0.0083 -0.0303
 8593OCT     C217186   4.883  21.611   9.090 -0.0667 -0.0488 -0.2107
 8594OCT     C117187  20.706  20.884  19.881 -0.1729  0.1590 -0.0973
 8594OCT     C217188  20.800  20.446  19.915  0.1078 -0.1023 -0.1810
 8595OCT     C117189  13.734  12.003  12.433  0.2563  0.4756 -0.1960
 8595OCT     C217190  13.567  11.876  12.014 -0.3004  0.2522  0.0378
 8596OCT     C117191  12.180   8.051  21.188 -0.1667 -0.2767 -0.0553
 8596OCT     C217192  12.005   8.450  21.302  0.2630 -0.1746  0.1622
 8597OCT     C117193   4.485  15.051  17.110  0.3093 -0.1528  0.2020
 8597OCT     C217194   4.369  15.072  17.505  0.0950 -0.1072 -0.0791
 8598OCT     C117195  11.856  14.546  11.124 -0.0309  0.0646 -0.1107
 8598OCT     C217196  11.899  14.745  10.732  0.1049  0.1903  0.0718
 8599OCT     C117197  19.400   1.918   5.294 -0.1459  0.0740 -0.5125
 8599OCT     C217198  19.452   1.930   5.757 -0.1204  0.2506  0.1743
 8600OCT     C117199  12.601  16.835   3.927  0.2410  0.3534 -0.5737
 8600OCT     C217200  12.572  17.267   4.032  0.2234 -0.0889  0.0381
 8601OCT     C117201   8.818  21.416  22.969  0.0509  0.0265 -0.1463
 8601OCT     C217202   9.215  21.320  23.239 -0.0084  0.2447  0.2775
 8602OCT     C117203  17.622  15.105   5.553  0.0590 -0.1031 -0.1825
 8602OCT     C217204  17.485  14.928   5.964 -0.0345 -0.0523  0.0848
 8603OCT     C117205   6.910  18.604  21.299  0.0807 -0.3195 -0.0162
 8603OCT     C217206   6.582  18.474  21.079  0.3833 -0.1021 -0.2503
 8604OCT     C117207   8.566   9.955  11.943  0.2001  0.1715 -0.0797
 8604OCT     C217208   8.906  10.168  11.772  0.2127  0.3459  0.1562
 8605OCT     C117209  16.346  10.790  10.083  0.0753  0.1499  0.2063
 8605OCT     C217210  16.622  10.591  10.418  0.2281  0.1962 -0.1452
 8606OCT     C117211  11.373   6.798   2.165  0.0819 -0.3031  0.0607
 8606OCT     C217212  11.776   6.783   2.309 -0.1596  0.0386 -0.0241
 8607OCT     C117213  19.844  13.244   2.017 -0.0993 -0.0527  0.3231
 8607OCT     C217214  19.817  13.234   2.513  0.0202 -0.1376 -0.0817
 8608OCT     C117215  22.012  13.854   0.206  0.2626  0.0366 -0.1287
 8608OCT     C217216  22.038  13.593   0.644 -0.1079 -0.4093 -0.0708
 8609OCT     C117217  15.395   1.386  18.611 -0.0653 -0.4085  0.3066
 8609OCT     C217218  15.503   1.633  18.249 -0.0985 -0.1948 -0.4123
 8610OCT     C117219  17.871   3.080  16.709 -0.3290 -0.0696 -0.3846
 8610OCT     C217220  18.078   2.702  16.839 -0.1502  0.3625  0.4022
 8611OCT     C117221  20.291   7.243  18.302  0.0186 -0.1043 -0.0016
 8611OCT     C217222  20.310   6.893  18.017  0.5987 -0.0908  0.2050
 8612OCT     C117223  10.222   3.889   2.818 -0.1003  0.3098  0.1006
 8612OCT     C217224  10.032   3.440   2.793  0.1382  0.0873  0.4042
 8613OCT     C117225  21.478   6.787   4.157  0.3412  0.0438 -0.4868
 8613OCT     C217226  21.052   6.648   4.330 -0.3036 -0.1087 -0.0393
 8614OCT     C117227   0.122  10.195  21.132 -0.0494  0.1771  0.0236
 8614OCT     C217228   0.452  10.461  20.992 -0.0272  0.0412 -0.3367
 8615OCT     C117229  10.455   6.739  14.725  0.1249  0.1123 -0.0098
 8615OCT     C217230   9.973   6.772  14.763  0.2982  0.3857  0.0823
 8616OCT     C117231  13.867   2.400  11.532  0.3193 -0.0522 -0.1912
 8616OCT     C217232  13.566   2.536  11.863 -0.0544 -0.3366 -0.0232
 8617OCT     C117233  13.307  16.142   4.973  0.2762 -0.0282 -0.1726
 8617OCT     C217234  13.394  15.902   4.540  0.3735  0.1181  0.0733
 8618OCT     C117235  14.885  23.141  12.157 -0.1783  0.1567 -0.2443
 8618OCT     C217236  14.902  23.389  11.810  0.3080 -0.0556  0.0540
 8619OCT     C117237  23.620   8.575  19.735 -0.1801 -0.1877 -0.0592
 8619OCT     C217238  23.600   8.239  19.391 -0.1870  0.1976 -0.0420
 8620OCT     C117239   8.131   8.173   7.190  0.0129  0.0943  0.3017
 8620OCT     C217240   8.312   7.802   7.372  0.0099  0.0440  0.4197
 8621OCT     C117241  17.163   3.578   9.751 -0.2275  0.0908 -0.2963
 8621OCT     C217242  17.614   3.432   9.911  0.1089  0.0218 -0.0250
 8622OCT     C117243  22.636   1.213  19.727 -0.3287 -0.2493 -0.6835
 8622OCT     C217244  22.764   1.419  19.318  0.5735  0.0146  0.1608
 8623OCT     C117245  15.997  12.069   4.527  0.2379  0.3833  0.2116
 8623OCT     C217246  16.393  12.311   4.666  0.0054 -0.2914 -0.0170
 8624OCT     C117247   2.650   5.660  14.494 -0.2051 -0.1484  0.0372
 8624OCT     C217248   2.322   5.486  14.182  0.3094 -0.2568 -0.0350
 8625OCT     C117249  15.408  10.418  16.437 -0.0472 -0.3079 -0.1697
 8625OCT     C217250  15.226  10.797  16.161 -0.0002  0.1830 -0.2198
 8626OCT     C117251   7.853  18.547  16.410  0.3735 -0.2027 -0.2333
 8626OCT     C217252   7.909  18.325  16.848  0.2292 -0.2793  0.0262
 8627OCT     C117253  21.277  16.225  19.930 -0.0494  0.2801  0.4463
 8627OCT     C217254  21.621  16.422  20.131  0.1218 -0.5520  0.1976
 8628OCT     C117255  15.915  11.130  15.355  0.1706 -0.0235 -0.2654
 8628OCT     C217256  16.002  10.911  14.979  0.0920 -0.0713  0.0770
 8629OCT     C117257  20.576  14.327  23.506  0.1321  0.3477  0.1163
 8629OCT     C217258  20.410  13.886  23.600  0.0714 -0.0014  0.2576
 8630OCT     C117259   8.949   9.903  17.379  0.0546 -0.0668 -0.0347
 8630OCT     C217260   8.769  10.039  17.840  0.0038  0.2464  0.0334
 8631OCT     C117261   0.763  14.065   7.886 -0.0811 -0.1589 -0.0548
 8631OCT     C217262   0.513  14.338   8.169  0.2146 -0.0394  0.0313
 8632OCT     C117263   1.461  16.617   8.034 -0.1248 -0.4005  0.2491
 8632OCT     C217264   1.506  16.854   8.435  0.5635  0.0694 -0.1894
 8633OCT     C117265  13.816   7.772  18.875  0.0270  0.1807  0.0385
 8633OCT     C217266  13.416   7.866  19.039  0.1115 -0.2325  0.4104
 8634OCT     C117267  20.620   5.418  10.252  0.1139  0.1014 -0.1303
 8634OCT     C217268  20.621   5.212  10.680  0.2967  0.0708 -0.0573
 8635OCT     C117269  12.703  15.057   5.997 -0.0410 -0.1006  0.1030
 8635OCT     C217270  12.741  15.316   5.663 -0.2252  0.2653 -0.0979
 8636OCT     C117271  22.901   4.730  16.895  0.0069 -0.1300  0.0331
 8636OCT     C217272  23.202   4.687  16.546  0.1474 -0.0651 -0.0507
 8637OCT     C117273  22.305   5.518  13.492  0.3876  0.3166  0.2869
 8637OCT     C217274  21.985   5.201  13.520 -0.0594  0.2553 -0.1293
 8638OCT     C117275  20.931  19.869  12.653 -0.2148 -0.0919 -0.3335
 8638OCT     C217276  20.681  19.643  12.355  0.3807  0.0105 -0.2530
 8639OCT     C117277   4.563  20.552   5.757 -0.2803 -0.2356  0.0661
 8639OCT     C217278   4.645  20.804   5.326 -0.1178 -0.2975  0.1345
 8640OCT     C117279   6.979   0.485   5.342 -0.0675 -0.3182  0.4840
 8640OCT     C217280   7.407   0.533   5.310 -0.1767 -0.0980 -0.1180
 8641OCT     C117281  18.012  23.312   3.176  0.0116 -0.0085 -0.0054
 8641OCT     C217282  18.093  23.183   3.622 -0.2935 -0.2398 -0.5917
 8642OCT     C117283  13.643   4.250  12.617 -0.0936 -0.2877 -0.0713
 8642OCT     C217284  14.074   4.191  12.511  0.1893  0.2888 -0.0485
 8643OCT     C117285   1.019   1.855   7.038  0.0094  0.0935 -0.2377
 8643OCT     C217286   0.600   1.675   7.177  0.0744 -0.1061  0.3194
 8644OCT     C117287   6.104  12.159   1.238  0.1529  0.4100  0.1938
 8644OCT     C217288   5.759  11.875   1.099 -0.1989  0.1189 -0.1530
 8645OCT     C117289   4.055   7.425  14.869  0.0860  0.1618  0.2046
 8645OCT     C217290   4.113   7.286  15.320  0.1497 -0.0453  0.1583
 8646OCT     C117291   9.023   4.551   5.946  0.1994 -0.0104 -0.0707
 8646OCT     C217292   8.733   4.204   5.926 -0.1662  0.2434  0.2124
 8647OCT     C117293   1.131  19.236  19.179 -0.2913  0.5252 -0.0604
 8647OCT     C217294   0.962  19.321  18.772  0.0181  0.2779 -0.0972
 8648OCT     C117295  11.258   7.528   0.462  0.2129 -0.0617  0.2392
 8648OCT     C217296  11.337   7.548  23.693  0.0332  0.0510 -0.0780
 8649OCT     C117297  15.023  12.705  16.203  0.2656  0.1046  0.0598
 8649OCT     C217298  15.374  12.861  15.942  0.0486  0.1191 -0.0307
 8650OCT     C117299   3.642  13.072  19.143 -0.1319  0.2584 -0.0966
 8650OCT     C217300   3.610  13.469  19.406 -0.0025 -0.2118  0.1757
 8651OCT     C117301   1.526  12.836  18.530 -0.0778 -0.0117 -0.1228
 8651OCT     C217302   1.705  13.307  18.433 -0.0329  0.1955  0.0478
 8652OCT     C117303  13.233   0.141   9.823 -0.0075 -0.4594 -0.2575
 8652OCT     C217304  12.956   0.347  10.146 -0.1873 -0.0064  0.0352
 8653OCT     C117305  13.740  13.495   9.179 -0.0479  0.0202  0.1570
 8653OCT     C217306  13.266  13.513   9.173 -0.1414 -0.3193  0.3915
 8654OCT     C117307  19.505   2.284  20.302  0.0487 -0.0909 -0.0028
 8654OCT     C217308  19.876   2.604  20.374 -0.3236  0.1142 -0.1596
 8655OCT     C117309   4.490  22.522  11.247  0.0333 -0.3312 -0.2950
 8655OCT     C217310   4.726  22.845  11.308  0.1614 -0.3183 -0.3277
 8656OCT     C117311   1.492  20.085   9.457  0.0538 -0.0753 -0.0751
 8656OCT     C217312   1.399  19.735   9.805 -0.3766  0.2875 -0.0379
 8657OCT     C117313   6.876   6.838   5.022  0.2649  0.2199 -0.0148
 8657OCT     C217314   7.236   6.846   5.313  0.1744 -0.1407 -0.0220
 8658OCT     C117315  14.283   1.234   3.194 -0.3946  0.0535 -0.3723
 8658OCT     C217316  13.873   1.175   3.463 -0.0173 -0.3305 -0.1024
 8659OCT     C117317  10.837   1.640  13.077 -0.1595  0.1636  0.2661
 8659OCT     C217318  10.429   1.909  12.930  0.0004 -0.0221  0.1564
 8660OCT     C117319  13.489   1.778  15.418 -0.2319  0.2667  0.0935
 8660OCT     C217320  13.711   1.375  15.385  0.4967  0.0923 -0.1331
 8661OCT     C117321   9.250  16.898  10.016 -0.2771  0.1147 -0.0414
 8661OCT     C217322   9.077  16.522  10.251 -0.2606 -0.1855  0.1681
 8662OCT     C117323  10.143  21.565  19.598 -0.2308 -0.3397  0.1428
 8662OCT     C217324   9.757  21.812  19.468  0.0470  0.3596  0.0442
 8663OCT     C117325  15.805   3.543  15.061  0.4322 -0.1236 -0.1108
 8663OCT     C217326  15.800   3.174  15.331 -0.0017 -0.3784  0.1795
 8664OCT     C117327  20.311  11.714   4.671  0.2201  0.0903  0.0907
 8664OCT     C217328  20.250  12.179   4.576  0.2254  0.0451 -0.1808
 8665OCT     C117329  23.413   8.519   0.655  0.0470  0.1543 -0.1098
 8665OCT     C217330   0.058   8.769   0.764 -0.0619  0.0186  0.0155
 8666OCT     C117331  16.083  13.170  15.212 -0.1571  0.0434  0.3229
 8666OCT     C217332  16.182  13.603  15.310 -0.0010 -0.0150  0.1324
 8667OCT     C117333  21.126  12.047  22.969 -0.2118 -0.5082  0.3126
 8667OCT     C217334  20.878  11.615  22.954 -0.2041 -0.1745 -0.0699
 8668OCT     C117335  13.760  17.214  15.394  0.2023  0.1748 -0.4623
 8668OCT     C217336  13.802  17.424  15.856  0.2494  0.3141  0.0109
 8669OCT     C117337  14.004   9.059  21.536 -0.0358 -0.4075  0.2896
 8669OCT     C217338  13.956   9.437  21.784 -0.1761 -0.2179  0.0751
 8670OCT     C117339   0.200  12.849   5.176 -0.0097  0.0874  0.0308
 8670OCT     C217340   0.469  12.882   5.579 -0.1520  0.3045  0.3560
 8671OCT     C117341   6.900  20.301  21.454  0.1160  0.5169 -0.0375
 8671OCT     C217342   7.234  20.080  21.167  0.3099 -0.0826 -0.1812
 8672OCT     C117343  15.472  22.600  21.712 -0.1120 -0.0544 -0.3940
 8672OCT     C217344  14.988  22.578  21.619  0.2182  0.1831  0.2495
 8673OCT     C117345   8.091  12.472  21.871  0.4906  0.0153 -0.0318
 8673OCT     C217346   8.077  12.239  22.267 -0.2098  0.0641 -0.1737
 8674OCT     C117347   5.955  22.177  21.660 -0.0976 -0.1287 -0.3542
 8674OCT     C217348   6.094  22.641  21.680 -0.0695 -0.0081  0.1344
 8675OCT     C117349   8.710  17.313  13.875 -0.2006  0.2438  0.1641
 8675OCT     C217350   8.372  17.437  13.596  0.3572 -0.0279  0.1531
 8676OCT     C117351  23.606   4.788   7.244 -0.3064  0.0936  0.0312
 8676OCT     C217352  23.617   5.221   7.507  0.3164 -0.1961  0.0663
 8677OCT     C117353   0.710   2.381   8.512 -0.0619 -0.0192 -0.1068
 8677OCT     C217354   0.384   2.082   8.694  0.4521 -0.2715  0.1075
 8678OCT     C117355  20.774  21.225  23.411 -0.2795 -0.1842 -0.2151
 8678OCT     C217356  20.817  20.834  23.138 -0.0413  0.0243 -0.2435
 8679OCT     C117357  14.953   8.959   2.342 -0.1093 -0.1720  0.1122
 8679OCT     C217358  15.428   8.828   2.339  0.0209  0.1173 -0.3395
 8680OCT     C117359   3.475  22.728   1.371 -0.1909 -0.1481  0.1199
 8680OCT     C217360   3.945  22.617   1.476 -0.1514 -0.0852  0.1367
 8681OCT     C117361  10.647  23.620  14.049  0.2359 -0.0636  0.3185
 8681OCT     C217362  10.731   0.341  14.065 -0.0086 -0.1799  0.4148
 8682OCT     C117363  14.618  21.288  11.567  0.1852 -0.0625  0.3971
 8682OCT     C217364  14.295  21.580  11.795  0.0298  0.0824  0.1965
 8683OCT     C117365  12.221   6.720   6.848  0.1580 -0.1238 -0.0579
 8683OCT     C217366  11.833   6.605   7.111  0.2941 -0.1017 -0.2358
 8684OCT     C117367  15.013   4.909  23.017  0.2811  0.2103  0.1296
 8684OCT     C217368  14.686   4.706  23.189  0.3492  0.1216 -0.0037
 8685OCT     C117369  12.553  12.567  13.594 -0.0278  0.2642  0.1922
 8685OCT     C217370  12.202  12.792  13.371  0.4021 -0.1719 -0.1583
 8686OCT     C117371  19.568  17.984  10.120  0.4010 -0.2316  0.0381
 8686OCT     C217372  19.606  17.984  10.590  0.3716  0.1872  0.2912
 8687OCT     C117373   8.498  23.049  11.219  0.3811  0.2648 -0.3567
 8687OCT     C217374   8.780  22.728  11.046 -0.0608  0.3129 -0.2293
 8688OCT     C117375  10.981  14.801  10.258  0.4540 -0.1815 -0.4254
 8688OCT     C217376  11.407  14.983  10.248  0.0689 -0.1582  0.3396
 8689OCT     C117377  10.578   2.129   9.493 -0.0118 -0.1144  0.3167
 8689OCT     C217378  10.581   1.811   9.084 -0.4253 -0.3045 -0.3854
 8690OCT     C117379  18.949   0.981   5.479 -0.1890 -0.2719 -0.1014
 8690OCT     C217380  19.238   1.293   5.278 -0.1496  0.0784  0.0597
 8691OCT     C117381  23.286   0.430  13.357  0.0738 -0.0495  0.2583
 8691OCT     C217382  23.392  23.701  13.413  0.0684  0.0577  0.1654
 8692OCT     C117383  10.939   3.443  14.704  0.2580  0.2496  0.0825
 8692OCT     C217384  10.780   3.105  14.431 -0.2465 -0.3100 -0.1438
 8693OCT     C117385  11.915  21.520   6.386 -0.2471 -0.1459 -0.0181
 8693OCT     C217386  12.179  21.618   6.753 -0.0705 -0.0481  0.0212
 8694OCT     C117387  13.412  14.396  22.143  0.2399 -0.1461  0.1683
 8694OCT     C217388  13.403  14.170  22.523  0.0010  0.0774  0.1090
 8695OCT     C117389  23.729   7.058   1.920  0.1259  0.0278  0.0643
 8695OCT     C217390   0.125   6.685   1.645 -0.0226  0.1646  0.0643
 8696OCT     C117391   0.701  12.898   1.173 -0.1289 -0.1914  0.1939
 8696OCT     C217392   0.420  12.715   1.474  0.1982 -0.2507 -0.0636
 8697OCT     C117393   4.111   9.336   9.302 -0.2893 -0.0413  0.0925
 8697OCT     C217394   3.653   9.438   9.409 -0.0480  0.0864  0.1866
 8698OCT     C117395  22.697  17.654  15.197 -0.2036 -0.2240 -0.0894
 8698OCT     C217396  22.489  17.518  15.598 -0.1843 -0.0328  0.2058
 8699OCT     C117397  21.625  19.171  17.840 -0.0168 -0.1860  0.2910
 8699OCT     C217398  21.682  19.414  17.464  0.3111 -0.0911  0.2574
 8700OCT     C117399   6.344  22.312   8.034 -0.0527  0.1670 -0.2829
 8700OCT     C217400   5.891  22.411   8.040  0.5426 -0.1988 -0.0482
 8701OCT     C117401  17.033   0.383  15.368  0.3921  0.1634 -0.2409
 8701OCT     C217402  17.271   0.572  14.959 -0.3877  0.2826 -0.0900
 8702OCT     C117403  14.454   0.135  19.799 -0.1584 -0.1521 -0.1004
 8702OCT     C217404  14.817  23.574  19.653 -0.1685 -0.1420 -0.0520
 8703OCT     C117405  18.351   0.916  21.648  0.1260 -0.3294 -0.2306
 8703OCT     C217406  18.398   0.717  22.036  0.0698 -0.0677  0.0321
 8704OCT     C117407   7.557   1.752  13.219 -0.0550  0.1316  0.0475
 8704OCT     C217408   7.137   1.865  13.438  0.1471  0.4212  0.3142
 8705OCT     C117409  18.661  18.113  15.381 -0.1809  0.2236 -0.0366
 8705OCT     C217410  18.277  18.219  15.225 -0.0777 -0.1761  0.1542
 8706OCT     C117411  19.809   5.184  11.322 -0.1605 -0.1344  0.0333
 8706OCT     C217412  19.843   4.895  10.969  0.1212 -0.2415 -0.1582
 8707OCT     C117413  18.161   9.196   7.524 -0.0486 -0.0314  0.1188
 8707OCT     C217414  18.010   9.024   7.175  0.0863 -0.2063 -0.1552
 8708OCT     C117415  20.454   7.213  18.991  0.4032  0.1613 -0.1170
 8708OCT     C217416  20.361   7.654  19.026 -0.0268  0.1240 -0.3081
 8709OCT     C117417   1.918   8.791  10.983  0.1659 -0.1550  0.0267
 8709OCT     C217418   2.069   8.410  10.802 -0.0116 -0.0311 -0.0857
 8710OCT     C117419  17.672  12.171   3.687  0.2244 -0.0455 -0.0085
 8710OCT     C217420  17.374  11.847   3.830  0.0145  0.0493 -0.4880
 8711OCT     C117421  21.726  23.339  22.190 -0.0619  0.1705 -0.1479
 8711OCT     C217422  22.166  23.195  22.354 -0.1571  0.3876 -0.0396
 8712OCT     C117423   4.774   3.330  17.105  0.1862 -0.1001 -0.1207
 8712OCT     C217424   4.822   3.492  17.545 -0.1504  0.1065 -0.2714
 8713OCT     C117425   8.246  23.463  17.833  0.0227 -0.0419 -0.1031
 8713OCT     C217426   8.685  23.493  17.691 -0.1235  0.4362  0.1618
 8714OCT     C117427  14.109   4.756  16.974  0.3026 -0.0893  0.3108
 8714OCT     C217428  13.620   4.707  17.001  0.0379 -0.2230  0.0863
 8715OCT     C117429  12.567   8.692  12.184 -0.1855  0.0342 -0.1764
 8715OCT     C217430  12.805   8.837  12.564 -0.0579 -0.1064  0.0833
 8716OCT     C117431  14.390   5.436   0.682 -0.1833  0.0024 -0.0479
 8716OCT     C217432  13.996   5.321   0.871  0.0882  0.3833  0.2244
 8717OCT     C117433  18.891   7.035   7.378 -0.0468  0.0232 -0.0350
 8717OCT     C217434  19.291   7.249   7.213  0.2277  0.1415 -0.1610
 8718OCT     C117435  19.434   1.448  20.258 -0.0763 -0.0269  0.1287
 8718OCT     C217436  19.108   1.445  20.505  0.0023  0.2110 -0.2049
 8719OCT     C117437  21.296  15.226  13.217  0.1644 -0.0119  0.0559
 8719OCT     C217438  20.964  14.867  13.257  0.1346  0.2800  0.6308
 8720OCT     C117439  21.547  23.740  23.219 -0.1781  0.1326  0.1221
 8720OCT     C217440  21.162   0.224  22.967 -0.0423 -0.3340 -0.0245
 8721OCT     C117441  16.175  20.809  21.945 -0.3204 -0.1438  0.2377
 8721OCT     C217442  15.953  21.203  21.854 -0.2963  0.0937  0.1450
 8722OCT     C117443  14.616   7.200  10.167  0.3920  0.2033 -0.0822
 8722OCT     C217444  14.210   6.978  10.233 -0.0561 -0.0184 -0.4416
 8723OCT     C117445   9.789   7.843  23.379  0.2411  0.1415 -0.2322
 8723OCT     C217446  10.034   7.575  23.714  0.2461 -0.1586  0.0806
 8724OCT     C117447   6.074  20.983  19.850  0.0692  0.0685  0.0921
 8724OCT     C217448   5.720  21.150  19.573 -0.2871  0.3909 -0.1534
 8725OCT     C117449  22.181  19.885   2.985 -0.0313 -0.1392  0.1895
 8725OCT     C217450  21.920  20.302   2.820 -0.2382 -0.0286  0.1633
 8726OCT     C117451  21.191  15.696   4.201 -0.0795  0.2471  0.0867
 8726OCT     C217452  21.106  15.611   4.696  0.0083  0.3894  0.1858
 8727OCT     C117453   9.886  10.467  23.595 -0.0108  0.0491  0.0326
 8727OCT     C217454   9.659  10.157   0.086 -0.1289 -0.5059 -0.0611
 8728OCT     C117455   2.406   0.225  22.566  0.4265 -0.0310 -0.0240
 8728OCT     C217456   2.703   0.539  22.284 -0.1338  0.2975 -0.0304
 8729OCT     C117457  22.455  14.206  15.743 -0.2531  0.1041  0.3043
 8729OCT     C217458  22.069  14.197  15.427 -0.4436  0.0652 -0.1364
 8730OCT     C117459  15.856   4.165  21.473  0.1860 -0.1387  0.0419
 8730OCT     C217460  15.670   3.770  21.587 -0.2541  0.1791 -0.2951
 8731OCT     C117461   2.475  21.933  15.550  0.0222 -0.1224  0.3463
 8731OCT     C217462   2.210  21.771  15.941 -0.1075  0.1733  0.1288
 8732OCT     C117463  23.538   1.474  16.332  0.2081 -0.0904 -0.4025
 8732OCT     C217464  23.623   1.447  16.766 -0.0624  0.0835 -0.0627
 8733OCT     C117465   1.055  12.746  18.465 -0.3856  0.2880 -0.0696
 8733OCT     C217466   0.693  12.533  18.160 -0.0532  0.2257  0.2818
 8734OCT     C117467  11.426  14.290  14.748  0.0188  0.2332 -0.0983
 8734OCT     C217468  11.526  14.682  14.941  0.2400  0.0726 -0.1189
 8735OCT     C117469  15.340  15.963   6.826  0.1965  0.0841 -0.0485
 8735OCT     C217470  15.514  15.614   7.109 -0.0430 -0.2710 -0.5935
 8736OCT     C117471   8.980   0.199  20.660 -0.1158 -0.0452 -0.3092
 8736OCT     C217472   9.392   0.157  20.394  0.1206 -0.1909  0.0750
 8737OCT     C117473   5.924  20.012  11.131 -0.1231  0.0486 -0.1681
 8737OCT     C217474   5.542  20.279  11.222  0.2473  0.1026  0.0039
 8738OCT     C117475  14.293   9.513   1.911 -0.1757 -0.0740 -0.1798
 8738OCT     C217476  14.083   9.070   1.926  0.2294  0.1099  0.1159
 8739OCT     C117477   2.082  10.680   2.691 -0.0964  0.0353  0.4064
 8739OCT     C217478   1.904  10.734   2.261  0.0903  0.2823  0.2431
 8740OCT     C117479   4.045   8.772  17.305 -0.2190  0.0184 -0.1970
 8740OCT     C217480   3.989   9.260  17.216 -0.3903  0.1448  0.1927
 8741OCT     C117481  18.559   4.402  16.750 -0.2993 -0.0595 -0.2748
 8741OCT     C217482  18.820   4.803  16.675  0.1160 -0.2513  0.0363
 8742OCT     C117483   3.070  13.468  10.641  0.0484  0.2161  0.1855
 8742OCT     C217484   2.683  13.771  10.721  0.3183  0.2718  0.0227
 8743OCT     C117485   9.269   2.085  16.972 -0.1719 -0.1738 -0.0290
 8743OCT     C217486   8.834   1.825  16.972 -0.1800  0.3195 -0.2831
 8744OCT     C117487   5.623   8.519   8.951 -0.1374 -0.0534  0.3048
 8744OCT     C217488   5.250   8.708   8.833 -0.0742 -0.0963  0.0166
 8745OCT     C117489  16.234  19.583  19.676  0.1332 -0.1851 -0.3635
 8745OCT     C217490  16.142  19.152  19.843 -0.0225 -0.1249 -0.0080
 8746OCT     C117491  13.396   3.772   1.756  0.3988 -0.0827 -0.1555
 8746OCT     C217492  12.987   3.767   1.462 -0.0205  0.1968  0.0602
 8747OCT     C117493   8.079  17.992  18.413  0.1326 -0.3922 -0.1913
 8747OCT     C217494   7.685  17.759  18.274  0.1085  0.0875 -0.2758
 8748OCT     C117495   7.623  23.570  11.529 -0.0325  0.0424  0.0154
 8748OCT     C217496   7.948   0.212  11.419 -0.2000  0.0212 -0.1857
 8749OCT     C117497  16.129  23.029   0.911  0.2262  0.0027 -0.0042
 8749OCT     C217498  16.388  22.683   1.063  0.2595  0.1224 -0.1288
 8750OCT     C117499  10.321   0.933  14.265 -0.2409  0.1021 -0.2884
 8750OCT     C217500  10.293   0.520  13.960  0.2342 -0.1711 -0.0204
 8751OCT     C117501  16.686  22.391  21.868  0.1122 -0.0709 -0.1783
 8751OCT     C217502  16.993  22.738  21.716 -0.1850  0.0190 -0.1195
 8752OCT     C117503  12.652   1.552  14.765  0.2971  0.1189  0.0033
 8752OCT     C217504  12.996   1.809  14.802 -0.3160 -0.1028 -0.0646
 8753OCT     C117505  18.861   9.504   4.464  0.1410 -0.2574 -0.2723
 8753OCT     C217506  18.828   9.949   4.352  0.0850  0.2384  0.0686
 8754OCT     C117507  22.413  18.950  15.821  0.2472 -0.0048  0.0258
 8754OCT     C217508  22.636  18.728  15.524  0.0567 -0.0537 -0.2949
 8755OCT     C117509  21.600  13.504  14.586  0.3124  0.0844 -0.1022
 8755OCT     C217510  21.979  13.413  14.904 -0.2334  0.0385  0.7292
 8756OCT     C117511   5.810  11.058   7.226  0.1339 -0.0739  0.2584
 8756OCT     C217512   5.572  10.656   7.347 -0.1636 -0.1790  0.0585
 8757OCT     C117513   8.519  18.069  20.343  0.1152 -0.2345 -0.4059
 8757OCT     C217514   8.181  18.011  20.744 -0.0289 -0.1522  0.2841
 8758OCT     C117515   9.874  13.335  11.527 -0.1991  0.1050 -0.0276
 8758OCT     C217516   9.449  13.333  11.762 -0.2167  0.3216  0.0487
 8759OCT     C117517  12.840   0.019   5.707  0.5359  0.2504  0.1107
 8759OCT     C217518  12.575  23.399   5.918  0.3216  0.1323  0.1654
 8760OCT     C117519   6.469  23.525  10.213  0.2998  0.0770  0.4175
 8760OCT     C217520   6.688  23.129  10.032  0.0856 -0.0024 -0.1236
 8761OCT     C117521   7.000   8.485   4.452 -0.0261  0.2375 -0.0086
 8761OCT     C217522   6.660   8.499   4.122 -0.1489 -0.0636 -0.0606
 8762OCT     C117523   2.206   1.380  11.379  0.0110 -0.0601  0.0560
 8762OCT     C217524   2.267   1.440  11.784 -0.0166 -0.2708 -0.0380
 8763OCT     C117525   5.060  14.942  20.772 -0.1025 -0.4911 -0.2605
 8763OCT     C217526   4.895  15.132  20.393  0.0935  0.2789 -0.3451
 8764OCT     C117527   0.720  18.050  18.194 -0.0009 -0.0030 -0.3163
 8764OCT     C217528   0.848  17.662  18.424  0.2279 -0.0472  0.1132
 8765OCT     C117529  19.860  19.676  20.720 -0.0475  0.1492  0.0587
 8765OCT     C217530  19.749  19.250  20.482 -0.3694  0.2401 -0.2810
 8766OCT     C117531  22.180  20.486   9.575 -0.0585 -0.3415  0.1097
 8766OCT     C217532  21.808  20.347   9.354 -0.3973 -0.1798  0.3105
 8767OCT     C117533  21.219  19.640  11.385 -0.1403  0.0829  0.2699
 8767OCT     C217534  21.666  19.665  11.461 -0.0537  0.1298 -0.3323
 8768OCT     C117535   3.637  10.069   8.983 -0.0528  0.0483  0.0917
 8768OCT     C217536   3.406  10.043   8.552  0.1574 -0.0940  0.1363
 8769OCT     C117537  20.887  11.398   5.560 -0.0671 -0.1566  0.0163
 8769OCT     C217538  20.690  11.742   5.311 -0.0723  0.0752 -0.1107
 8770OCT     C117539  18.949  16.672  17.246  0.2605  0.0587 -0.5276
 8770OCT     C217540  18.616  16.310  17.413 -0.1661  0.3291 -0.0696
 8771OCT     C117541   6.447   4.929  18.144  0.2046 -0.1405  0.1314
 8771OCT     C217542   6.806   5.179  18.059 -0.2483 -0.1266  0.1656
 8772OCT     C117543   8.807   8.342  12.342 -0.3913  0.0735 -0.0026
 8772OCT     C217544   8.591   8.445  12.740  0.2071  0.1405 -0.2269
 8773OCT     C117545  16.586  14.981   6.814 -0.0890  0.0926 -0.0455
 8773OCT     C217546  16.495  15.414   6.743  0.2107  0.0356 -0.0132
 8774OCT     C117547  17.484   0.806   1.668  0.5697 -0.1502 -0.1221
 8774OCT     C217548  17.459   1.302   1.564 -0.1632  0.1582 -0.0113
 8775OCT     C117549  23.138  11.138  21.202 -0.3008  0.0965 -0.1984
 8775OCT     C217550  23.119  11.490  21.428  0.0532 -0.3067 -0.1957
 8776OCT     C117551   9.506  19.451  15.177  0.2239  0.1636  0.0223
 8776OCT     C217552   9.657  19.838  14.879 -0.3276 -0.0552  0.1895
 8777OCT     C117553   1.384   0.486  22.361 -0.2616  0.2409 -0.1134
 8777OCT     C217554   1.040   0.521  22.026 -0.3280  0.4586 -0.3525
 8778OCT     C117555  11.125  10.122  20.539 -0.0404 -0.0186  0.1233
 8778OCT     C217556  10.868  10.474  20.303  0.4164  0.1957 -0.1694
 8779OCT     C117557  21.194   1.881  13.056 -0.3346  0.2091 -0.0606
 8779OCT     C217558  21.474   1.758  12.631  0.0608  0.0479 -0.2459
 8780OCT     C117559  21.686  18.021   4.338  0.0322 -0.0077 -0.0945
 8780OCT     C217560  22.148  17.919   4.367 -0.3714 -0.0064  0.0606
 8781OCT     C117561  11.248   2.220   6.948 -0.0459  0.1723  0.0375
 8781OCT     C217562  10.794   2.237   7.102  0.3150 -0.0062  0.1513
 8782OCT     C117563   4.940  23.286  14.713 -0.1654  0.0415  0.2086
 8782OCT     C217564   5.399  23.427  14.650  0.2937 -0.3130  0.0160
 8783OCT     C117565   9.605  11.585  20.477 -0.0445  0.1811 -0.3265
 8783OCT     C217566   9.281  11.764  20.272 -0.4420 -0.4382  0.0326
 8784OCT     C117567  20.510  11.262  21.125 -0.0367  0.1857  0.1174
 8784OCT     C217568  20.669  11.534  21.470 -0.0447  0.1737 -0.0474
 8785OCT     C117569  13.553   4.434  22.203  0.3659 -0.2598 -0.4401
 8785OCT     C217570  13.132   4.466  21.931 -0.0622  0.3725  0.1011
 8786OCT     C117571   1.715   2.599   9.921 -0.0447 -0.1315 -0.3747
 8786OCT     C217572   1.945   2.238   9.685 -0.0772  0.1596 -0.1323
 8787OCT     C117573  14.710  23.281  13.182  0.2267 -0.2002  0.5431
 8787OCT     C217574  14.466  23.658  13.308 -0.0678 -0.0211  0.0845
 8788OCT     C117575  19.318   6.170  23.084 -0.2182 -0.1561 -0.0768
 8788OCT     C217576  18.938   6.300  22.831 -0.2873 -0.0947 -0.4890
 8789OCT     C117577  11.431  17.522   9.501  0.1811 -0.0879  0.0763
 8789OCT     C217578  11.641  17.907   9.668  0.0018 -0.1063  0.2862
 8790OCT     C117579   0.346  20.070  17.705  0.0837 -0.1173 -0.0592
 8790OCT     C217580  23.637  20.158  17.606  0.2651  0.2643  0.1727
 8791OCT     C117581  11.279  10.535  22.738 -0.1016 -0.0236  0.1516
 8791OCT     C217582  11.090  10.482  23.171  0.0662  0.0238 -0.0285
 8792OCT     C117583  20.033  21.489  14.191 -0.3065  0.2761 -0.0534
 8792OCT     C217584  20.398  21.743  14.355 -0.0299 -0.2350 -0.2499
 8793OCT     C117585  16.683  21.415  21.977  0.0292 -0.2058 -0.1371
 8793OCT     C217586  16.652  21.362  21.527  0.2158  0.1387  0.2391
 8794OCT     C117587  18.567  11.342   5.082  0.2351 -0.0932  0.0529
 8794OCT     C217588  18.464  10.917   4.828  0.0743  0.0490 -0.1366
 8795OCT     C117589  20.962   6.992  21.399 -0.3671 -0.1094  0.1126
 8795OCT     C217590  21.221   6.690  21.582  0.0721  0.2272  0.0668
 8796OCT     C117591  10.127   4.267   4.526 -0.2178 -0.1294 -0.4169
 8796OCT     C217592  10.415   4.679   4.505 -0.0258  0.1289 -0.1193
 8797OCT     C117593  21.062   6.167   3.387  0.2696 -0.2423  0.0579
 8797OCT     C217594  21.221   6.581   3.348 -0.2024  0.2051  0.0297
 8798OCT     C117595  11.015   7.717   2.502 -0.0705 -0.0742 -0.0544
 8798OCT     C217596  11.235   8.152   2.449  0.5834 -0.0405 -0.0964
 8799OCT     C117597  15.177  11.928  15.711 -0.0687 -0.0919 -0.1492
 8799OCT     C217598  15.275  12.232  16.061  0.5517 -0.0616 -0.0118
 8800OCT     C117599  17.322   8.035  11.047  0.3141  0.1406  0.1235
 8800OCT     C217600  16.990   8.136  10.778 -0.2516  0.2470 -0.0537
 8801OCT     C117601  18.511   0.868   2.297 -0.3149  0.1724  0.2920
 8801OCT     C217602  18.041   0.907   2.274 -0.0817 -0.0780 -0.2387
 8802OCT     C117603  11.450  18.564  17.239  0.0295  0.1903  0.0935
 8802OCT     C217604  11.528  18.768  17.677  0.0464  0.1230  0.2418
 8803OCT     C117605  22.074   5.991  17.136 -0.3433  0.3210 -0.0019
 8803OCT     C217606  22.106   5.862  16.679 -0.2515 -0.2104 -0.2139
 8804OCT     C117607   9.591  18.460  19.478 -0.1857  0.3815  0.1798
 8804OCT     C217608   9.262  18.698  19.322  0.2596  0.0724 -0.1609
 8805OCT     C117609  11.850  21.264  23.518 -0.1262  0.0715  0.6592
 8805OCT     C217610  11.849  21.707  23.354  0.1999  0.2297  0.1708
 8806OCT     C117611  22.050   1.055  13.658  0.5283 -0.0458  0.1875
 8806OCT     C217612  22.438   0.826  13.543 -0.3836 -0.2653  0.3862
 8807OCT     C117613   1.645  17.568   4.178 -0.0681 -0.0623 -0.0553
 8807OCT     C217614   2.014  17.818   4.096  0.1208  0.0582  0.0302
 8808OCT     C117615   7.246  14.345  22.699 -0.1737  0.0525  0.1920
 8808OCT     C217616   7.656  14.149  22.666 -0.1050  0.2279 -0.1384
 8809OCT     C117617  20.038  23.570   2.792 -0.1139  0.4279 -0.0415
 8809OCT     C217618  19.925  23.655   2.338 -0.1825  0.2037 -0.0044
 8810OCT     C117619  23.581  18.440  20.367 -0.2306  0.1256  0.0575
 8810OCT     C217620  23.234  18.160  20.544  0.0663 -0.3315  0.3227
 8811OCT     C117621   9.587   9.669  12.485 -0.2303  0.0217  0.0876
 8811OCT     C217622   9.171   9.621  12.653 -0.0441 -0.4875 -0.0450
 8812OCT     C117623  15.286   5.288  13.795 -0.3427  0.1370  0.2882
 8812OCT     C217624  14.911   5.535  14.007  0.0025 -0.0305  0.4082
 8813OCT     C117625  15.897   1.846  10.198 -0.0250  0.2062  0.0594
 8813OCT     C217626  16.117   1.600   9.842  0.2215  0.0144 -0.0925
 8814OCT     C117627   1.308  20.778   5.299  0.1331 -0.1920 -0.0100
 8814OCT     C217628   1.346  20.912   5.707  0.3487 -0.1382  0.2591
 8815OCT     C117629   4.955   6.917  20.284 -0.1577  0.1428 -0.0222
 8815OCT     C217630   4.476   6.822  20.296  0.0476  0.0107  0.0926
 8816OCT     C117631   1.109   6.526   6.232 -0.1679  0.0767 -0.0721
 8816OCT     C217632   0.818   6.829   6.426 -0.0863  0.0876  0.3177
 8817OCT     C117633   4.043  14.571   5.843 -0.0230  0.3626  0.0617
 8817OCT     C217634   3.697  14.881   5.984 -0.0236  0.0120 -0.3761
 8818OCT     C117635  19.590   7.190  11.364 -0.2533 -0.0692 -0.0301
 8818OCT     C217636  19.190   6.904  11.227  0.3915  0.0899 -0.2671
 8819OCT     C117637   0.107  19.913  21.692  0.0383  0.3934 -0.0798
 8819OCT     C217638   0.545  19.793  21.546 -0.3180  0.0587 -0.2330
 8820OCT     C117639   2.794   1.018  22.497  0.5513 -0.0922  0.2235
 8820OCT     C217640   3.017   1.298  22.112  0.0681  0.1752  0.3318
 8821OCT     C117641   8.038  12.508   9.251 -0.1341 -0.2312  0.1745
 8821OCT     C217642   7.856  12.553   9.696 -0.0251 -0.2205  0.1766
 8822OCT     C117643  19.843  19.812  16.980  0.1461 -0.0491  0.0797
 8822OCT     C217644  19.643  19.998  17.395  0.1473  0.2186  0.2007
 8823OCT     C117645  23.613  17.458   7.916 -0.1148  0.0660 -0.0463
 8823OCT     C217646  23.648  17.500   7.442 -0.2085  0.2243 -0.1923
 8824OCT     C117647   9.885   7.879  14.109 -0.0017 -0.0400  0.0163
 8824OCT     C217648  10.323   8.068  13.939 -0.0467  0.1857 -0.0648
 8825OCT     C117649  13.778   9.923  21.835 -0.1149  0.5940 -0.0161
 8825OCT     C217650  13.641  10.185  21.442 -0.0954 -0.0125  0.1352
 8826OCT     C117651  17.217  19.551   7.518 -0.1648 -0.1038  0.1135
 8826OCT     C217652  17.503  19.488   7.811 -0.1321  0.1103  0.5332
 8827OCT     C117653  22.508  12.271   0.187 -0.4807 -0.1659 -0.1396
 8827OCT     C217654  22.258  12.322   0.598  0.1458  0.0500  0.0368
 8828OCT     C117655  19.293   5.575  11.876 -0.4317  0.0444  0.1632
 8828OCT     C217656  19.589   5.643  11.527 -0.3003 -0.3206 -0.0246
 8829OCT     C117657  14.264  10.556  14.491 -0.1465  0.0664  0.1582
 8829OCT     C217658  14.207  11.032  14.539  0.0039 -0.2176  0.3873
 8830OCT     C117659   4.852  21.328   5.162 -0.0483  0.2233 -0.1244
 8830OCT     C217660   5.007  20.909   5.025 -0.4862 -0.2391 -0.0275
 8831OCT     C117661  13.295  10.931   9.308  0.3704  0.3069 -0.1268
 8831OCT     C217662  13.188  11.378   9.193 -0.2502 -0.2548 -0.2370
 8832OCT     C117663  23.094  14.121   0.197 -0.0527 -0.1923  0.2025
 8832OCT     C217664  22.753  14.409   0.390  0.0715 -0.2733 -0.0850
 8833OCT     C117665   5.517  19.044  11.232 -0.1010 -0.1916  0.1712
 8833OCT     C217666   5.591  19.378  11.568 -0.1682  0.0989  0.0461
 8834OCT     C117667  19.268   6.103  20.993  0.4465 -0.3590  0.1155
 8834OCT     C217668  19.464   6.383  20.626 -0.0449  0.0774  0.4495
 8835OCT     C117669   0.688   3.505  17.343 -0.0036  0.2616  0.2121
 8835OCT     C217670   0.453   3.287  17.032  0.1431  0.6418  0.2363
 8836OCT     C117671   5.955  13.110   4.168 -0.4138 -0.0183  0.2777
 8836OCT     C217672   6.123  13.412   3.913 -0.1188 -0.0311 -0.1335
 8837OCT     C117673   9.465  19.813   9.109  0.1581  0.2462 -0.0018
 8837OCT     C217674   9.149  20.149   8.961  0.0135 -0.1091 -0.3118
 8838OCT     C117675   8.439   5.452  20.543 -0.0869  0.0271  0.1023
 8838OCT     C217676   8.601   5.101  20.448 -0.0111 -0.3429  0.1227
 8839OCT     C117677  18.510  22.755  23.725  0.3698 -0.0475 -0.1234
 8839OCT     C217678  18.064  22.888  23.622  0.8096  0.1411 -0.1284
 8840OCT     C117679  18.367   0.055   3.030 -0.0909  0.5636 -0.2754
 8840OCT     C217680  18.451  23.311   2.961  0.3254  0.2235  0.1540
 8841OCT     C117681   3.382   5.537  19.180  0.2666 -0.0810  0.0076
 8841OCT     C217682   2.916   5.586  19.164  0.0789 -0.0496  0.0120
 8842OCT     C117683  19.383  18.616   0.123 -0.0816  0.0971  0.1675
 8842OCT     C217684  19.189  18.982  23.683  0.2287  0.1931 -0.1091
 8843OCT     C117685   6.182   2.339   0.363 -0.2838 -0.1735 -0.1280
 8843OCT     C217686   5.901   1.910   0.288  0.1287  0.1280  0.0381
 8844OCT     C117687  13.238  13.698  22.577 -0.3992  0.0038  0.1660
 8844OCT     C217688  13.265  13.221  22.651 -0.0538  0.2164  0.0251
 8845OCT     C117689   3.761   7.251   1.810  0.0936 -0.1451 -0.1402
 8845OCT     C217690   3.301   7.252   1.782 -0.2108 -0.0971  0.1169
 8846OCT     C117691  17.438  14.539  15.717  0.3282 -0.1166  0.2362
 8846OCT     C217692  17.146  14.562  16.102 -0.0307  0.2908  0.0839
 8847OCT     C117693  21.589  16.474  17.662 -0.1586  0.1904  0.0033
 8847OCT     C217694  21.542  16.160  18.051 -0.1959 -0.1957  0.2670
 8848OCT     C117695  21.202   9.136  16.723  0.1213 -0.1770 -0.0083
 8848OCT     C217696  21.662   9.178  16.574  0.0597  0.0033  0.0806
 8849OCT     C117697  20.041  19.576   3.794 -0.1608 -0.5111 -0.3749
 8849OCT     C217698  20.426  19.587   3.996 -0.0403 -0.2026  0.2060
 8850OCT     C117699  21.330   7.008  18.462  0.2916  0.1079 -0.1853
 8850OCT     C217700  21.469   6.900  18.884 -0.0573 -0.2313  0.2529
 8851OCT     C117701   8.259  12.583  15.381  0.1077 -0.0515 -0.3106
 8851OCT     C217702   7.848  12.390  15.266 -0.2644 -0.1444 -0.0913
 8852OCT     C117703   6.479  15.631  11.177 -0.0534 -0.1326 -0.0091
 8852OCT     C217704   6.528  15.159  11.122 -0.3056  0.1383  0.1555
 8853OCT     C117705  16.315  14.004   4.124  0.0771  0.1371  0.0354
 8853OCT     C217706  16.560  13.621   3.868 -0.2162 -0.1511  0.0278
 8854OCT     C117707  18.813   5.499  12.016 -0.1174 -0.1022  0.0104
 8854OCT     C217708  18.386   5.653  11.887  0.2679  0.3734 -0.0352
 8855OCT     C117709   9.570   9.381  21.618  0.2170 -0.3465  0.3179
 8855OCT     C217710   9.714   9.093  21.270  0.0936 -0.2669  0.1048
 8856OCT     C117711  17.943   1.193  20.374  0.0261  0.0478  0.2714
 8856OCT     C217712  17.887   1.556  20.022 -0.0639 -0.2451  0.2451
 8857OCT     C117713  14.991  21.354  13.296  0.0253 -0.0885  0.0870
 8857OCT     C217714  14.901  20.860  13.402 -0.1942 -0.2176 -0.1326
 8858OCT     C117715  17.113  22.552   2.740  0.2555 -0.0140 -0.0770
 8858OCT     C217716  17.310  22.166   2.668  0.0500 -0.0798  0.3872
 8859OCT     C117717  13.625  19.328  18.938 -0.3107  0.1715  0.1065
 8859OCT     C217718  13.714  19.703  18.650  0.0488 -0.3664  0.1799
 8860OCT     C117719  11.296   3.111   8.759 -0.0366  0.0651  0.0810
 8860OCT     C217720  11.612   3.475   8.819  0.1510  0.1840  0.1435
 8861OCT     C117721  12.671  22.954   3.871 -0.1355 -0.0206  0.1983
 8861OCT     C217722  13.023  22.634   3.675  0.1048 -0.2032 -0.0405
 8862OCT     C117723  19.978  17.666  14.365 -0.0185  0.0638  0.2228
 8862OCT     C217724  19.735  17.330  14.077  0.4208  0.0509  0.1253
 8863OCT     C117725  22.200  12.680  10.110 -0.1461  0.2711  0.3233
 8863OCT     C217726  22.490  12.844  10.433 -0.3456  0.0661 -0.1644
 8864OCT     C117727   4.762  20.451   0.371 -0.4190 -0.0681  0.1356
 8864OCT     C217728   4.733  20.906   0.540 -0.0966 -0.1410  0.0375
 8865OCT     C117729   8.728  17.914   7.143  0.0569  0.4633  0.0033
 8865OCT     C217730   8.452  17.870   7.549  0.2655 -0.3176  0.1624
 8866OCT     C117731  21.272  12.512  20.626  0.5196 -0.0062 -0.1800
 8866OCT     C217732  21.197  12.098  20.736 -0.1334 -0.0161  0.3188
 8867OCT     C117733   3.924  15.121  10.930 -0.0328 -0.1902  0.0866
 8867OCT     C217734   3.971  14.775  10.621  0.3483 -0.1199 -0.0820
 8868OCT     C117735  16.932   5.311  16.567 -0.1847 -0.0760 -0.0802
 8868OCT     C217736  17.051   4.897  16.703  0.0903  0.0591 -0.4033
 8869OCT     C117737  19.827  11.103  10.998 -0.0591  0.2654  0.0076
 8869OCT     C217738  19.664  11.249  11.400  0.0795 -0.0368  0.1654
 8870OCT     C117739   8.377   1.088   8.701  0.1113  0.0449 -0.2773
 8870OCT     C217740   8.278   0.891   8.312  0.2517  0.2001  0.0981
 8871OCT     C117741   6.414  13.186   9.222  0.0365 -0.1115 -0.0885
 8871OCT     C217742   6.595  12.775   9.323  0.0479  0.2802  0.3841
 8872OCT     C117743  10.867  10.130   7.784  0.1167  0.0534 -0.2329
 8872OCT     C217744  10.967  10.484   8.077 -0.0518  0.3902 -0.1704
 8873OCT     C117745  11.495   2.986  11.276  0.2545  0.2385  0.2628
 8873OCT     C217746  11.918   3.152  11.175  0.0940 -0.1847 -0.0436
 8874OCT     C117747  22.440  16.625   4.781  0.2476 -0.0422 -0.0623
 8874OCT     C217748  22.765  16.402   5.070 -0.2671 -0.0618  0.1900
 8875OCT     C117749   4.927   1.384  12.325  0.5327 -0.0120 -0.2587
 8875OCT     C217750   4.818   1.523  12.811  0.1039 -0.0240 -0.0014
 8876OCT     C117751  22.494  16.274   4.371 -0.1767 -0.1301  0.2455
 8876OCT     C217752  22.900  16.257   4.611 -0.1122  0.2062  0.2407
 8877OCT     C117753   3.423  11.867   5.025  0.0250 -0.3093 -0.2493
 8877OCT     C217754   3.812  11.916   5.284  0.1792 -0.1611  0.2075
 8878OCT     C117755   7.373  12.690  23.543 -0.2022  0.0841 -0.1360
 8878OCT     C217756   6.900  12.577  23.578  0.1250 -0.2003 -0.0229
 8879OCT     C117757  12.092  12.770  10.732  0.0701 -0.0643 -0.0354
 8879OCT     C217758  12.317  12.816  10.325  0.3188  0.1888  0.2486
 8880OCT     C117759  10.283  11.628   9.672 -0.1099  0.2399 -0.0084
 8880OCT     C217760  10.469  11.895   9.298 -0.1234 -0.1369 -0.3184
 8881OCT     C117761  15.299   1.321  10.300  0.1033  0.4561 -0.2387
 8881OCT     C217762  15.635   1.516  10.504 -0.1494 -0.3355 -0.0638
 8882OCT     C117763   1.568  12.146  21.668  0.1204  0.4700  0.4411
 8882OCT     C217764   1.827  12.108  21.302  0.1432  0.1507 -0.3105
 8883OCT     C117765  19.102   1.120  15.952  0.0685 -0.4532  0.2979
 8883OCT     C217766  19.192   1.584  15.865  0.1404 -0.1921  0.1303
 8884OCT     C117767  18.798   6.003  10.408  0.1836  0.4388 -0.0069
 8884OCT     C217768  19.152   6.162  10.639  0.0363  0.0325 -0.3529
 8885OCT     C117769  19.507   2.036  21.742  0.0276 -0.2381 -0.1141
 8885OCT     C217770  19.147   1.843  21.456  0.2925 -0.2051  0.2176
 8886OCT     C117771  11.484  14.936  23.426 -0.1740 -0.0494  0.2327
 8886OCT     C217772  11.284  15.130   0.013  0.0940  0.1106 -0.1685
 8887OCT     C117773  18.402  18.098  19.215  0.0417  0.0440  0.2373
 8887OCT     C217774  18.684  18.458  19.202 -0.2693 -0.2902  0.1487
 8888OCT     C117775  20.387   9.664  12.517  0.3010 -0.0728 -0.0295
 8888OCT     C217776  20.387  10.025  12.247 -0.0167  0.2304 -0.0630
 8889OCT     C117777  12.276  17.798  13.944 -0.0818 -0.0055  0.7397
 8889OCT     C217778  12.155  17.307  13.855 -0.0111 -0.0599 -0.1131
 8890OCT     C117779  11.140  22.312  13.153 -0.2913  0.2301 -0.0112
 8890OCT     C217780  11.149  21.868  13.054 -0.1647  0.0500 -0.0621
 8891OCT     C117781  18.948   6.416   8.995 -0.1634  0.0179  0.0552
 8891OCT     C217782  19.209   6.778   8.792  0.0408  0.1212  0.0238
 8892OCT     C117783   9.624   3.814   5.924  0.3408  0.2144 -0.2491
 8892OCT     C217784   9.923   3.468   5.861 -0.1280  0.0340  0.2117
 8893OCT     C117785  19.765   6.262  18.755  0.1172 -0.1116 -0.0429
 8893OCT     C217786  19.610   5.827  18.874 -0.1680 -0.0373 -0.1611
 8894OCT     C117787   1.897  12.168  11.893 -0.0240  0.1762 -0.2870
 8894OCT     C217788   2.066  12.093  12.342 -0.1144 -0.1451 -0.0941
 8895OCT     C117789   3.372  10.713  21.853  0.3038 -0.0665 -0.0243
 8895OCT     C217790   3.086  10.455  22.166 -0.1367 -0.1516 -0.1691
 8896OCT     C117791   2.992   7.121   4.425 -0.2479 -0.2868  0.3056
 8896OCT     C217792   3.180   7.462   4.671 -0.0173 -0.2190  0.0605
 8897OCT     C117793  23.297  10.843  14.731  0.1665  0.3111  0.2693
 8897OCT     C217794  22.879  11.076  14.688  0.0489  0.3187 -0.1961
 8898OCT     C117795  23.184  18.149   7.214 -0.2842  0.3278  0.4797
 8898OCT     C217796  23.000  17.802   6.983 -0.1480 -0.0388 -0.1060
 8899OCT     C117797   8.757  11.815  22.532  0.2274  0.0326 -0.0904
 8899OCT     C217798   9.009  12.171  22.361 -0.3587  0.1597 -0.2409
 8900OCT     C117799   4.568  12.032  17.566 -0.1226  0.2285 -0.0847
 8900OCT     C217800   4.879  11.891  17.290  0.0262 -0.1201  0.2279
 8901OCT     C117801  19.518  19.346  14.187  0.0494  0.1285 -0.4414
 8901OCT     C217802  19.401  18.949  13.927 -0.1932  0.0583 -0.1197
 8902OCT     C117803  20.201  17.137  17.684  0.2471  0.1378  0.1087
 8902OCT     C217804  20.410  16.756  17.690 -0.1198  0.1479  0.0473
 8903OCT     C117805  10.124   8.364   2.911  0.3942 -0.4819 -0.1451
 8903OCT     C217806  10.484   8.418   3.187  0.0462  0.0492 -0.0150
 8904OCT     C117807   0.981  18.709  11.506 -0.2187  0.2748  0.0125
 8904OCT     C217808   1.114  18.806  11.061  0.0650 -0.4623 -0.0304
 8905OCT     C117809   3.989   7.142  22.063 -0.0282 -0.1033 -0.1156
 8905OCT     C217810   4.021   7.547  22.304 -0.0991  0.0980 -0.2738
 8906OCT     C117811   6.482  15.997   4.867 -0.0445  0.1789  0.0235
 8906OCT     C217812   6.881  16.175   4.656 -0.0829  0.0491 -0.0111
 8907OCT     C117813  21.936  18.590  21.231 -0.2401  0.0566  0.0093
 8907OCT     C217814  22.346  18.714  21.246 -0.1131 -0.0755 -0.1183
 8908OCT     C117815  19.820  13.782   1.413  0.2466  0.2794  0.3850
 8908OCT     C217816  19.928  13.343   1.520 -0.0212 -0.0087 -0.2529
 8909OCT     C117817  17.875  10.217  14.641 -0.2063 -0.1616  0.4111
 8909OCT     C217818  18.173   9.916  14.737  0.2868 -0.1962 -0.1425
 8910OCT     C117819  15.048  14.888   3.083 -0.3017  0.0199 -0.1933
 8910OCT     C217820  14.983  15.347   3.030  0.1656  0.2704 -0.1019
 8911OCT     C117821  15.265   2.208   0.920 -0.1778 -0.5053  0.1665
 8911OCT     C217822  15.157   1.992   1.305  0.1328 -0.1958  0.0827
 8912OCT     C117823  10.834   4.724   1.201 -0.2850  0.2128  0.0072
 8912OCT     C217824  10.735   4.959   0.817 -0.1470  0.1971  0.2221
 8913OCT     C117825  11.632   6.688  12.418 -0.0454  0.0569 -0.1194
 8913OCT     C217826  11.359   7.024  12.217 -0.0437  0.3251 -0.1790
 8914OCT     C117827  16.468  19.236  10.205  0.2502  0.1464 -0.1945
 8914OCT     C217828  16.142  18.957   9.992 -0.1417  0.0034  0.0536
 8915OCT     C117829  19.827  16.669  23.275  0.2048  0.1594  0.2961
 8915OCT     C217830  19.793  16.248  23.553  0.1758 -0.8434 -0.0399
 8916OCT     C117831   5.242   4.777  12.182  0.0280 -0.0995  0.0460
 8916OCT     C217832   5.027   5.002  12.537 -0.2278 -0.1756 -0.2832
 8917OCT     C117833  19.490  12.019   5.579 -0.0314  0.1379  0.0511
 8917OCT     C217834  19.526  12.478   5.605 -0.5596  0.3885 -0.0677
 8918OCT     C117835   1.120  16.356   0.787 -0.0300 -0.0955  0.3598
 8918OCT     C217836   1.401  16.408   1.168 -0.1774 -0.0899  0.0498
 8919OCT     C117837   2.214  21.812  18.899 -0.1872 -0.1234 -0.1381
 8919OCT     C217838   2.619  21.964  18.987  0.0179 -0.0036  0.1267
 8920OCT     C117839  23.043  20.830  16.278 -0.3599  0.1119  0.1773
 8920OCT     C217840  22.668  20.805  16.585 -0.4531  0.3656 -0.2748
 8921OCT     C117841  13.179   2.993   6.184  0.1286  0.3257 -0.2382
 8921OCT     C217842  13.457   2.656   6.022 -0.0809  0.3104  0.1705
 8922OCT     C117843   4.416  23.613  20.151  0.0645  0.1828  0.1043
 8922OCT     C217844   4.821  23.668  19.957  0.1054 -0.3804 -0.2446
 8923OCT     C117845  22.468   7.726  20.444 -0.3511 -0.1874  0.2873
 8923OCT     C217846  22.111   7.602  20.720  0.0656  0.1103  0.0728
 8924OCT     C117847   7.480  12.981   1.242  0.2228 -0.0992 -0.1322
 8924OCT     C217848   7.875  13.211   1.002 -0.4503  0.3719 -0.0137
 8925OCT     C117849   0.290  16.831  20.985 -0.2197 -0.2126  0.5037
 8925OCT     C217850   0.177  17.271  20.863  0.1203  0.2236 -0.1757
 8926OCT     C117851  16.201  18.268   3.916  0.1859  0.0053  0.2514
 8926OCT     C217852  16.551  18.141   4.247 -0.1817 -0.0572 -0.4606
 8927OCT     C117853  10.035   4.460  17.555  0.0566  0.2005 -0.3059
 8927OCT     C217854   9.605   4.249  17.483 -0.2406  0.0901  0.1816
 8928OCT     C117855  14.407  18.653   3.998  0.0459 -0.0961 -0.0319
 8928OCT     C217856  14.757  18.644   3.664 -0.2310  0.0096 -0.0344
 8929OCT     C117857  18.481  22.639   6.970 -0.0183 -0.0440 -0.2066
 8929OCT     C217858  18.397  22.886   6.609 -0.3810  0.1367 -0.0881
 8930OCT     C117859  11.940   3.509  21.937  0.0346 -0.0426  0.1373
 8930OCT     C217860  11.983   3.167  22.232 -0.5439 -0.0833 -0.1010
 8931OCT     C117861   4.257   5.658   2.880 -0.0120  0.0437  0.0920
 8931OCT     C217862   3.813   5.592   2.971  0.2707 -0.0789 -0.0809
 8932OCT     C117863  17.377  12.274   9.267 -0.0396  0.3232  0.0807
 8932OCT     C217864  17.804  12.297   9.102 -0.0118  0.1918 -0.1006
 8933OCT     C117865  11.977   2.508   5.747  0.0539 -0.2211 -0.2953
 8933OCT     C217866  12.254   2.497   5.371  0.1791 -0.2604  0.1651
 8934OCT     C117867  11.202   9.574  21.851 -0.1314  0.0430  0.0862
 8934OCT     C217868  11.001   9.547  21.426 -0.3106 -0.3402  0.2101
 8935OCT     C117869   4.150  21.043   2.464  0.0599  0.0730 -0.3843
 8935OCT     C217870   4.197  21.060   2.915  0.2085  0.0326  0.2848
 8936OCT     C117871   7.064  17.224  15.895 -0.2851 -0.0478 -0.5574
 8936OCT     C217872   6.717  17.185  15.581 -0.1219  0.2461 -0.3984
 8937OCT     C117873  11.044   3.918   5.532 -0.1497  0.3186 -0.0457
 8937OCT     C217874  10.919   3.655   5.876 -0.1537  0.1952  0.3633
 8938OCT     C117875   8.027   6.570  14.222  0.2379 -0.0457 -0.0644
 8938OCT     C217876   7.570   6.554  14.103  0.2967  0.1126 -0.0815
 8939OCT     C117877  19.402   9.254  14.580  0.1032 -0.1742 -0.0948
 8939OCT     C217878  19.611   9.198  14.233 -0.3356 -0.1631  0.0737
 8940OCT     C117879  23.076  15.495   1.064 -0.1508 -0.0066  0.1315
 8940OCT     C217880  23.125  15.653   1.538  0.1411 -0.1568 -0.0317
 8941OCT     C117881  20.167  10.527  12.271  0.0180  0.2053 -0.0470
 8941OCT     C217882  20.079  10.528  12.698  0.0915  0.2337  0.1894
 8942OCT     C117883  11.363   1.085  21.501 -0.5595 -0.0544  0.2593
 8942OCT     C217884  11.419   0.573  21.516  0.1587 -0.0803  0.0330
 8943OCT     C117885  18.065  18.892  18.064  0.0960 -0.3297 -0.3988
 8943OCT     C217886  17.910  18.735  17.618 -0.4092 -0.4638  0.0513
 8944OCT     C117887  11.103  18.246   7.494  0.2700 -0.1400  0.0007
 8944OCT     C217888  11.071  18.270   7.003 -0.3896 -0.0365 -0.1169
 8945OCT     C117889   6.921  13.910  22.697 -0.0156 -0.2466 -0.0975
 8945OCT     C217890   6.713  13.811  23.089  0.2444  0.2460 -0.2761
 8946OCT     C117891   1.847   9.266  16.585 -0.2539 -0.0869  0.0051
 8946OCT     C217892   2.238   9.293  16.390  0.1311 -0.1866 -0.2321
 8947OCT     C117893  16.561   9.106  10.661  0.3886  0.0319  0.1320
 8947OCT     C217894  16.335   9.535  10.663  0.1814 -0.2527 -0.0960
 8948OCT     C117895   2.525  15.074   9.661  0.0945  0.1110  0.2594
 8948OCT     C217896   2.936  14.997   9.855  0.0095 -0.1041 -0.1373
 8949OCT     C117897   6.044   7.256  15.516  0.0250  0.0766 -0.0405
 8949OCT     C217898   6.232   6.956  15.841 -0.0617 -0.1568  0.0364
 8950OCT     C117899  13.993   0.185   6.442 -0.0028 -0.0833  0.0520
 8950OCT     C217900  13.724  23.638   6.647 -0.0054  0.1725  0.2288
 8951OCT     C117901  19.190  19.195   3.210  0.1272 -0.0274  0.0324
 8951OCT     C217902  19.536  19.409   3.446  0.0657 -0.1316  0.0144
 8952OCT     C117903   3.131  14.643   3.579 -0.2234  0.2252 -0.0302
 8952OCT     C217904   3.267  15.052   3.395 -0.0752  0.2142  0.0281
 8953OCT     C117905   4.761  17.298  13.834 -0.1351  0.2010 -0.1518
 8953OCT     C217906   5.133  17.510  13.519 -0.1289 -0.3182  0.1931
 8954OCT     C117907   2.823   9.267   3.472  0.0620  0.1663  0.5071
 8954OCT     C217908   3.206   9.575   3.388  0.1260  0.2339 -0.0580
 8955OCT     C117909   2.671   4.269   5.456  0.0742 -0.0927 -0.1786
 8955OCT     C217910   2.386   4.358   5.145 -0.0698 -0.3414 -0.0437
 8956OCT     C117911  15.387  10.501  12.686  0.0268  0.0918  0.0519
 8956OCT     C217912  15.306  10.772  13.095 -0.1323 -0.3885 -0.2061
 8957OCT     C117913  13.329  16.473  18.547 -0.0324 -0.0837 -0.1018
 8957OCT     C217914  13.663  16.387  18.256 -0.1511 -0.0575 -0.0951
 8958OCT     C117915  21.877  12.105  21.251 -0.0113 -0.2888 -0.1642
 8958OCT     C217916  22.225  12.176  20.935 -0.1148 -0.0339  0.4495
 8959OCT     C117917  20.087   8.580  12.747 -0.1893 -0.0564 -0.0097
 8959OCT     C217918  19.943   8.923  12.922  0.0074  0.1894  0.0146
 8960OCT     C117919  16.312   4.173  18.952 -0.1001  0.1802  0.1193
 8960OCT     C217920  16.049   4.516  19.217 -0.2454  0.0826  0.3589
 8961OCT     C117921  13.980   3.082   5.324  0.3138 -0.0725  0.0812
 8961OCT     C217922  13.750   2.763   5.076 -0.0330  0.2241  0.2269
 8962OCT     C117923  19.448  11.031  21.947 -0.1277  0.0069  0.1929
 8962OCT     C217924  19.928  11.120  21.994  0.2900 -0.0985  0.1097
 8963OCT     C117925   2.833   3.404   0.708 -0.0034  0.1323  0.1930
 8963OCT     C217926   3.316   3.352   0.822 -0.4958 -0.0520  0.2234
 8964OCT     C117927  17.226  11.018   3.760 -0.0535 -0.0991  0.0780
 8964OCT     C217928  17.071  11.421   3.560 -0.2155  0.0680  0.1867
 8965OCT     C117929   4.930  16.630   3.160  0.1252  0.0445 -0.0425
 8965OCT     C217930   5.331  16.817   3.128 -0.0691  0.0903 -0.1671
 8966OCT     C117931   0.721  17.180   3.806  0.1685 -0.1189 -0.3467
 8966OCT     C217932   1.124  17.380   3.689  0.1077  0.1240  0.2319
 8967OCT     C117933  10.620  17.748   2.098  0.1166  0.2614 -0.3346
 8967OCT     C217934  10.875  17.895   1.751 -0.1053  0.1765  0.1562
 8968OCT     C117935  15.533  11.796  13.638 -0.3088  0.0753 -0.0433
 8968OCT     C217936  15.804  11.628  14.006 -0.1945  0.4561  0.1542
 8969OCT     C117937  18.364   4.886  16.896 -0.1385 -0.3514 -0.0984
 8969OCT     C217938  18.401   4.960  16.410 -0.1146 -0.3565  0.1112
 8970OCT     C117939  11.515   4.218  10.254 -0.4131 -0.0143  0.0652
 8970OCT     C217940  11.203   4.394  10.579  0.1526 -0.1639 -0.5537
 8971OCT     C117941  17.646   3.458  11.226 -0.1425 -0.1921  0.3222
 8971OCT     C217942  17.929   3.250  10.867  0.0248  0.3145  0.0595
 8972OCT     C117943   1.396   9.938  22.724 -0.1866  0.1042  0.0578
 8972OCT     C217944   1.303   9.509  22.718  0.1174 -0.3459 -0.2207
 8973OCT     C117945   5.239  20.885  19.643 -0.4074 -0.0176 -0.0706
 8973OCT     C217946   5.399  20.770  19.217 -0.1327  0.1853 -0.1467
 8974OCT     C117947   6.709  23.372   9.177  0.2013  0.2103  0.4030
 8974OCT     C217948   6.526  23.270   9.597 -0.4013  0.1856 -0.1106
 8975OCT     C117949  18.078   1.581  14.163  0.1462  0.1430 -0.0144
 8975OCT     C217950  17.841   1.896  13.887  0.3036 -0.1420  0.1207
 8976OCT     C117951   8.967  20.229   7.665 -0.0658 -0.2437 -0.1128
 8976OCT     C217952   8.651  20.339   7.989  0.1217  0.0475  0.0821
 8977OCT     C117953  15.896   1.501   9.367 -0.1344  0.1141  0.2694
 8977OCT     C217954  16.080   1.930   9.318 -0.0042 -0.3355 -0.0868
 8978OCT     C117955   7.783  15.801  23.421  0.5879 -0.1600 -0.3480
 8978OCT     C217956   7.823  15.627  22.970  0.0080  0.1476 -0.1415
 8979OCT     C117957   7.373   9.139  23.737 -0.0184  0.2597 -0.0354
 8979OCT     C217958   7.064   8.782  23.678 -0.1213 -0.0266 -0.2472
 8980OCT     C117959  19.453  20.067  22.833  0.0743 -0.2072 -0.2702
 8980OCT     C217960  19.738  20.059  23.189  0.0215  0.0326 -0.1276
 8981OCT     C117961  19.397   1.230   0.268  0.3506  0.1463  0.1409
 8981OCT     C217962  19.006   1.183  23.724  0.3669 -0.0811 -0.1738
 8982OCT     C117963   4.649   2.775  12.080 -0.1854  0.0715  0.0306
 8982OCT     C217964   5.014   2.449  12.026 -0.2504  0.4872  0.1374
 8983OCT     C117965   2.126   0.664   8.418 -0.0313 -0.1711 -0.2453
 8983OCT     C217966   2.268   0.895   8.032  0.3320 -0.0886 -0.0369
 8984OCT     C117967  12.561  20.257   1.816  0.1230 -0.2600 -0.0686
 8984OCT     C217968  12.705  19.979   1.481  0.0622  0.3166 -0.0972
 8985OCT     C117969   8.390   5.723   1.441  0.1749  0.1071  0.0611
 8985OCT     C217970   8.012   5.874   1.177  0.4891 -0.0528 -0.4203
 8986OCT     C117971  12.700   0.206  12.599  0.0614  0.1007 -0.2311
 8986OCT     C217972  12.817  23.502  12.471  0.3766 -0.1793 -0.2021
 8987OCT     C117973   1.433   3.645  15.086 -0.2960 -0.1951 -0.1447
 8987OCT     C217974   1.621   3.186  15.172 -0.2745 -0.0945  0.3663
 8988OCT     C117975   2.123   0.243   3.873  0.1622 -0.3957  0.2432
 8988OCT     C217976   2.447   0.431   4.169  0.2087 -0.0218  0.4422
 8989OCT     C117977  19.272  13.433   8.293  0.2682 -0.2501 -0.0442
 8989OCT     C217978  19.527  13.584   8.635  0.0814  0.0226 -0.1923
 8990OCT     C117979  16.160  20.405  11.350  0.1097  0.0783 -0.0820
 8990OCT     C217980  15.847  20.630  11.145  0.0448  0.4002  0.1412
 8991OCT     C117981  20.191  12.241   8.945 -0.0736 -0.0967  0.2478
 8991OCT     C217982  20.609  12.234   8.780 -0.4459  0.2487  0.3075
 8992OCT     C117983   4.344   7.214   8.904  0.0990  0.1236  0.0318
 8992OCT     C217984   4.426   7.662   8.812  0.0743 -0.1622 -0.2426
 8993OCT     C117985  10.370  16.607   8.708  0.1223 -0.3501 -0.0896
 8993OCT     C217986  10.104  16.778   8.371  0.1131  0.1062 -0.0664
 8994OCT     C117987  21.613  10.528  12.887 -0.1000 -0.1470 -0.0445
 8994OCT     C217988  21.592  10.057  12.655 -0.3332 -0.0668  0.0076
 8995OCT     C117989   0.721  18.045   5.735 -0.3167 -0.0447  0.2365
 8995OCT     C217990   0.542  17.608   5.881  0.0525 -0.0318 -0.2402
 8996OCT     C117991  11.317   6.110   2.601 -0.1501 -0.2551 -0.0458
 8996OCT     C217992  11.075   6.487   2.434 -0.2751  0.1737  0.0898
 8997OCT     C117993  13.233   3.851   5.199  0.1987  0.0596  0.3040
 8997OCT     C217994  13.107   3.640   5.602 -0.0052  0.1564  0.0882
 8998OCT     C117995  12.968   2.544   6.275 -0.2226  0.0298 -0.1051
 8998OCT     C217996  12.693   2.926   6.264  0.3988 -0.0487  0.2045
 8999OCT     C117997   9.032  20.666  19.290  0.2726  0.0420 -0.4665
 8999OCT     C217998   9.423  20.642  19.064  0.0466 -0.2439 -0.0286
 9000OCT     C117999  17.438  12.697   6.062 -0.0191 -0.2304 -0.2296
 9000OCT     C218000  17.554  13.141   5.988 -0.1429 -0.2457  0.2232
 9001OCT     C118001  18.211   7.318  13.586  0.2755 -0.2095 -0.1196
 9001OCT     C218002  17.755   7.382  13.525 -0.0388  0.1085  0.3432
 9002OCT     C118003   7.745  11.502   2.169 -0.1348  0.2042 -0.0929
 9002OCT     C218004   7.680  11.611   1.732  0.0096  0.0827 -0.0711
 9003OCT     C118005  13.711   7.044   5.491  0.0728  0.0309  0.2873
 9003OCT     C218006  13.790   7.452   5.469 -0.0819 -0.0734  0.2003
 9004OCT     C118007   3.195   4.332  18.593 -0.0893  0.0210  0.0627
 9004OCT     C218008   3.309   4.218  18.177  0.1697  0.3370 -0.1201
 9005OCT     C118009   6.010   7.817  13.495  0.0370  0.0384 -0.1130
 9005OCT     C218010   5.860   7.844  13.011 -0.1083 -0.1016  0.0949
 9006OCT     C118011   7.389  21.071  15.380 -0.0462  0.0192 -0.0589
 9006OCT     C218012   7.644  20.721  15.575 -0.2946 -0.1100  0.0599
 9007OCT     C118013  19.909  15.027   8.195  0.4196 -0.1270 -0.0121
 9007OCT     C218014  19.741  15.414   7.960 -0.0072  0.2522  0.2716
 9008OCT     C118015  14.536  10.902  22.875 -0.1640  0.2022 -0.0212
 9008OCT     C218016  14.792  10.837  22.467 -0.0994 -0.0433  0.0806
 9009OCT     C118017   8.640   8.901  10.451  0.0925  0.1328  0.0350
 9009OCT     C218018   9.083   8.792  10.404 -0.2262 -0.2710  0.1164
 9010OCT     C118019  21.049   5.728  11.323  0.1296  0.2075  0.0354
 9010OCT     C218020  20.782   5.921  11.047  0.1685  0.3254 -0.4988
 9011OCT     C118021   6.060  11.422  14.159  0.1957  0.0036  0.2628
 9011OCT     C218022   6.284  11.056  14.019  0.1247 -0.1119  0.0216
 9012OCT     C118023  22.285   9.822   8.059  0.3616 -0.0353 -0.0886
 9012OCT     C218024  22.266   9.506   7.663  0.1812 -0.0477  0.0022
 9013OCT     C118025   8.765  11.916   4.501  0.0777 -0.0683  0.1688
 9013OCT     C218026   8.474  11.531   4.456 -0.0160 -0.2424  0.0466
 9014OCT     C118027  10.145   2.319   1.480  0.0079  0.2682  0.2099
 9014OCT     C218028   9.868   2.232   1.814 -0.0635  0.1523 -0.2413
 9015OCT     C118029  10.674   7.197  18.066  0.2932  0.1044 -0.0983
 9015OCT     C218030  10.606   6.909  18.343  0.0194  0.0313 -0.0575
 9016OCT     C118031   8.507  17.290  20.031 -0.3002  0.0410 -0.2782
 9016OCT     C218032   8.352  17.144  19.615 -0.1861 -0.0567  0.2905
 9017OCT     C118033   8.453  21.199  22.653 -0.0902 -0.3502  0.0977
 9017OCT     C218034   8.135  20.856  22.608 -0.1506  0.1569 -0.2078
 9018OCT     C118035  13.137  15.454   8.653  0.0917 -0.3979  0.0707
 9018OCT     C218036  12.689  15.550   8.407  0.1843 -0.5491  0.1575
 9019OCT     C118037  10.096  11.080  13.855 -0.0464 -0.1780  0.0446
 9019OCT     C218038  10.462  10.824  13.904  0.4101  0.1755 -0.1191
 9020OCT     C118039  21.352  10.162   0.864  0.2183  0.1834 -0.0542
 9020OCT     C218040  21.211  10.531   0.652  0.0633  0.0608 -0.0481
 9021OCT     C118041  14.819  18.064  19.755  0.3071  0.2568 -0.0591
 9021OCT     C218042  14.554  18.200  20.044 -0.3223  0.1958 -0.1009
 9022OCT     C118043  12.480  20.753  15.730  0.5374 -0.1173  0.1107
 9022OCT     C218044  12.408  20.922  15.239 -0.0521 -0.2832 -0.2366
 9023OCT     C118045  23.048  17.326  11.983 -0.3877  0.0586 -0.1397
 9023OCT     C218046  22.983  17.429  11.522  0.1604 -0.2014  0.1792
 9024OCT     C118047   3.503  18.585  10.885  0.4859  0.2169 -0.3023
 9024OCT     C218048   3.388  18.376  10.521 -0.0560 -0.0052  0.1583
 9025OCT     C118049   1.091  17.149  22.768 -0.3810 -0.1600 -0.0146
 9025OCT     C218050   0.905  17.081  23.172 -0.0450 -0.0742 -0.2739
 9026OCT     C118051  11.794   0.815  11.500  0.0197  0.0141 -0.0507
 9026OCT     C218052  11.738   0.422  11.731 -0.0910  0.3516  0.2923
 9027OCT     C118053  20.201  18.466  12.374 -0.0530 -0.2200  0.3537
 9027OCT     C218054  19.899  18.750  12.115 -0.0237  0.1280 -0.2162
 9028OCT     C118055  15.576  23.239  14.276 -0.0648 -0.3889 -0.0983
 9028OCT     C218056  15.349  23.306  13.865  0.2355 -0.4887  0.0222
 9029OCT     C118057  21.089   6.437   2.044  0.0371  0.1609  0.3518
 9029OCT     C218058  21.525   6.410   1.876 -0.2055 -0.2977 -0.3372
 9030OCT     C118059  15.170   4.687  15.101  0.0782  0.3097 -0.5176
 9030OCT     C218060  15.225   5.045  14.767 -0.1088  0.4189  0.0734
 9031OCT     C118061  18.547  15.232  21.186 -0.5124 -0.0636  0.1389
 9031OCT     C218062  18.218  15.202  21.482 -0.0394  0.0030 -0.1221
 9032OCT     C118063   7.294  12.197  19.109 -0.0201 -0.0859 -0.0120
 9032OCT     C218064   7.139  12.589  18.863  0.0993 -0.1283 -0.0224
 9033OCT     C118065   3.136  13.109  23.467  0.3538 -0.2873 -0.1168
 9033OCT     C218066   3.066  13.428   0.084  0.2146 -0.2759  0.0734
 9034OCT     C118067  20.070  13.543  17.636 -0.2676  0.0563  0.2569
 9034OCT     C218068  20.143  13.113  17.672  0.2314  0.2685 -0.1179
 9035OCT     C118069  10.784   4.166  19.948 -0.1623  0.2505 -0.3457
 9035OCT     C218070  10.556   4.411  19.645  0.1668 -0.1315  0.1212
 9036OCT     C118071  20.426   5.534  22.683 -0.1410 -0.0863 -0.3135
 9036OCT     C218072  20.733   5.448  22.333  0.2032 -0.5392  0.1524
 9037OCT     C118073  20.893   5.021  21.241 -0.0196 -0.2039  0.0467
 9037OCT     C218074  21.008   5.453  21.276 -0.2232  0.0604  0.2783
 9038OCT     C118075   1.501  15.858   7.010  0.3907 -0.2461  0.1409
 9038OCT     C218076   1.128  15.684   6.722 -0.0096  0.2425 -0.1171
 9039OCT     C118077   2.890  15.447  10.548 -0.2221  0.4227  0.1392
 9039OCT     C218078   3.250  15.694  10.780 -0.2453  0.1153  0.0201
 9040OCT     C118079  23.440  13.354  21.747 -0.0481 -0.2451 -0.0213
 9040OCT     C218080  23.023  13.226  21.571 -0.3435 -0.0705  0.1096
 9041OCT     C118081   6.975  12.529  22.760  0.0873  0.1769  0.0832
 9041OCT     C218082   6.559  12.420  22.807 -0.0095  0.0048 -0.1543
 9042OCT     C118083   9.649   9.240  18.825  0.0249  0.1705 -0.2322
 9042OCT     C218084   9.293   9.557  18.687 -0.1013  0.0167  0.7289
 9043OCT     C118085  22.396   8.042   5.425 -0.0941 -0.0750 -0.1252
 9043OCT     C218086  22.064   7.771   5.536 -0.4045  0.2169 -0.0021
 9044OCT     C118087   1.977  17.177  16.285 -0.2559 -0.0887  0.1192
 9044OCT     C218088   2.208  17.507  16.600  0.1436  0.0508 -0.0101
 9045OCT     C118089  16.993  19.072  12.181 -0.2139 -0.4015 -0.0084
 9045OCT     C218090  17.104  18.956  12.621  0.0422  0.0697 -0.1134
 9046OCT     C118091  12.558   1.089  11.070  0.0086  0.0140  0.3915
 9046OCT     C218092  12.359   1.183  11.482 -0.1094 -0.3896 -0.1864
 9047OCT     C118093   4.504   8.598   1.786  0.0078  0.0905  0.1176
 9047OCT     C218094   4.815   8.802   1.451  0.1067 -0.5025  0.0890
 9048OCT     C118095   9.451  13.063  14.879 -0.1411 -0.1928  0.0991
 9048OCT     C218096   9.072  12.773  14.777  0.0937  0.1005 -0.0664
 9049OCT     C118097   3.868  14.152  19.649 -0.2938 -0.4405  0.3702
 9049OCT     C218098   3.555  13.853  19.680  0.2753 -0.0632 -0.1901
 9050OCT     C118099  16.098  18.207  12.565 -0.2652 -0.1632 -0.2765
 9050OCT     C218100  15.691  18.062  12.784  0.0288 -0.1272  0.0381
 9051OCT     C118101  14.045   9.937  21.389 -0.0947 -0.0844  0.0470
 9051OCT     C218102  14.200  10.176  21.726  0.2214  0.2085  0.1260
 9052OCT     C118103  17.796   0.967   1.331 -0.1092 -0.3055  0.0252
 9052OCT     C218104  17.831   1.380   1.111  0.3882 -0.2329  0.0846
 9053OCT     C118105  17.834  22.795  17.094 -0.1635  0.4585  0.2580
 9053OCT     C218106  17.788  22.496  16.783 -0.2100 -0.1455 -0.2095
 9054OCT     C118107  19.926   3.775  16.249  0.0515  0.1191  0.0214
 9054OCT     C218108  19.483   3.773  16.232 -0.1840  0.0264  0.6469
 9055OCT     C118109   5.422  22.189  11.106  0.1563  0.1648 -0.0714
 9055OCT     C218110   5.717  21.999  11.367 -0.1607  0.2634 -0.1311
 9056OCT     C118111   9.741   0.812  18.257  0.1069  0.1194 -0.0207
 9056OCT     C218112   9.798   0.680  17.825  0.0981 -0.0008  0.4829
 9057OCT     C118113  18.225  10.016   3.848 -0.2490 -0.2255 -0.1528
 9057OCT     C218114  17.901   9.808   4.081  0.3846 -0.0256  0.0645
 9058OCT     C118115  16.891   2.911  11.202 -0.0872 -0.3085  0.1636
 9058OCT     C218116  17.328   3.064  11.235 -0.5767 -0.4517 -0.4306
 9059OCT     C118117  16.929  15.382  15.914  0.2537 -0.3969 -0.0912
 9059OCT     C218118  17.142  15.120  15.573 -0.2927 -0.0690 -0.1442
 9060OCT     C118119  10.902  19.312  17.318 -0.3092 -0.1209  0.0651
 9060OCT     C218120  10.764  19.628  17.634 -0.0818  0.1081  0.1745
 9061OCT     C118121  20.105  13.945  20.962 -0.1525 -0.0274 -0.2254
 9061OCT     C218122  19.862  13.557  21.089 -0.0077 -0.1971  0.2463
 9062OCT     C118123   7.723   0.816  13.217 -0.0063 -0.0360  0.0879
 9062OCT     C218124   7.951   1.092  12.931  0.1443 -0.1477  0.0296
 9063OCT     C118125   7.567   6.183  18.844  0.1367  0.0314 -0.2756
 9063OCT     C218126   7.699   6.217  19.293  0.0027  0.1579 -0.1953
 9064OCT     C118127  20.484  13.852   4.075 -0.0422  0.0528 -0.2190
 9064OCT     C218128  20.961  14.000   4.083  0.2392  0.1562 -0.3888
 9065OCT     C118129   5.201  13.211  20.490  0.0869  0.1893  0.0428
 9065OCT     C218130   5.538  13.507  20.314 -0.3038  0.0480  0.0803
 9066OCT     C118131   9.002  11.275  11.002  0.1198  0.2197 -0.0577
 9066OCT     C218132   8.538  11.282  11.027 -0.0034 -0.1543  0.0190
 9067OCT     C118133   2.946  19.354   2.861  0.2449  0.0657 -0.1396
 9067OCT     C218134   2.857  18.956   2.647  0.0896 -0.5641  0.0652
 9068OCT     C118135   6.794  14.426  23.340  0.1028 -0.1165 -0.2612
 9068OCT     C218136   7.106  14.179  23.141  0.1536 -0.3006 -0.1409
 9069OCT     C118137   8.215  16.977   0.740 -0.1301 -0.0619 -0.0014
 9069OCT     C218138   7.929  17.265   0.459 -0.0454 -0.0061 -0.0183
 9070OCT     C118139   8.610  11.202  20.504  0.2096  0.1054  0.0779
 9070OCT     C218140   8.620  10.864  20.835  0.1918  0.1292  0.3041
 9071OCT     C118141  19.237  13.146  17.641  0.0630 -0.0363 -0.1408
 9071OCT     C218142  19.668  13.053  17.648  0.2193 -0.2188 -0.1096
 9072OCT     C118143   5.146   3.764   7.812 -0.2316  0.1656 -0.1309
 9072OCT     C218144   5.097   3.725   7.405 -0.3359  0.1398  0.2924
 9073OCT     C118145  20.433   8.502  16.370 -0.1924 -0.0096  0.1735
 9073OCT     C218146  20.391   8.498  15.911 -0.3337 -0.0315 -0.1616
 9074OCT     C118147  12.763   2.971   2.457 -0.3255  0.2023 -0.0135
 9074OCT     C218148  13.138   2.642   2.332 -0.2252  0.3750  0.2110
 9075OCT     C118149   9.456  20.836  17.108 -0.0900  0.0508 -0.0760
 9075OCT     C218150   9.904  20.765  17.245  0.1209  0.1738 -0.0798
 9076OCT     C118151   1.363   1.173  15.456 -0.3455 -0.0062  0.3909
 9076OCT     C218152   1.553   0.904  15.812 -0.3752  0.2392 -0.4103
 9077OCT     C118153   3.319   6.155  12.768  0.1302 -0.0356  0.2761
 9077OCT     C218154   3.423   6.596  12.568  0.6115 -0.0551  0.0056
 9078OCT     C118155  23.701  15.495  13.182  0.3447  0.1937 -0.2642
 9078OCT     C218156   0.068  15.661  13.594  0.0025  0.2562  0.2571
 9079OCT     C118157   9.090  11.517   2.128  0.0793  0.4129  0.0622
 9079OCT     C218158   8.934  11.773   2.457  0.0161 -0.1155  0.0614
 9080OCT     C118159  14.865   6.487  13.348  0.2339  0.0338 -0.1536
 9080OCT     C218160  15.044   6.476  12.896  0.0236 -0.2426 -0.0512
 9081OCT     C118161   1.491  17.611   7.609  0.0000 -0.3025 -0.0727
 9081OCT     C218162   1.286  17.247   7.832  0.5357  0.0047 -0.2542
 9082OCT     C118163  13.426  15.854  23.604  0.1336 -0.4210 -0.1493
 9082OCT     C218164  13.350  15.596   0.236  0.0078  0.1342  0.1512
 9083OCT     C118165   8.480   1.674   0.333  0.0864 -0.5191  0.3365
 9083OCT     C218166   8.804   1.735  23.691 -0.2949  0.2930 -0.0600
 9084OCT     C118167  20.383  12.629   4.903 -0.3811  0.0767 -0.1146
 9084OCT     C218168  20.201  13.107   4.773 -0.0862 -0.0489  0.2489
 9085OCT     C118169   3.022   3.265  19.440 -0.0744  0.0021 -0.0074
 9085OCT     C218170   3.144   3.030  19.808  0.1515  0.0589  0.1256
 9086OCT     C118171   9.878  10.594  20.217  0.1087 -0.5072 -0.0286
 9086OCT     C218172  10.318  10.529  20.324  0.2117  0.0109  0.1368
 9087OCT     C118173   6.276  18.774  19.811  0.3173  0.2128 -0.0284
 9087OCT     C218174   5.852  18.617  19.769 -0.2171  0.1340 -0.0330
 9088OCT     C118175  10.072  21.271   7.361 -0.0275 -0.2091 -0.4467
 9088OCT     C218176  10.114  20.788   7.289 -0.1156  0.0805  0.1394
 9089OCT     C118177  21.397   8.359  18.189  0.1292  0.1132  0.1489
 9089OCT     C218178  21.584   8.619  17.829  0.0180 -0.0650 -0.1774
 9090OCT     C118179  16.717  22.123   2.836 -0.3272  0.2033 -0.0884
 9090OCT     C218180  16.692  21.631   2.764  0.1620 -0.1558  0.4131
 9091OCT     C118181  16.782  19.687   1.166  0.3932 -0.1955 -0.1413
 9091OCT     C218182  16.640  19.847   0.748  0.1724  0.0246 -0.4142
 9092OCT     C118183   6.941  21.624  14.390 -0.1823  0.3032  0.0244
 9092OCT     C218184   6.642  21.869  14.152  0.1112 -0.0813 -0.3312
 9093OCT     C118185   8.924  14.982  10.802 -0.0120 -0.1194  0.0520
 9093OCT     C218186   8.786  14.714  11.156 -0.3201  0.0649  0.5000
 9094OCT     C118187  13.581  20.907  18.411 -0.0794 -0.4319 -0.0440
 9094OCT     C218188  13.608  20.438  18.420  0.4054 -0.2954  0.0888
 9095OCT     C118189  22.355   6.061   4.161 -0.3318  0.1814 -0.3188
 9095OCT     C218190  22.625   6.276   4.460 -0.0454  0.0616 -0.4497
 9096OCT     C118191  12.091  17.124  16.019  0.2764 -0.2694 -0.4027
 9096OCT     C218192  12.015  17.444  16.320 -0.4151 -0.2598  0.2965
 9097OCT     C118193   2.787  15.870   4.893 -0.0120  0.1706 -0.0668
 9097OCT     C218194   3.094  16.223   4.899 -0.2958 -0.0138  0.1852
 9098OCT     C118195  17.569   6.784  14.169  0.3548  0.0675 -0.1489
 9098OCT     C218196  17.748   6.556  13.808 -0.2079 -0.2274  0.3676
 9099OCT     C118197  20.208   5.345   1.186 -0.0211  0.1061  0.0024
 9099OCT     C218198  20.016   5.763   1.151  0.0226  0.2924  0.1909
 9100OCT     C118199  18.479  22.616   3.498 -0.2900  0.4128  0.2607
 9100OCT     C218200  18.791  22.347   3.656  0.1662  0.0410  0.0142
 9101OCT     C118201   7.091   0.233  15.017 -0.2089 -0.1726 -0.0073
 9101OCT     C218202   7.143   0.380  14.611 -0.0143 -0.1428 -0.2849
 9102OCT     C118203  15.593   9.513  22.927 -0.4331  0.0377  0.1296
 9102OCT     C218204  15.215   9.308  22.794  0.1999  0.0955 -0.1239
 9103OCT     C118205   1.077   6.045   3.901  0.0346  0.0101 -0.0178
 9103OCT     C218206   1.248   6.309   4.275 -0.1686  0.2951 -0.0216
 9104OCT     C118207  22.917  21.363   1.823 -0.3451 -0.0138 -0.1036
 9104OCT     C218208  22.450  21.359   2.053 -0.0250 -0.2361  0.0635
 9105OCT     C118209  17.264   6.978  23.166 -0.0928 -0.2553 -0.3212
 9105OCT     C218210  17.716   6.835  23.247  0.1557 -0.1132 -0.3917
 9106OCT     C118211   2.780  20.627  20.167  0.2430  0.0364  0.0127
 9106OCT     C218212   2.824  20.799  19.732 -0.3189 -0.2179  0.0775
 9107OCT     C118213   0.801  22.474  21.767 -0.1537 -0.1031 -0.3608
 9107OCT     C218214   0.363  22.298  21.932 -0.1544 -0.0616  0.4559
 9108OCT     C118215  14.234   8.152   9.794  0.0875  0.0557  0.1411
 9108OCT     C218216  13.984   7.845  10.010  0.3626  0.1302 -0.3338
 9109OCT     C118217   7.790  10.526  13.120 -0.2834  0.0342  0.0430
 9109OCT     C218218   7.684  10.517  12.653 -0.4362  0.1480  0.1585
 9110OCT     C118219  21.331   4.950   4.437  0.0529 -0.0189  0.0004
 9110OCT     C218220  21.119   5.402   4.463 -0.1079 -0.3122 -0.0899
 9111OCT     C118221   4.730  18.811  21.999 -0.0639 -0.3277 -0.4590
 9111OCT     C218222   5.033  18.468  22.097  0.3177 -0.1527 -0.0535
 9112OCT     C118223  13.378  13.260  20.369  0.0708  0.4634 -0.0813
 9112OCT     C218224  13.506  13.200  20.837  0.0135 -0.0707 -0.0387
 9113OCT     C118225   6.531   0.711   4.591 -0.0195 -0.3067  0.0663
 9113OCT     C218226   6.625   0.582   5.009 -0.0694 -0.3101  0.2342
 9114OCT     C118227  15.561  16.424   1.201 -0.2060 -0.0206 -0.0556
 9114OCT     C218228  15.152  16.283   1.040 -0.3379 -0.0445 -0.3166
 9115OCT     C118229  18.883  11.197   7.898 -0.3784  0.0678 -0.0381
 9115OCT     C218230  18.553  11.073   8.230 -0.0211  0.2469  0.1239
 9116OCT     C118231   7.078  11.282   1.053 -0.1334  0.1962  0.3555
 9116OCT     C218232   7.049  10.930   1.435  0.1888  0.0153 -0.0104
 9117OCT     C118233   0.309   9.766   5.980 -0.1467 -0.1967 -0.3914
 9117OCT     C218234   0.083   9.729   6.368  0.1695 -0.2011  0.0666
 9118OCT     C118235  23.508  17.498  15.220  0.3507 -0.2037  0.4360
 9118OCT     C218236   0.108  17.511  15.507  0.3127 -0.1898 -0.1697
 9119OCT     C118237   4.472  16.191   0.197 -0.0132  0.0550 -0.1607
 9119OCT     C218238   4.566  16.137  23.506 -0.5647 -0.1564  0.1938
 9120OCT     C118239   0.519  18.904   7.142 -0.2929 -0.2315 -0.1031
 9120OCT     C218240   0.813  19.230   6.927 -0.1887  0.3228 -0.0673
 9121OCT     C118241  10.315  11.672   4.456  0.2625  0.0599  0.1871
 9121OCT     C218242  10.216  11.855   4.036  0.0720 -0.2242  0.2386
 9122OCT     C118243   7.482   6.970  11.409 -0.1244 -0.0881 -0.2633
 9122OCT     C218244   7.537   7.389  11.520  0.0727 -0.1825  0.0193
 9123OCT     C118245   5.520  19.720  22.766 -0.3632  0.2836  0.2376
 9123OCT     C218246   5.558  20.167  22.681 -0.1145 -0.0410 -0.1901
 9124OCT     C118247   2.926   4.536   5.745 -0.3908  0.0194  0.1913
 9124OCT     C218248   3.183   4.889   5.906  0.1623 -0.2275  0.0007
 9125OCT     C118249  10.001  11.608  12.711  0.0230  0.1114  0.2260
 9125OCT     C218250   9.701  11.717  12.398  0.4917 -0.2435 -0.3857
 9126OCT     C118251  18.773   7.163   1.541  0.1169 -0.1566  0.2407
 9126OCT     C218252  19.243   7.227   1.658  0.2901  0.0573  0.4840
 9127OCT     C118253   6.713  16.425  20.719 -0.0056 -0.1773 -0.2123
 9127OCT     C218254   6.366  16.316  21.010 -0.1599 -0.1464 -0.1014
 9128OCT     C118255   6.297  21.783  18.252  0.0225  0.4500  0.0528
 9128OCT     C218256   6.756  21.802  18.487 -0.2603 -0.7112  0.1868
 9129OCT     C118257   2.759  21.554   9.361  0.0339 -0.0259 -0.2320
 9129OCT     C218258   2.369  21.689   9.588  0.3976 -0.2119  0.1763
 9130OCT     C118259  12.784  20.413  14.241 -0.0370  0.2517  0.2932
 9130OCT     C218260  12.888  20.718  13.956  0.2600  0.2410  0.0870
 9131OCT     C118261  19.244  22.717  16.673 -0.0868  0.1183  0.0215
 9131OCT     C218262  19.199  22.986  16.297 -0.1766  0.4371  0.1490
 9132OCT     C118263  13.923  14.476   6.162 -0.1302  0.0310  0.5245
 9132OCT     C218264  13.886  14.971   6.096 -0.1342 -0.2201 -0.1243
 9133OCT     C118265  14.515  16.743   8.568  0.5026 -0.2779  0.1210
 9133OCT     C218266  14.689  17.176   8.670 -0.0663  0.0704  0.1036
 9134OCT     C118267   8.938  15.916   1.515  0.0338 -0.0361 -0.1814
 9134OCT     C218268   8.796  16.354   1.778 -0.0202  0.1410  0.1544
 9135OCT     C118269   5.384  22.654   1.697 -0.2786 -0.0140  0.2711
 9135OCT     C218270   5.745  22.890   1.819  0.2257  0.1218  0.0250
 9136OCT     C118271   7.404   6.447  11.231  0.1515 -0.3014 -0.1336
 9136OCT     C218272   7.328   6.757  10.886 -0.3304  0.0642 -0.0851
 9137OCT     C118273  17.069   0.713  10.867 -0.0318 -0.2221 -0.3862
 9137OCT     C218274  16.988   0.248  11.053 -0.1648  0.1400 -0.1439
 9138OCT     C118275   4.412   7.285   9.769 -0.0933  0.1106  0.2817
 9138OCT     C218276   4.308   7.072   9.378  0.0449  0.3728 -0.0099
 9139OCT     C118277   3.392  20.500   7.582  0.1775 -0.2088  0.0855
 9139OCT     C218278   3.266  20.244   7.232 -0.0121 -0.0060  0.1222
 9140OCT     C118279   8.425  14.236   0.274  0.3887  0.3219  0.2386
 9140OCT     C218280   8.409  14.091   0.691 -0.0988  0.1096  0.0110
 9141OCT     C118281  16.205   5.913   4.964 -0.1446  0.4203 -0.0277
 9141OCT     C218282  16.007   6.329   4.959 -0.3115  0.1918  0.0345
 9142OCT     C118283   2.242  22.921  23.143 -0.3638  0.0954 -0.0445
 9142OCT     C218284   2.659  23.023  22.923  0.2305 -0.2572 -0.1754
 9143OCT     C118285  18.978   0.966   7.783  0.0351 -0.2064 -0.0276
 9143OCT     C218286  18.900   0.597   7.454  0.2327  0.0439 -0.1890
 9144OCT     C118287  11.951  21.491  17.413  0.2296 -0.0090  0.3794
 9144OCT     C218288  12.082  21.853  17.149 -0.1109  0.3432 -0.1788
 9145OCT     C118289   2.155   5.130   6.552 -0.0168  0.3274 -0.1900
 9145OCT     C218290   2.259   5.330   6.957 -0.1808  0.3617 -0.1713
 9146OCT     C118291  21.332  18.496   8.860 -0.5245 -0.3132  0.1665
 9146OCT     C218292  21.367  18.773   8.487 -0.2088 -0.0495  0.0155
 9147OCT     C118293  11.822   6.835  21.055  0.6973  0.0535  0.1876
 9147OCT     C218294  11.661   7.228  21.123 -0.1033  0.1673 -0.2862
 9148OCT     C118295   6.380  11.136  20.720  0.5655  0.0148  0.1911
 9148OCT     C218296   6.715  11.449  20.853  0.1396  0.1767 -0.2224
 9149OCT     C118297  19.297  21.653  16.287  0.0076  0.0658 -0.2023
 9149OCT     C218298  19.504  22.004  16.112 -0.2971 -0.0277  0.2692
 9150OCT     C118299  18.662  20.654   4.399 -0.0432  0.2721 -0.4983
 9150OCT     C218300  18.448  20.873   4.070  0.2841 -0.1055  0.1329
 9151OCT     C118301  22.355   8.679   0.231  0.3920  0.3501 -0.3193
 9151OCT     C218302  21.955   8.603   0.051 -0.4112  0.0534  0.0821
 9152OCT     C118303  18.955   5.260  17.078  0.1098 -0.1486 -0.0341
 9152OCT     C218304  19.248   5.579  16.837  0.2212  0.0710 -0.1101
 9153OCT     C118305   9.973  20.131  13.464  0.4185  0.0456 -0.0549
 9153OCT     C218306   9.969  19.725  13.216 -0.0208 -0.0792 -0.4283
 9154OCT     C118307  17.429   5.778   7.411  0.2313 -0.1781  0.0035
 9154OCT     C218308  17.607   5.345   7.537 -0.1828  0.0318 -0.1293
 9155OCT     C118309   9.296  21.179  12.572  0.1983  0.0544  0.2821
 9155OCT     C218310   9.096  21.626  12.497 -0.4776  0.0755 -0.4836
 9156OCT     C118311  22.574   3.696  12.832  0.1446  0.2562 -0.0244
 9156OCT     C218312  22.383   4.081  13.014  0.0091  0.0272  0.0225
 9157OCT     C118313  15.241  17.397  22.570  0.1009 -0.0400  0.0451
 9157OCT     C218314  15.068  17.647  22.223 -0.1159  0.0751  0.3984
 9158OCT     C118315  17.531  20.901  20.960  0.0626  0.3354  0.2991
 9158OCT     C218316  17.197  21.068  20.640  0.3436 -0.1933 -0.0905
 9159OCT     C118317  14.832  14.744   8.852  0.1178  0.0504 -0.2863
 9159OCT     C218318  14.661  14.952   9.236 -0.0396  0.1408  0.0167
 9160OCT     C118319   2.333   6.333  12.077  0.0684 -0.4237 -0.0222
 9160OCT     C218320   1.928   6.499  11.913 -0.2905  0.1640  0.0506
 9161OCT     C118321  11.279  22.954  17.672  0.1949  0.2245  0.0571
 9161OCT     C218322  11.218  22.762  17.271  0.2356  0.0989  0.2416
 9162OCT     C118323  20.308  16.127   1.427  0.1104  0.1103  0.1723
 9162OCT     C218324  19.828  16.167   1.446  0.2727 -0.0139  0.0042
 9163OCT     C118325  20.587  10.199  20.204 -0.0104  0.0016 -0.0116
 9163OCT     C218326  20.164  10.076  20.214 -0.0657 -0.2994  0.2581
 9164OCT     C118327  19.338  18.308  17.811  0.0258  0.0126  0.0594
 9164OCT     C218328  19.713  18.593  17.739 -0.2258 -0.2112 -0.3584
 9165OCT     C118329   9.831   4.150   5.091  0.0606  0.0117 -0.2896
 9165OCT     C218330   9.579   4.159   4.703 -0.0033  0.0127 -0.5056
 9166OCT     C118331  22.261  13.451  16.395  0.1354  0.0187 -0.0984
 9166OCT     C218332  21.910  13.791  16.547  0.0914  0.0854  0.3848
 9167OCT     C118333   9.498  18.280  23.115 -0.3168 -0.2133 -0.3437
 9167OCT     C218334   9.634  18.679  22.947  0.0318  0.0534 -0.1215
 9168OCT     C118335  11.612   6.368  22.747  0.0422  0.2316  0.5240
 9168OCT     C218336  12.035   6.608  22.932  0.1651  0.1819  0.3537
 9169OCT     C118337   6.569  19.126  20.054 -0.0763  0.1386  0.0026
 9169OCT     C218338   7.035  19.114  19.898 -0.1825 -0.0334  0.3128
 9170OCT     C118339   6.199   9.634   1.622 -0.0542 -0.2899 -0.0671
 9170OCT     C218340   5.739   9.746   1.577  0.3797 -0.2020 -0.0158
 9171OCT     C118341  20.298  14.147  10.197 -0.0892  0.5011  0.0221
 9171OCT     C218342  20.214  13.671  10.295  0.2215  0.0211 -0.1592
 9172OCT     C118343   1.959   2.089   8.610 -0.3694  0.5694  0.0982
 9172OCT     C218344   1.607   2.336   8.330  0.4172 -0.2028 -0.0314
 9173OCT     C118345  18.018  22.994  10.957  0.4775  0.0955  0.0092
 9173OCT     C218346  17.901  23.045  10.509  0.1757  0.1375 -0.0271
 9174OCT     C118347  13.985  15.104  18.580 -0.1475 -0.2017 -0.2171
 9174OCT     C218348  13.659  14.961  18.936 -0.0677 -0.1482  0.1622
 9175OCT     C118349   9.028  18.065   1.420  0.1484  0.0947 -0.0875
 9175OCT     C218350   8.745  18.516   1.382 -0.0484 -0.2929 -0.0501
 9176OCT     C118351   7.861   9.109   7.501 -0.1677 -0.3771 -0.1532
 9176OCT     C218352   8.198   9.210   7.217  0.0660  0.0069 -0.1942
 9177OCT     C118353  21.580  15.385  19.556  0.0698  0.0864  0.1915
 9177OCT     C218354  22.041  15.374  19.480 -0.1827 -0.1500 -0.1548
 9178OCT     C118355   6.572   1.337  20.164 -0.1847  0.2478 -0.1856
 9178OCT     C218356   6.692   1.674  19.890  0.0993 -0.0309 -0.0130
 9179OCT     C118357   1.116   0.324  18.526  0.1523  0.2341  0.1672
 9179OCT     C218358   1.612   0.282  18.617  0.2571 -0.2126 -0.2385
 9180OCT     C118359  21.583  21.363  14.975 -0.2020  0.0561 -0.1691
 9180OCT     C218360  21.863  21.022  14.829  0.1572 -0.1218  0.1864
 9181OCT     C118361  10.939   6.380  19.463  0.3361  0.2528  0.1909
 9181OCT     C218362  11.373   6.508  19.221  0.3032  0.2645 -0.1812
 9182OCT     C118363  19.253  20.921  12.261 -0.1085 -0.1141  0.0882
 9182OCT     C218364  19.527  21.261  12.061  0.0540  0.0492 -0.1695
 9183OCT     C118365  23.054  14.512  19.842  0.1773 -0.1808 -0.0925
 9183OCT     C218366  23.344  14.253  19.527 -0.3765 -0.2244  0.5684
 9184OCT     C118367  21.553  15.326   0.068 -0.3717 -0.1876  0.2454
 9184OCT     C218368  21.354  15.412   0.444  0.0378 -0.2678 -0.0098
 9185OCT     C118369  17.795  15.847   6.646 -0.2814 -0.0533  0.1604
 9185OCT     C218370  17.631  15.419   6.749  0.2283 -0.0375 -0.1175
 9186OCT     C118371  18.470   4.300   4.932  0.0267 -0.1018  0.4630
 9186OCT     C218372  18.663   4.595   5.201  0.4112 -0.3384 -0.3294
 9187OCT     C118373   7.135  11.372   1.575 -0.0371  0.0415  0.1095
 9187OCT     C218374   6.698  11.436   1.829  0.2573  0.1776  0.0595
 9188OCT     C118375  19.023   9.568   9.336  0.1075 -0.1812 -0.0986
 9188OCT     C218376  18.777   9.419   8.935 -0.1924 -0.1783 -0.1796
 9189OCT     C118377  16.855  22.428   7.293  0.0541 -0.1213 -0.0972
 9189OCT     C218378  17.205  22.169   7.480  0.0311  0.0595  0.0001
 9190OCT     C118379  16.090  13.424  13.628 -0.3976 -0.2421  0.0895
 9190OCT     C218380  16.012  13.892  13.824 -0.2526 -0.0663  0.1790
 9191OCT     C118381  13.484  11.479   8.311 -0.0218  0.3022 -0.1136
 9191OCT     C218382  13.162  11.502   8.016  0.0838 -0.0593 -0.1772
 9192OCT     C118383  16.812  15.678  10.977 -0.0898  0.1521  0.2078
 9192OCT     C218384  16.970  16.081  11.008 -0.3373 -0.1613  0.0809
 9193OCT     C118385  17.502  15.341   7.977 -0.1676  0.0714  0.2313
 9193OCT     C218386  17.183  15.273   7.576 -0.0161 -0.1828  0.1192
 9194OCT     C118387  23.552   4.760   4.092  0.0818  0.0130 -0.5119
 9194OCT     C218388  23.356   4.379   4.184  0.2002  0.0406  0.3633
 9195OCT     C118389  21.036   0.588  12.838 -0.6212 -0.1881  0.0941
 9195OCT     C218390  21.273   0.427  13.247  0.1425 -0.0890 -0.4520
 9196OCT     C118391  10.093   6.308   0.923  0.1752 -0.1172  0.0801
 9196OCT     C218392  10.141   6.556   1.360  0.2081 -0.1635  0.2226
 9197OCT     C118393  20.600  18.509  23.482  0.3544 -0.1673  0.2146
 9197OCT     C218394  20.594  18.001  23.370  0.1164  0.2870 -0.2293
 9198OCT     C118395   3.298  20.430   4.882  0.4049  0.0871  0.5527
 9198OCT     C218396   3.460  20.537   5.196 -0.0098  0.3695  0.1785
 9199OCT     C118397   8.549   3.877  10.535 -0.1446  0.3564  0.2605
 9199OCT     C218398   8.239   4.224  10.565  0.4028 -0.1999  0.2406
 9200OCT     C118399  19.014   8.121  11.922  0.0417  0.2191  0.4406
 9200OCT     C218400  18.652   8.251  11.586  0.0914 -0.0427 -0.4464
 9201OCT     C118401  20.588   4.664   4.958  0.0009  0.3061  0.3560
 9201OCT     C218402  20.378   4.312   5.213 -0.1622  0.1015 -0.0797
 9202OCT     C118403  14.653   7.038  22.245 -0.0181 -0.1136 -0.3065
 9202OCT     C218404  14.214   6.861  22.150 -0.2561  0.4166 -0.0472
 9203OCT     C118405   8.351   0.349  15.318  0.1780 -0.1315  0.0276
 9203OCT     C218406   8.604   0.744  15.248  0.2320 -0.0874 -0.1390
 9204OCT     C118407   9.329  21.566   9.203  0.1860  0.1458 -0.1519
 9204OCT     C218408   9.086  21.320   8.874  0.0587 -0.0853 -0.0348
 9205OCT     C118409   4.368  21.759   7.876  0.1234  0.1911  0.0369
 9205OCT     C218410   4.263  21.461   7.521 -0.0313 -0.3391 -0.1382
 9206OCT     C118411  19.297   2.135   0.090  0.2008 -0.0926  0.0393
 9206OCT     C218412  18.962   2.383   0.235  0.3791  0.1179 -0.2222
 9207OCT     C118413   8.787   7.427  11.260  0.0771 -0.1840  0.0468
 9207OCT     C218414   8.797   7.656  11.680 -0.0125  0.0341 -0.2118
 9208OCT     C118415   3.288   6.067   8.706  0.2807 -0.0029  0.2902
 9208OCT     C218416   2.986   5.724   8.707  0.1368 -0.1072 -0.2223
 9209OCT     C118417  22.944   7.769  14.972 -0.1158 -0.3609  0.3912
 9209OCT     C218418  23.222   7.490  15.185 -0.4491  0.0501  0.1678
 9210OCT     C118419  12.440  20.752   1.953  0.2370 -0.1804 -0.0430
 9210OCT     C218420  12.610  20.684   1.524 -0.3102  0.1228 -0.2484
 9211OCT     C118421  12.283  22.892   1.518  0.4076  0.0081 -0.1824
 9211OCT     C218422  11.945  22.613   1.718  0.1870  0.0895 -0.0958
 9212OCT     C118423   9.713  22.162  11.240 -0.1140 -0.0209  0.0372
 9212OCT     C218424   9.555  21.705  11.366  0.2644  0.0326  0.0721
 9213OCT     C118425   6.622   2.584   1.689  0.1856 -0.3647  0.1907
 9213OCT     C218426   6.873   2.243   1.463 -0.1500 -0.0497  0.4019
 9214OCT     C118427   2.601   7.704  14.059 -0.2914  0.0538 -0.1639
 9214OCT     C218428   2.685   8.044  14.362 -0.1197 -0.3982 -0.0231
 9215OCT     C118429   5.151  20.016   8.350  0.0930  0.0254  0.0585
 9215OCT     C218430   5.083  19.872   7.900  0.1382  0.0776  0.0306
 9216OCT     C118431   3.477  15.091   0.007 -0.1163  0.0543 -0.2683
 9216OCT     C218432   3.010  15.029  23.648 -0.2449 -0.0528 -0.2091
 9217OCT     C118433   7.565   7.441  14.909  0.3680 -0.0779 -0.0239
 9217OCT     C218434   7.745   7.047  14.736 -0.1066 -0.1849  0.1273
 9218OCT     C118435  17.731  11.377  13.746 -0.1376 -0.1608  0.4041
 9218OCT     C218436  18.251  11.424  13.720  0.3126  0.2408 -0.1394
 9219OCT     C118437   3.544  20.450  15.891 -0.0439 -0.2765 -0.5566
 9219OCT     C218438   3.841  20.098  15.713  0.2576  0.2106 -0.1000
 9220OCT     C118439  12.677  18.530  11.192  0.0375  0.1032 -0.0453
 9220OCT     C218440  12.872  18.426  10.749 -0.1003 -0.0350 -0.1080
 9221OCT     C118441  10.653  17.320   5.537 -0.1220  0.1219  0.0520
 9221OCT     C218442  10.787  17.578   5.165 -0.1578 -0.4680  0.1254
 9222OCT     C118443   5.205   0.217   8.576  0.1265  0.3868 -0.0991
 9222OCT     C218444   4.873   0.273   8.902  0.2396 -0.6869 -0.3152
 9223OCT     C118445  19.520  22.507  20.113  0.1659 -0.2049 -0.2004
 9223OCT     C218446  19.244  22.254  20.259 -0.2392  0.0196 -0.0389
 9224OCT     C118447   5.510   0.542   2.940  0.2374 -0.2472 -0.1251
 9224OCT     C218448   5.487   1.053   2.939  0.0906 -0.4352  0.4398
 9225OCT     C118449   9.645  22.286  10.345 -0.0765  0.0423  0.1407
 9225OCT     C218450   9.269  22.433  10.630 -0.2278 -0.1592  0.0770
 9226OCT     C118451  18.065  19.708  19.591 -0.0695 -0.1329  0.2442
 9226OCT     C218452  17.864  20.014  19.934 -0.3438  0.1155 -0.1286
 9227OCT     C118453  18.488  10.580  17.940  0.0975 -0.1452 -0.1190
 9227OCT     C218454  18.524  10.126  17.779  0.2810 -0.1898  0.0163
 9228OCT     C118455   9.444  15.788   8.817 -0.0729  0.2199  0.0659
 9228OCT     C218456   9.336  15.502   8.444  0.3231  0.0138  0.0243
 9229OCT     C118457  19.410  18.819   3.695  0.0690  0.2428  0.2225
 9229OCT     C218458  19.579  18.742   4.125 -0.0062  0.2297 -0.2381
 9230OCT     C118459   2.843   9.904  18.666  0.2328  0.4171 -0.1015
 9230OCT     C218460   2.532   9.596  18.981 -0.1626  0.0425 -0.0671
 9231OCT     C118461  14.030   0.125  14.102 -0.0380 -0.0015 -0.1430
 9231OCT     C218462  14.048  23.537  14.434 -0.0982  0.0755 -0.0003
 9232OCT     C118463   1.602   6.468  13.402 -0.5620  0.1779 -0.0556
 9232OCT     C218464   1.686   6.804  13.000  0.0273 -0.2947  0.1977
 9233OCT     C118465   9.693   7.826  15.068  0.2565  0.1294  0.1084
 9233OCT     C218466   9.486   8.152  15.288  0.3316 -0.0035 -0.4118
 9234OCT     C118467  18.168   7.843  12.672  0.1532  0.1806 -0.0984
 9234OCT     C218468  18.069   8.184  12.390  0.0697 -0.3049  0.0373
 9235OCT     C118469  16.352   1.438  22.001 -0.0818  0.0100  0.0631
 9235OCT     C218470  16.732   1.459  22.185 -0.1753  0.0768 -0.0304
 9236OCT     C118471   0.687  21.866  23.367  0.1551 -0.2543 -0.1162
 9236OCT     C218472   0.480  22.301  23.237 -0.0101 -0.2267 -0.0629
 9237OCT     C118473  12.582  13.714   4.913 -0.0231  0.0987 -0.2308
 9237OCT     C218474  12.317  13.313   5.011  0.0289  0.2408  0.0398
 9238OCT     C118475  20.392   9.085  16.202  0.2428  0.1568 -0.0228
 9238OCT     C218476  20.185   9.460  16.257  0.2304 -0.1231  0.0453
 9239OCT     C118477  17.271   6.707  10.220  0.0823  0.3003  0.0907
 9239OCT     C218478  17.195   7.083   9.890  0.5503 -0.2388  0.3106
 9240OCT     C118479  16.700   2.983   0.288 -0.1043 -0.0952  0.0600
 9240OCT     C218480  16.616   3.153   0.733  0.0062 -0.1501 -0.0039
 9241OCT     C118481  21.833  20.933  16.181 -0.1271 -0.3392 -0.1349
 9241OCT     C218482  21.930  20.743  16.574 -0.1336 -0.1842  0.3961
 9242OCT     C118483  18.139   3.895  12.427  0.0293  0.4849 -0.0697
 9242OCT     C218484  17.718   3.754  12.656 -0.0594 -0.3194  0.2232
 9243OCT     C118485  16.198   3.497  15.569 -0.1614  0.0418  0.1890
 9243OCT     C218486  15.766   3.570  15.688 -0.0410  0.2259 -0.0639
 9244OCT     C118487  13.480   4.368   8.521 -0.2878 -0.1997 -0.0958
 9244OCT     C218488  13.774   3.991   8.544  0.1546  0.0609 -0.2098
 9245OCT     C118489  20.115  11.666   9.113  0.2374 -0.3417  0.0733
 9245OCT     C218490  20.315  11.762   8.699  0.0044 -0.3680  0.0809
 9246OCT     C118491  11.783  15.435   6.568 -0.0312 -0.1190  0.0826
 9246OCT     C218492  11.783  15.894   6.567  0.3457  0.2544 -0.0424
 9247OCT     C118493  18.929   3.321  18.558 -0.2012 -0.0022 -0.2534
 9247OCT     C218494  19.304   3.584  18.700 -0.0667  0.1607 -0.3860
 9248OCT     C118495  14.879  17.526  19.613  0.2477  0.1594 -0.6891
 9248OCT     C218496  14.526  17.285  19.435 -0.0107  0.0025  0.1766
 9249OCT     C118497  10.338   9.058  15.441 -0.2788 -0.0089  0.0746
 9249OCT     C218498  10.640   9.393  15.291  0.0499  0.0370  0.5439
 9250OCT     C118499   1.069  18.819  19.829  0.1730 -0.2501  0.2799
 9250OCT     C218500   0.710  18.587  19.825 -0.0950  0.3602  0.2882
 9251OCT     C118501  10.098  21.118   4.407  0.0348  0.0430  0.2668
 9251OCT     C218502  10.548  21.314   4.446 -0.1264  0.0466  0.3979
 9252OCT     C118503  12.920  19.468  22.271  0.0925 -0.1367  0.3292
 9252OCT     C218504  12.929  19.243  22.709  0.0190  0.0877 -0.0253
 9253OCT     C118505  21.246  17.160  11.095 -0.2550  0.0128 -0.0594
 9253OCT     C218506  21.466  16.749  11.221 -0.3500  0.2090 -0.1118
 9254OCT     C118507  18.622   3.949   3.653  0.0152 -0.4289 -0.2163
 9254OCT     C218508  18.556   3.771   4.052  0.0069  0.0291  0.1650
 9255OCT     C118509  12.711  16.577  17.780  0.1098 -0.3970  0.0896
 9255OCT     C218510  13.098  16.436  18.052  0.2693  0.2722  0.4305
 9256OCT     C118511   2.646  22.595  16.892  0.2626  0.0268  0.1417
 9256OCT     C218512   2.945  22.443  16.580  0.1279  0.1851  0.1672
 9257OCT     C118513   7.142   3.735  10.396 -0.2990 -0.1531 -0.2836
 9257OCT     C218514   6.790   3.742  10.738 -0.2079  0.1733 -0.2469
 9258OCT     C118515   1.358  17.350   3.184 -0.3575  0.2082  0.0167
 9258OCT     C218516   1.611  16.976   3.207  0.2903  0.0695 -0.0562
 9259OCT     C118517   1.604  14.382  13.856 -0.0321  0.1162 -0.4020
 9259OCT     C218518   1.959  14.573  14.135  0.1912 -0.1756 -0.0593
 9260OCT     C118519   6.476  10.163   4.697 -0.0440 -0.0531 -0.1577
 9260OCT     C218520   6.706  10.470   4.367 -0.0912 -0.1959 -0.0623
 9261OCT     C118521  20.383   6.317  11.931 -0.2416  0.1346  0.1773
 9261OCT     C218522  19.965   6.549  11.863 -0.0279 -0.3411 -0.0547
 9262OCT     C118523  17.708   6.396   4.681 -0.0783  0.0994 -0.0372
 9262OCT     C218524  17.884   6.190   4.286  0.2530  0.0833  0.1680
 9263OCT     C118525   0.753   3.615  16.209 -0.0821 -0.0576 -0.1583
 9263OCT     C218526   0.966   4.051  16.153 -0.2092  0.1978  0.0675
 9264OCT     C118527   4.703   9.324  12.630  0.2217  0.3651  0.1111
 9264OCT     C218528   4.795   9.528  12.227 -0.0916 -0.1760 -0.1600
 9265OCT     C118529  13.030  20.743   5.259 -0.0524  0.0582 -0.0732
 9265OCT     C218530  12.622  20.955   5.405 -0.1493  0.3314 -0.1639
 9266OCT     C118531  16.111  13.198  21.930 -0.1427 -0.1565  0.1308
 9266OCT     C218532  16.362  13.266  22.357  0.0586 -0.0829 -0.2649
 9267OCT     C118533   3.563  17.718  23.678 -0.0710 -0.2944  0.2938
 9267OCT     C218534   3.590  18.057  23.357  0.1984 -0.2179  0.3741
 9268OCT     C118535  15.774   4.556  12.795  0.0514 -0.2486 -0.3033
 9268OCT     C218536  15.910   4.247  12.497 -0.4929 -0.2230 -0.0959
 9269OCT     C118537  14.670   1.638   6.496 -0.0829 -0.5568  0.1152
 9269OCT     C218538  14.763   1.200   6.474 -0.1387  0.0422 -0.1890
 9270OCT     C118539   3.490   0.454  12.997  0.1923  0.5664 -0.1530
 9270OCT     C218540   3.434   0.719  13.369  0.2573  0.1441  0.1257
 9271OCT     C118541   3.904   6.584  16.936 -0.0585 -0.0366  0.2323
 9271OCT     C218542   3.841   6.897  17.297 -0.3668 -0.0694 -0.2710
 9272OCT     C118543   0.757  11.771  14.322  0.2003  0.1528  0.0651
 9272OCT     C218544   1.051  12.093  14.078 -0.0615  0.0764 -0.1715
 9273OCT     C118545  21.340   0.716  10.344  0.0306  0.3476  0.0527
 9273OCT     C218546  21.165   0.404  10.638 -0.1248  0.0809 -0.0956
 9274OCT     C118547  11.730   6.468   1.034  0.0892  0.0242  0.0360
 9274OCT     C218548  12.104   6.208   0.889  0.0454  0.1888  0.2490
 9275OCT     C118549   2.639   1.570   0.758  0.0596  0.0886 -0.0292
 9275OCT     C218550   2.789   1.175   0.667  0.2408  0.0091 -0.0898
 9276OCT     C118551   5.206  10.303   0.423  0.0211 -0.2400 -0.3621
 9276OCT     C218552   4.899  10.649   0.474 -0.2052 -0.1767  0.0450
 9277OCT     C118553  17.460   9.460   4.029 -0.4852 -0.1099  0.0691
 9277OCT     C218554  17.581   9.400   3.601  0.0060 -0.2106  0.0546
 9278OCT     C118555  17.946   1.037   7.012  0.0120 -0.1835 -0.0371
 9278OCT     C218556  18.174   1.284   7.339  0.2915 -0.1190 -0.0324
 9279OCT     C118557   1.996  16.134  22.777  0.0659 -0.0048 -0.0241
 9279OCT     C218558   1.723  16.378  23.084 -0.0850 -0.3398  0.0421
 9280OCT     C118559  10.321   5.524  17.346  0.0943 -0.2364 -0.3222
 9280OCT     C218560  10.691   5.617  17.059 -0.1965  0.3740  0.1471
 9281OCT     C118561  18.617   5.203   8.646 -0.0758  0.2954 -0.0073
 9281OCT     C218562  18.494   5.381   8.306  0.1595  0.1623  0.0362
 9282OCT     C118563   1.389   6.245   7.860 -0.1464  0.1307 -0.2897
 9282OCT     C218564   1.616   6.575   8.096 -0.0214  0.3906 -0.1121
 9283OCT     C118565  17.412   6.148  19.155 -0.3785  0.3646 -0.2335
 9283OCT     C218566  17.373   6.535  18.902  0.2573 -0.2549 -0.1213
 9284OCT     C118567   6.413   5.630   6.831 -0.3144  0.2235  0.0033
 9284OCT     C218568   6.609   5.289   6.605  0.3324 -0.1466  0.0980
 9285OCT     C118569  16.921  11.132  12.459 -0.3399 -0.0602 -0.4123
 9285OCT     C218570  16.683  10.805  12.179 -0.2257  0.0522  0.2541
 9286OCT     C118571   0.316  17.031  10.122  0.0170 -0.0904 -0.0880
 9286OCT     C218572   0.572  17.183  10.496  0.1743 -0.1365  0.0765
 9287OCT     C118573  20.329  20.000   0.421  0.2064 -0.0492 -0.1026
 9287OCT     C218574  20.704  20.296   0.408 -0.2871  0.0302 -0.1814
 9288OCT     C118575   7.834  17.275   6.831 -0.2133 -0.1382  0.0160
 9288OCT     C218576   7.402  17.221   6.938  0.1459 -0.1346 -0.1549
 9289OCT     C118577  19.011  11.498   3.609 -0.0770 -0.2991  0.1546
 9289OCT     C218578  19.007  11.245   3.168 -0.4175  0.2505 -0.0499
 9290OCT     C118579  17.435  18.502  15.380 -0.0143  0.0291 -0.0983
 9290OCT     C218580  17.614  18.285  15.025 -0.2039 -0.1360  0.0266
 9291OCT     C118581  16.492  14.469  15.911  0.0109  0.3945  0.0032
 9291OCT     C218582  16.635  14.938  15.930 -0.2323  0.0161 -0.3852
 9292OCT     C118583   1.394   7.545  14.885 -0.1031  0.1658 -0.1534
 9292OCT     C218584   1.075   7.845  14.821 -0.4362  0.0052  0.2514
 9293OCT     C118585  10.706  16.085   4.864 -0.1392  0.3028 -0.0055
 9293OCT     C218586  10.484  15.640   4.863  0.0051 -0.0538  0.1523
 9294OCT     C118587   4.401  19.932   3.446 -0.1528 -0.2513  0.2336
 9294OCT     C218588   3.923  20.036   3.407  0.1756  0.1900  0.6044
 9295OCT     C118589   4.122  18.188   5.651  0.2360 -0.1798 -0.1203
 9295OCT     C218590   3.633  18.267   5.628 -0.0681  0.0862 -0.1086
 9296OCT     C118591   9.612  14.993  20.780 -0.1787 -0.1834  0.3110
 9296OCT     C218592   9.158  15.145  20.899 -0.1808  0.0601  0.0445
 9297OCT     C118593  17.606   6.807   4.306 -0.0742 -0.6294  0.0735
 9297OCT     C218594  18.028   6.684   4.440  0.1413 -0.3024 -0.4087
 9298OCT     C118595  10.876  10.447  12.340  0.2907 -0.2084 -0.1995
 9298OCT     C218596  10.978  10.021  12.452 -0.3091  0.0908  0.2038
 9299OCT     C118597   5.189  20.520  20.009 -0.1000 -0.3979 -0.0316
 9299OCT     C218598   4.948  20.810  20.208 -0.0580 -0.1786  0.1842
 9300OCT     C118599   0.292  22.286   0.849  0.0489 -0.2365 -0.2289
 9300OCT     C218600   0.450  22.641   1.083  0.2462  0.1476 -0.0532
 9301OCT     C118601  23.231   7.320  22.418  0.4675 -0.3539  0.0232
 9301OCT     C218602  23.263   7.341  21.958 -0.0851 -0.0555  0.0072
 9302OCT     C118603  11.368   9.831   8.454  0.2246 -0.1724 -0.4290
 9302OCT     C218604  11.081   9.858   8.114  0.2376  0.1438  0.2165
 9303OCT     C118605   9.868  10.340  18.275  0.2039 -0.0642  0.0107
 9303OCT     C218606   9.440  10.540  18.122 -0.2395  0.0283  0.0530
 9304OCT     C118607   2.055  20.139   7.415  0.3071 -0.0660  0.0092
 9304OCT     C218608   2.062  19.663   7.498  0.2598  0.2524 -0.2371
 9305OCT     C118609  15.230   5.684   8.040  0.1720 -0.0328  0.4096
 9305OCT     C218610  15.367   5.940   8.388 -0.1707  0.1196 -0.0635
 9306OCT     C118611  11.721   9.234   1.398 -0.1670  0.1409 -0.4529
 9306OCT     C218612  11.762   9.291   1.883  0.1601  0.3268  0.4183
 9307OCT     C118613   8.254  17.432   1.525 -0.2400 -0.0797  0.2189
 9307OCT     C218614   7.793  17.479   1.440 -0.0588  0.0377 -0.0036
 9308OCT     C118615  19.130   7.941   7.807 -0.0046 -0.2355 -0.4647
 9308OCT     C218616  19.469   7.749   7.437  0.1734  0.0842 -0.5669
 9309OCT     C118617  17.930   4.014  15.269  0.1624 -0.0842 -0.3859
 9309OCT     C218618  18.343   3.978  15.533  0.0126 -0.3061 -0.0138
 9310OCT     C118619  13.378   1.016  21.986  0.1413  0.5251  0.2867
 9310OCT     C218620  13.811   0.948  22.128 -0.0273 -0.2277 -0.1493
 9311OCT     C118621  11.328  20.298  16.400  0.1859  0.0736  0.1005
 9311OCT     C218622  11.427  20.524  15.934  0.0986 -0.0035 -0.0659
 9312OCT     C118623  21.653   3.882   8.088 -0.2017  0.3943  0.0218
 9312OCT     C218624  21.986   4.107   7.832  0.4165 -0.3247  0.0727
 9313OCT     C118625   1.735  10.632  10.531 -0.0022 -0.2243  0.1400
 9313OCT     C218626   1.849  10.232  10.237  0.0349 -0.0369  0.4577
 9314OCT     C118627   8.732  22.564   5.185 -0.1033  0.0858 -0.1592
 9314OCT     C218628   8.525  22.406   4.773  0.2070 -0.0519  0.5153
 9315OCT     C118629  12.243   8.092  15.816 -0.2116  0.0643 -0.0012
 9315OCT     C218630  12.463   8.453  16.144 -0.0483 -0.1446 -0.1069
 9316OCT     C118631  15.751   4.558  20.754 -0.1874 -0.0653  0.0692
 9316OCT     C218632  15.434   4.253  20.587 -0.1586 -0.0566  0.0792
 9317OCT     C118633   9.223   4.532  20.507 -0.1024  0.0081  0.2123
 9317OCT     C218634   8.816   4.537  20.251  0.0108 -0.2759  0.0053
 9318OCT     C118635  14.453  14.476  14.926  0.0411  0.2774  0.0276
 9318OCT     C218636  14.251  14.645  14.536  0.0685  0.4162 -0.4691
 9319OCT     C118637  14.886   2.132   4.430 -0.1693 -0.0157  0.2014
 9319OCT     C218638  15.347   2.049   4.615  0.5207  0.1503 -0.0161
 9320OCT     C118639  19.705  20.735  16.762  0.2122  0.0601  0.0853
 9320OCT     C218640  19.670  21.124  16.527  0.1631  0.0061 -0.7346
 9321OCT     C118641   0.442   3.525   6.119  0.0662 -0.4150 -0.3002
 9321OCT     C218642   0.577   3.170   5.919 -0.1069 -0.1170  0.0181
 9322OCT     C118643  19.399  20.350  11.215  0.1781 -0.1147  0.0138
 9322OCT     C218644  19.584  20.032  11.288  0.0395  0.1013 -0.1647
 9323OCT     C118645   1.402   9.807  10.303  0.2000  0.1537 -0.0563
 9323OCT     C218646   0.948   9.533  10.311  0.1233 -0.1526  0.0386
 9324OCT     C118647  16.990   3.259  21.449 -0.0633 -0.2457  0.1246
 9324OCT     C218648  17.325   3.571  21.396 -0.0851  0.2871 -0.1731
 9325OCT     C118649  18.372  18.876  22.424  0.0716  0.1292 -0.1212
 9325OCT     C218650  18.178  19.165  22.134 -0.1285  0.0433 -0.0667
 9326OCT     C118651   3.345  22.710  10.386  0.2362  0.3224 -0.2136
 9326OCT     C218652   3.499  22.906  10.777  0.1512  0.1577  0.3494
 9327OCT     C118653  12.946  11.195  17.124 -0.0443 -0.2617 -0.2184
 9327OCT     C218654  12.593  11.164  16.795 -0.2919 -0.1393 -0.2881
 9328OCT     C118655   1.996  18.755  20.773  0.3182 -0.0551 -0.2295
 9328OCT     C218656   1.676  18.483  20.754 -0.1306 -0.5271 -0.2727
 9329OCT     C118657   5.876  21.964   1.748 -0.2606 -0.4799 -0.4329
 9329OCT     C218658   5.673  21.656   1.494  0.2662  0.1656  0.1504
 9330OCT     C118659  20.002   7.789   1.484  0.1121 -0.1570 -0.3013
 9330OCT     C218660  20.086   8.199   1.234 -0.2085 -0.1495 -0.1083
 9331OCT     C118661  20.113   4.943   6.221 -0.1236  0.2086  0.0218
 9331OCT     C218662  20.294   4.696   5.822  0.3155 -0.1473  0.1508
 9332OCT     C118663  22.284  18.280   3.878 -0.2474  0.0950  0.2228
 9332OCT     C218664  21.819  18.307   3.996 -0.2480 -0.1013 -0.0688
 9333OCT     C118665   3.423  16.469  13.422  0.0341  0.1917  0.1588
 9333OCT     C218666   3.260  16.847  13.307  0.0251  0.1558  0.2187
 9334OCT     C118667  12.359   1.519   2.601  0.0687  0.3217  0.2444
 9334OCT     C218668  12.194   1.666   2.194  0.0848 -0.1008  0.4458
 9335OCT     C118669   1.794  22.508  19.609  0.0974  0.2783  0.1472
 9335OCT     C218670   2.276  22.477  19.574  0.2047 -0.1810  0.2429
 9336OCT     C118671  16.556  21.696   5.105  0.0401  0.1461  0.0062
 9336OCT     C218672  16.964  21.808   5.289 -0.2520  0.2610 -0.1011
 9337OCT     C118673  10.277   5.954  12.894  0.2722 -0.0490  0.0679
 9337OCT     C218674  10.485   5.519  12.878 -0.1902  0.1259  0.0771
 9338OCT     C118675   5.724  18.237  15.579  0.2312  0.2921 -0.3496
 9338OCT     C218676   5.597  18.686  15.458 -0.0554 -0.0502 -0.0271
 9339OCT     C118677  12.332  11.823  21.602  0.0047 -0.1783  0.6167
 9339OCT     C218678  12.473  11.469  21.908 -0.0696 -0.0258  0.1068
 9340OCT     C118679  21.153  21.877  13.819 -0.0160  0.1629  0.2816
 9340OCT     C218680  21.142  21.496  14.118 -0.0979  0.2353  0.0630
 9341OCT     C118681  11.536  21.440   3.542  0.1004  0.1732  0.1528
 9341OCT     C218682  11.948  21.599   3.710 -0.0847  0.3102  0.2222
 9342OCT     C118683   0.854  23.485  19.326  0.0642  0.0206 -0.0035
 9342OCT     C218684   0.353  23.535  19.240  0.1281 -0.0287  0.2207
 9343OCT     C118685   9.277  17.554   0.039 -0.3338 -0.0592  0.1238
 9343OCT     C218686   9.752  17.610  23.703  0.2659  0.2845  0.2669
 9344OCT     C118687  12.407  11.449  18.894  0.1254  0.4010 -0.2351
 9344OCT     C218688  12.552  11.183  18.522 -0.2733  0.1785 -0.3404
 9345OCT     C118689   8.088  22.355  19.298  0.3321 -0.0298  0.3380
 9345OCT     C218690   7.957  22.803  19.426  0.3100 -0.2005 -0.0277
 9346OCT     C118691  10.265  11.282  20.963  0.0446  0.3421  0.1863
 9346OCT     C218692   9.971  11.592  21.158  0.3057  0.1561 -0.1048
 9347OCT     C118693   5.492   3.592   2.629  0.0132  0.0385 -0.1115
 9347OCT     C218694   5.777   3.419   2.917 -0.2123  0.2208  0.0202
 9348OCT     C118695  17.086  10.059   1.210  0.4286 -0.2417  0.1653
 9348OCT     C218696  16.930  10.269   0.807 -0.3150 -0.1756 -0.0210
 9349OCT     C118697   9.897   8.594  20.404 -0.5419 -0.1530  0.1982
 9349OCT     C218698   9.734   8.856  20.156 -0.2353  0.0403 -0.2926
 9350OCT     C118699   9.219  20.419  16.745 -0.0596 -0.2296  0.2528
 9350OCT     C218700   8.909  20.657  16.435 -0.0444  0.5116 -0.1134
 9351OCT     C118701   8.707   4.493  17.832  0.0919  0.1420  0.2433
 9351OCT     C218702   8.607   4.496  18.303 -0.1378 -0.1724 -0.0945
 9352OCT     C118703   9.234  10.271  20.955 -0.0838  0.3271 -0.0804
 9352OCT     C218704   9.133   9.820  20.725 -0.0425 -0.1248  0.5116
 9353OCT     C118705  13.756   1.183  17.292 -0.2787 -0.0495  0.1684
 9353OCT     C218706  13.819   0.808  17.579  0.1124 -0.0499 -0.1486
 9354OCT     C118707  19.969  13.037  20.886  0.1260  0.0736 -0.0747
 9354OCT     C218708  20.258  12.675  20.807  0.1242 -0.0835 -0.1843
 9355OCT     C118709   7.271   8.325  13.237  0.0236  0.4035 -0.3045
 9355OCT     C218710   7.166   8.006  12.976  0.1402  0.0712  0.2404
 9356OCT     C118711  20.671   0.863   6.335 -0.0141  0.0110  0.1844
 9356OCT     C218712  20.889   0.504   6.047 -0.1826  0.0015  0.4080
 9357OCT     C118713  19.035   9.109   7.996  0.2349 -0.2905  0.0508
 9357OCT     C218714  18.615   8.899   7.893  0.1148 -0.2140 -0.1310
 9358OCT     C118715  19.316   0.778  23.630 -0.1301  0.4424  0.1830
 9358OCT     C218716  19.763   1.007  23.571 -0.2752  0.0298 -0.2334
 9359OCT     C118717  21.909  22.461  21.873 -0.0442  0.0104  0.2832
 9359OCT     C218718  21.434  22.431  21.956 -0.0607  0.1145  0.0910
 9360OCT     C118719   6.672  14.810  18.489  0.0464 -0.0296 -0.2807
 9360OCT     C218720   6.526  14.620  18.044 -0.0231  0.4087 -0.1739
 9361OCT     C118721   1.816   5.705  23.662 -0.3095  0.0175 -0.4570
 9361OCT     C218722   1.797   5.859   0.318  0.0924 -0.0572 -0.5327
 9362OCT     C118723  16.378  12.627  14.200 -0.0046 -0.0188 -0.0100
 9362OCT     C218724  16.787  12.430  14.023  0.0531  0.0405 -0.0014
 9363OCT     C118725  12.365   3.074  11.403 -0.1112 -0.4717  0.2170
 9363OCT     C218726  12.009   3.221  11.667  0.0846 -0.0748  0.0928
 9364OCT     C118727   9.994   1.864  11.695  0.0966  0.4428 -0.3560
 9364OCT     C218728  10.445   1.865  11.637  0.3799  0.1374 -0.0769
 9365OCT     C118729  11.514  12.776  12.093  0.2169 -0.0134  0.1607
 9365OCT     C218730  11.118  12.896  11.902 -0.0508  0.1820 -0.3071
 9366OCT     C118731  20.347   6.743  10.001 -0.0243 -0.1216  0.0972
 9366OCT     C218732  20.222   6.965  10.473  0.0798 -0.0035 -0.0811
 9367OCT     C118733  14.476  20.648  13.862  0.3076 -0.1189 -0.0146
 9367OCT     C218734  14.377  20.692  13.432  0.3996  0.2400  0.1063
 9368OCT     C118735   8.180  22.655  10.775 -0.3731 -0.2130 -0.0081
 9368OCT     C218736   8.474  22.329  10.903  0.6264  0.3478  0.1383
 9369OCT     C118737  19.709  11.701   7.808 -0.0441  0.1126 -0.1700
 9369OCT     C218738  20.086  11.521   7.908 -0.1722 -0.0278  0.0466
 9370OCT     C118739   6.842   0.684  11.546 -0.3690 -0.4728 -0.1529
 9370OCT     C218740   6.617   0.334  11.297 -0.0849  0.0726 -0.2593
 9371OCT     C118741  12.706   2.898   1.060  0.4295 -0.1389 -0.4081
 9371OCT     C218742  12.783   3.225   0.763  0.1171 -0.2464  0.1261
 9372OCT     C118743  10.708   5.278  19.238 -0.4366  0.2361 -0.1060
 9372OCT     C218744  10.244   5.339  19.031  0.3090 -0.1149  0.0441
 9373OCT     C118745   4.574   0.273  23.348 -0.3478  0.0407  0.1228
 9373OCT     C218746   4.364   0.523  23.086 -0.0340 -0.1293  0.0212
 9374OCT     C118747   7.333  18.144  17.905  0.0139  0.0871 -0.1079
 9374OCT     C218748   7.470  17.654  17.865  0.0264  0.1046  0.2889
 9375OCT     C118749  23.384   3.536  21.478  0.1651 -0.3442  0.0598
 9375OCT     C218750  23.451   3.338  21.031  0.1872  0.0367  0.5044
 9376OCT     C118751  16.723   1.241  18.955  0.0524 -0.3724  0.1901
 9376OCT     C218752  16.270   1.276  18.816 -0.1906  0.0040  0.3295
 9377OCT     C118753   0.331  15.514  15.550 -0.0217  0.0542  0.5770
 9377OCT     C218754   0.136  15.954  15.586  0.1008 -0.0643  0.3153
 9378OCT     C118755  20.981  17.161  22.932 -0.1318 -0.0893  0.1224
 9378OCT     C218756  20.838  16.719  23.037 -0.2805  0.2001 -0.1136
 9379OCT     C118757   2.499   0.053   9.935  0.0539  0.4054  0.0791
 9379OCT     C218758   2.921  23.633   9.947 -0.0746  0.1103  0.0046
 9380OCT     C118759  23.238   0.412  10.700 -0.1615  0.1119  0.1593
 9380OCT     C218760  23.231   0.180  11.095 -0.6273  0.1958  0.2404
 9381OCT     C118761   1.985  11.490  12.369  0.0018  0.2038 -0.1234
 9381OCT     C218762   2.341  11.257  12.481 -0.1714 -0.0730 -0.0038
 9382OCT     C118763  22.212  20.278  18.454 -0.2851 -0.1244  0.4168
 9382OCT     C218764  22.038  20.736  18.515 -0.2819  0.0270 -0.3741
 9383OCT     C118765  12.394  22.571   3.646  0.3071  0.2507  0.0989
 9383OCT     C218766  12.746  22.431   3.335 -0.1178  0.0436 -0.0162
 9384OCT     C118767  19.098   4.961  19.245  0.0176  0.0575  0.2615
 9384OCT     C218768  18.765   4.623  19.174 -0.3108 -0.1681 -0.3182
 9385OCT     C118769   5.213   3.874  10.336  0.4708  0.1447 -0.3080
 9385OCT     C218770   5.610   3.548  10.385  0.0566  0.0418  0.2602
 9386OCT     C118771  19.394  20.525   8.679  0.1196 -0.0742  0.0871
 9386OCT     C218772  19.267  20.903   8.865 -0.0700  0.0975 -0.1108
 9387OCT     C118773   9.953  11.127   4.978  0.1326 -0.0999 -0.2350
 9387OCT     C218774  10.055  11.421   5.329  0.0947 -0.1116  0.1498
 9388OCT     C118775  21.301  23.592  20.826  0.2828  0.2067  0.2933
 9388OCT     C218776  21.150   0.034  21.229  0.1110  0.0666 -0.1098
 9389OCT     C118777  11.062   1.076   1.377  0.2681 -0.3537  0.3953
 9389OCT     C218778  10.625   0.859   1.316 -0.1138 -0.1234 -0.0926
 9390OCT     C118779   7.942   8.027  10.022 -0.0136 -0.1647  0.2770
 9390OCT     C218780   7.946   8.299   9.673  0.0792 -0.0851 -0.3110
 9391OCT     C118781  17.470  14.476  19.215 -0.0510  0.0602 -0.2105
 9391OCT     C218782  17.130  14.259  18.972 -0.0818  0.0509  0.1630
 9392OCT     C118783  22.683  19.887  14.899  0.0586  0.0394  0.0988
 9392OCT     C218784  22.795  19.439  14.878  0.1291 -0.3445 -0.1772
 9393OCT     C118785  22.103  15.812   1.649  0.2144 -0.0685 -0.2090
 9393OCT     C218786  21.959  16.160   1.880 -0.3611 -0.5384 -0.0893
 9394OCT     C118787  19.507  19.197   6.707  0.0330  0.3895  0.1965
 9394OCT     C218788  19.501  19.556   6.384 -0.1977 -0.0558 -0.1446
 9395OCT     C118789   5.160   7.542   6.598 -0.1079 -0.0182  0.1704
 9395OCT     C218790   5.429   7.317   6.265  0.1658  0.1757  0.0201
 9396OCT     C118791  13.411   7.399  18.150  0.0017 -0.1559 -0.2885
 9396OCT     C218792  13.497   7.852  18.037 -0.4271  0.2573  0.3464
 9397OCT     C118793  18.626   8.358   5.019 -0.1428  0.1655  0.1815
 9397OCT     C218794  18.871   8.587   5.289 -0.1107 -0.1796  0.3870
 9398OCT     C118795   5.099  19.721  18.368  0.0562  0.1266  0.0040
 9398OCT     C218796   4.924  19.787  18.813 -0.1124  0.0063 -0.2700
 9399OCT     C118797   3.763   0.030  21.761  0.1907  0.2044  0.0191
 9399OCT     C218798   4.020  23.364  21.865 -0.2354 -0.3457  0.1632
 9400OCT     C118799   6.693  10.164  16.676  0.1656 -0.0509 -0.1674
 9400OCT     C218800   7.030  10.446  16.578  0.0215  0.1167 -0.0112
 9401OCT     C118801  19.274   9.741   4.462 -0.2343  0.1294  0.0461
 9401OCT     C218802  19.438   9.776   4.909 -0.0425  0.1173 -0.0016
 9402OCT     C118803  13.217  17.573   6.302  0.2726  0.2996  0.1897
 9402OCT     C218804  13.086  17.986   6.371  0.1688  0.1078  0.2936
 9403OCT     C118805  11.263  16.700  16.959  0.1930  0.3039  0.3704
 9403OCT     C218806  11.101  16.904  16.583 -0.3422 -0.0750  0.3202
 9404OCT     C118807   7.259  22.716   4.288 -0.1836  0.0641 -0.0131
 9404OCT     C218808   7.588  23.056   4.257  0.1162 -0.3257 -0.0926
 9405OCT     C118809   3.425  10.467  18.679  0.0082 -0.0575 -0.1554
 9405OCT     C218810   3.168  10.225  18.989 -0.0152 -0.2199 -0.0727
 9406OCT     C118811  15.480   7.353  14.283 -0.0565  0.3525 -0.0731
 9406OCT     C218812  15.607   6.928  14.100 -0.4193  0.1224 -0.2064
 9407OCT     C118813   2.880  13.666  20.460 -0.0784  0.0724  0.1295
 9407OCT     C218814   2.642  14.054  20.592 -0.2748 -0.0412 -0.1839
 9408OCT     C118815   4.862   6.719   8.991 -0.0033 -0.3279  0.1600
 9408OCT     C218816   4.415   6.654   9.056  0.0463 -0.1965  0.3929
 9409OCT     C118817  17.659  18.991   0.469  0.1317  0.2993 -0.2505
 9409OCT     C218818  17.607  18.513   0.478 -0.0034  0.0273 -0.3607
 9410OCT     C118819   9.299  11.192   8.828 -0.0296 -0.1751 -0.0920
 9410OCT     C218820   8.889  11.100   8.737  0.1348 -0.1237  0.1336
 9411OCT     C118821   1.038  11.330  17.052 -0.1108  0.0005 -0.1358
 9411OCT     C218822   0.962  11.232  17.480  0.0109 -0.0857 -0.0299
 9412OCT     C118823   3.696  15.792   7.905 -0.0494 -0.0443 -0.1933
 9412OCT     C218824   3.760  15.938   8.336 -0.2848  0.0347  0.3452
 9413OCT     C118825  14.964  18.247  17.295 -0.2251  0.3250 -0.4051
 9413OCT     C218826  15.049  17.888  17.507 -0.0010  0.2056  0.0094
 9414OCT     C118827  14.377   2.707  23.072  0.1621  0.0306  0.0259
 9414OCT     C218828  14.025   2.946  22.963 -0.3727 -0.1444  0.0047
 9415OCT     C118829  10.551  22.603   5.366 -0.1404 -0.1990  0.0551
 9415OCT     C218830  10.366  22.582   4.937  0.3511 -0.1813  0.0762
 9416OCT     C118831  23.041  20.372  14.267 -0.2569  0.2610  0.1397
 9416OCT     C218832  22.630  20.318  14.074 -0.0039  0.3046  0.0377
 9417OCT     C118833  14.161   8.031  18.498  0.0752  0.0577 -0.2736
 9417OCT     C218834  14.338   7.701  18.207 -0.0842 -0.1786 -0.1178
 9418OCT     C118835   9.831  16.944   5.959  0.0682  0.1135 -0.3803
 9418OCT     C218836   9.964  17.020   6.453 -0.3005  0.0168 -0.1522
 9419OCT     C118837  17.758  23.240   6.766  0.0015 -0.0341  0.4713
 9419OCT     C218838  17.855  23.136   6.319 -0.2539 -0.0485 -0.0008
 9420OCT     C118839  23.224  23.233  23.055 -0.1501  0.0358 -0.1983
 9420OCT     C218840  23.310  23.530  23.425  0.3230 -0.1354  0.1515
 9421OCT     C118841  10.025  22.211   0.835 -0.0955 -0.1210 -0.2943
 9421OCT     C218842  10.165  21.871   0.506  0.0094 -0.0647 -0.0222
 9422OCT     C118843  13.240  12.202   3.215 -0.0951  0.1441 -0.2086
 9422OCT     C218844  13.015  11.840   3.493 -0.0538 -0.0622  0.1057
 9423OCT     C118845  11.136   8.747  14.525 -0.0832  0.3032 -0.2830
 9423OCT     C218846  11.259   8.908  14.950  0.0752  0.3234  0.1654
 9424OCT     C118847  14.686  22.912   7.337 -0.1099  0.1410 -0.1980
 9424OCT     C218848  14.648  23.247   7.651  0.1306 -0.0533 -0.0631
 9425OCT     C118849   8.621  21.532  17.817 -0.0030  0.2345 -0.1294
 9425OCT     C218850   8.671  21.590  18.234 -0.0468 -0.0645 -0.4283
 9426OCT     C118851  23.128   2.528  22.419 -0.0771 -0.0649  0.0278
 9426OCT     C218852  23.192   2.978  22.381  0.0048 -0.1283  0.0040
 9427OCT     C118853   1.426   5.098   6.237 -0.0905  0.1990  0.2030
 9427OCT     C218854   1.245   5.488   6.243 -0.2791  0.0390 -0.0609
 9428OCT     C118855  17.490   6.890  21.309  0.1822  0.1774  0.1346
 9428OCT     C218856  17.338   6.840  21.767 -0.1602 -0.5518  0.1736
 9429OCT     C118857   1.075   7.110  17.464 -0.0483 -0.2085  0.0154
 9429OCT     C218858   0.845   7.400  17.667  0.1787 -0.1020 -0.0049
 9430OCT     C118859  14.035   1.234  11.369 -0.1580 -0.5968 -0.1073
 9430OCT     C218860  14.078   0.795  11.553  0.0113 -0.2102  0.1369
 9431OCT     C118861   3.955  23.396   1.906 -0.0161 -0.2354  0.4726
 9431OCT     C218862   3.668  23.570   1.537 -0.1104  0.0459  0.1943
 9432OCT     C118863   9.925  13.676  23.257 -0.3045 -0.2463 -0.1575
 9432OCT     C218864   9.455  13.621  23.280  0.0468  0.0377  0.0262
 9433OCT     C118865   7.243  17.546   2.721  0.1692  0.0633  0.1117
 9433OCT     C218866   6.823  17.714   2.639 -0.1008 -0.1252 -0.0037
 9434OCT     C118867   2.916  21.229  12.105 -0.1665 -0.1619 -0.1874
 9434OCT     C218868   2.507  21.487  12.197 -0.0731 -0.1468  0.4456
 9435OCT     C118869   3.817  15.842   0.707  0.1307 -0.1466  0.0719
 9435OCT     C218870   3.933  16.281   0.845  0.0482  0.1436 -0.0359
 9436OCT     C118871  19.771  17.562   4.335  0.2486 -0.2567  0.0634
 9436OCT     C218872  20.098  17.786   4.616  0.3559  0.0404  0.2204
 9437OCT     C118873   5.596   2.959  14.458 -0.3559 -0.4911  0.2140
 9437OCT     C218874   5.419   2.506  14.575  0.1821 -0.1101 -0.0255
 9438OCT     C118875  12.054   6.670   5.257 -0.2078  0.0286  0.2791
 9438OCT     C218876  12.358   6.278   5.147 -0.1527  0.0770  0.0716
 9439OCT     C118877  15.427  16.371  15.864 -0.4932  0.2716  0.3976
 9439OCT     C218878  15.470  16.679  16.169  0.1775 -0.1339  0.0137
 9440OCT     C118879  11.796   8.108   9.806 -0.1393 -0.0213 -0.0781
 9440OCT     C218880  11.461   8.514   9.703  0.1951 -0.1648  0.1084
 9441OCT     C118881   8.946   9.644  12.028 -0.0850  0.2010  0.0937
 9441OCT     C218882   8.689   9.639  12.436  0.1556 -0.0884 -0.1306
 9442OCT     C118883   2.128  13.342  21.307 -0.0701  0.0292  0.3056
 9442OCT     C218884   1.864  13.196  21.675 -0.2169  0.1881 -0.0593
 9443OCT     C118885  19.081  13.468   1.776 -0.0516  0.1788 -0.1272
 9443OCT     C218886  19.392  13.160   1.639 -0.3966 -0.1466 -0.0143
 9444OCT     C118887  11.647   1.624  16.196 -0.3115 -0.2038 -0.0281
 9444OCT     C218888  11.880   1.369  16.464 -0.3412  0.2758 -0.1089
 9445OCT     C118889   0.890   2.243   9.613 -0.2434 -0.0189 -0.0531
 9445OCT     C218890   0.587   2.039   9.263 -0.0434 -0.1029 -0.4369
 9446OCT     C118891  18.580  17.855  22.041 -0.2782  0.0711 -0.2588
 9446OCT     C218892  18.505  18.176  22.418 -0.0462 -0.2958  0.0491
 9447OCT     C118893   1.073  18.785  12.699  0.1742  0.4075 -0.2263
 9447OCT     C218894   1.417  18.679  13.040  0.1933  0.0793  0.2204
 9448OCT     C118895  20.668   2.116   9.241 -0.0511  0.0240  0.0363
 9448OCT     C218896  20.259   2.296   9.210  0.0331 -0.1454  0.1207
 9449OCT     C118897   9.985  11.001  17.762  0.0444  0.0347 -0.1933
 9449OCT     C218898   9.753  11.063  18.176  0.1226  0.2232  0.0457
 9450OCT     C118899   8.922   8.019   2.465  0.0504 -0.1214 -0.0824
 9450OCT     C218900   9.324   7.826   2.536 -0.3216 -0.2870 -0.2473
 9451OCT     C118901  19.230   9.573   3.115 -0.0950  0.2703 -0.1403
 9451OCT     C218902  19.621   9.327   3.060  0.2029 -0.4286 -0.0781
 9452OCT     C118903   8.529   0.233   4.667 -0.0783  0.1076 -0.1228
 9452OCT     C218904   8.384   0.214   4.250  0.3749  0.1896 -0.1102
 9453OCT     C118905  19.474   2.663   3.338 -0.2778 -0.0676 -0.0010
 9453OCT     C218906  19.843   2.433   3.537  0.1676 -0.1771  0.0139
 9454OCT     C118907   9.357  19.702  20.141 -0.0922  0.2203  0.0749
 9454OCT     C218908   9.058  20.031  20.362  0.3924  0.1501 -0.1163
 9455OCT     C118909   8.629   9.439   6.137  0.0269  0.0187 -0.0231
 9455OCT     C218910   8.622   9.480   6.622  0.0664  0.2558 -0.0742
 9456OCT     C118911  11.923   0.603   2.629  0.1287  0.1781  0.1565
 9456OCT     C218912  11.744   0.299   2.892  0.1383  0.0726  0.0132
 9457OCT     C118913  16.210  15.904  16.403 -0.0009 -0.1283  0.0569
 9457OCT     C218914  16.006  16.321  16.316 -0.0993 -0.0179  0.1422
 9458OCT     C118915  13.583   4.408   5.066  0.1129  0.2025 -0.2442
 9458OCT     C218916  13.285   4.335   5.445 -0.2326  0.1510 -0.1870
 9459OCT     C118917  13.289   8.707  22.066 -0.2249  0.2972 -0.1543
 9459OCT     C218918  13.346   8.224  22.014  0.0324 -0.1758 -0.0407
 9460OCT     C118919   3.640   2.499  13.320  0.1751 -0.1164  0.0168
 9460OCT     C218920   3.640   2.921  13.535 -0.1069  0.2344 -0.1822
 9461OCT     C118921  22.059   3.203  18.347  0.1112  0.2953  0.3308
 9461OCT     C218922  21.615   3.175  18.318 -0.1358  0.1912 -0.2009
 9462OCT     C118923   4.614   0.622   3.197 -0.3278  0.1461  0.1492
 9462OCT     C218924   4.513   0.985   3.463 -0.1972 -0.3453 -0.1372
 9463OCT     C118925  23.332   0.503  19.715  0.4022 -0.1995 -0.4466
 9463OCT     C218926  22.940   0.262  19.735  0.0386  0.1512  0.2232
 9464OCT     C118927   4.659  22.522  17.200 -0.0576 -0.0133 -0.3951
 9464OCT     C218928   4.265  22.741  17.036  0.1311  0.4432 -0.2594
 9465OCT     C118929  13.169  11.736  14.004  0.3762 -0.2416 -0.3617
 9465OCT     C218930  13.108  11.308  13.987  0.1292  0.2209  0.0591
 9466OCT     C118931   1.521  10.050  16.957 -0.0014 -0.3956  0.2269
 9466OCT     C218932   1.118  10.217  16.753 -0.0252  0.1330  0.0644
 9467OCT     C118933  10.372   7.109   6.780  0.2378 -0.0135  0.3207
 9467OCT     C218934  10.366   6.807   7.136 -0.0866 -0.1537 -0.0684
 9468OCT     C118935  10.088  13.507   8.485 -0.1180 -0.0621  0.1940
 9468OCT     C218936  10.309  13.299   8.913  0.2098  0.1702  0.0453
 9469OCT     C118937  10.714   9.658   7.843 -0.1211  0.0638 -0.1988
 9469OCT     C218938  10.264   9.810   8.004 -0.1711  0.2711  0.1793
 9470OCT     C118939  11.599  13.670   8.204  0.0149 -0.2397  0.0171
 9470OCT     C218940  11.874  13.755   8.535 -0.0737  0.2694  0.5869
 9471OCT     C118941   6.358  21.525  12.952 -0.0002 -0.2709 -0.2218
 9471OCT     C218942   5.990  21.272  12.954  0.0043  0.5341 -0.1318
 9472OCT     C118943   6.055  17.075   3.569 -0.0060 -0.2901  0.2006
 9472OCT     C218944   5.770  17.462   3.658 -0.0083 -0.0275 -0.0158
 9473OCT     C118945  19.872   1.155  17.223  0.0428 -0.4391 -0.4420
 9473OCT     C218946  19.978   1.336  16.809 -0.3333 -0.1438  0.1797
 9474OCT     C118947  12.809   0.567  15.009 -0.3030  0.0569  0.2964
 9474OCT     C218948  12.597   0.547  14.585  0.3829  0.1215  0.2543
 9475OCT     C118949   3.023  18.840   3.104 -0.3388 -0.0607  0.1457
 9475OCT     C218950   2.616  18.966   3.062  0.1094  0.2962  0.2915
 9476OCT     C118951   0.378  11.548  21.489  0.0444  0.3756  0.1574
 9476OCT     C218952   0.769  11.730  21.674  0.2002 -0.6636  0.2237
 9477OCT     C118953   1.219   5.389  12.965  0.0966  0.0665 -0.1559
 9477OCT     C218954   1.084   5.278  12.569 -0.0487  0.1036  0.1064
 9478OCT     C118955  21.352  19.522   7.699 -0.2329 -0.3778 -0.0760
 9478OCT     C218956  21.593  19.811   7.411  0.0004 -0.1085  0.2348
 9479OCT     C118957  12.690   7.685  21.251  0.1836 -0.0265 -0.0338
 9479OCT     C218958  12.441   7.776  21.594  0.2658  0.0945 -0.1721
 9480OCT     C118959   7.526   9.084  14.334  0.1814  0.2278 -0.0437
 9480OCT     C218960   7.228   8.796  14.588 -0.1984 -0.1558  0.5631
 9481OCT     C118961   0.055  15.168  19.256 -0.0645  0.3786 -0.1475
 9481OCT     C218962  23.564  15.533  19.160 -0.1067 -0.0742 -0.0227
 9482OCT     C118963  14.677   4.726  20.969 -0.0694 -0.0349 -0.1405
 9482OCT     C218964  15.002   4.534  21.284 -0.3323  0.0736  0.2325
 9483OCT     C118965  17.724  17.154  10.527  0.1933 -0.2456  0.1139
 9483OCT     C218966  17.412  17.016  10.154 -0.0856  0.0012 -0.0259
 9484OCT     C118967   1.117  21.397  10.180  0.1377  0.1242 -0.4710
 9484OCT     C218968   0.940  21.044   9.859  0.1561 -0.1690  0.1162
 9485OCT     C118969   4.717  14.036  23.089  0.0533 -0.1019  0.1370
 9485OCT     C218970   4.431  14.184  22.706 -0.2111  0.1310  0.1795
 9486OCT     C118971  11.960   6.219  20.586 -0.2268  0.1553 -0.3530
 9486OCT     C218972  11.782   5.867  20.341 -0.0185  0.1201 -0.0930
 9487OCT     C118973   9.396  13.133  12.267 -0.4722  0.3559 -0.0057
 9487OCT     C218974   9.443  12.976  12.727 -0.2837  0.2667 -0.2967
 9488OCT     C118975   0.558  16.379  21.089 -0.3419 -0.1853 -0.0444
 9488OCT     C218976   0.427  16.440  20.661  0.2107 -0.2815 -0.0792
 9489OCT     C118977  11.386  15.103  20.783  0.1860 -0.0188 -0.0294
 9489OCT     C218978  11.677  15.423  20.587 -0.4430  0.3195 -0.1487
 9490OCT     C118979   5.989  11.686  19.639 -0.0307 -0.0051 -0.3574
 9490OCT     C218980   6.197  11.896  19.279 -0.0851 -0.1483  0.0289
 9491OCT     C118981   6.673   7.377  20.173 -0.5092 -0.0282 -0.1619
 9491OCT     C218982   6.628   7.440  19.730 -0.2711  0.1188 -0.1184
 9492OCT     C118983   0.737  10.487  12.168  0.0498 -0.0595  0.0522
 9492OCT     C218984   0.960  10.877  12.327 -0.3198  0.0760 -0.2975
 9493OCT     C118985   7.861   5.296   8.658 -0.0205 -0.1119 -0.1403
 9493OCT     C218986   7.806   4.943   8.990 -0.0221 -0.2473 -0.0822
 9494OCT     C118987   5.298   9.323  10.299  0.0409 -0.0421  0.1192
 9494OCT     C218988   5.449   9.729  10.486 -0.2244  0.0313 -0.1994
 9495OCT     C118989  22.784  21.051  10.411  0.0379  0.0807  0.0272
 9495OCT     C218990  22.382  21.104  10.164  0.2772  0.0245  0.0077
 9496OCT     C118991  22.312  16.515  22.777 -0.1680  0.0579 -0.2104
 9496OCT     C218992  22.382  16.834  23.109  0.0069  0.2090 -0.0238
 9497OCT     C118993  22.500   4.209  20.897  0.1194  0.0597 -0.0001
 9497OCT     C218994  22.562   3.821  21.202  0.2116  0.1646 -0.0907
 9498OCT     C118995   3.361   2.176   8.082  0.0895 -0.0483 -0.1947
 9498OCT     C218996   3.763   2.101   7.772  0.3363  0.0188 -0.1304
 9499OCT     C118997   7.152   5.762   5.261 -0.1331  0.2716 -0.3100
 9499OCT     C218998   7.082   5.749   4.825 -0.2280  0.1584  0.0300
 9500OCT     C118999  16.460   8.425  21.078  0.0344  0.0720  0.0663
 9500OCT     C219000  16.796   8.119  21.161  0.1692 -0.0161  0.2998
 9501OCT     C119001  15.606  22.432  13.426 -0.0047  0.1273  0.1067
 9501OCT     C219002  15.553  22.891  13.427  0.1715 -0.1516  0.1145
 9502OCT     C119003  15.435   7.253   3.628 -0.2536 -0.2750  0.2830
 9502OCT     C219004  15.837   7.135   3.381 -0.0377  0.2863 -0.1239
 9503OCT     C119005  19.132   2.715   5.821 -0.8080 -0.2000  0.2490
 9503OCT     C219006  19.369   3.109   5.640 -0.1582 -0.0962  0.0919
 9504OCT     C119007  20.482  21.419   7.725 -0.0781 -0.2450 -0.1136
 9504OCT     C219008  20.635  21.109   7.452  0.2945 -0.2121 -0.2044
 9505OCT     C119009  18.026   5.452  11.092  0.0597 -0.0531 -0.0691
 9505OCT     C219010  17.678   5.772  11.180  0.3405  0.1886  0.3455
 9506OCT     C119011  19.035  21.529   9.566  0.0089  0.1483  0.5376
 9506OCT     C219012  19.094  21.932   9.795 -0.1658 -0.0284 -0.3879
 9507OCT     C119013  14.550   5.946  13.956  0.3526 -0.1567  0.0503
 9507OCT     C219014  14.985   6.086  13.972 -0.0611  0.2682  0.1857
 9508OCT     C119015  21.645   9.244  23.597  0.2035 -0.4206  0.1072
 9508OCT     C219016  21.904   9.128   0.192  0.3058 -0.0351 -0.0021
 9509OCT     C119017  14.933  12.929   1.290  0.3281 -0.1759 -0.0944
 9509OCT     C219018  15.016  12.576   1.609  0.3103 -0.2411 -0.2885
 9510OCT     C119019  13.490  13.516   9.692 -0.3842  0.1712  0.0697
 9510OCT     C219020  13.536  13.929   9.433  0.2499  0.1385  0.0961
 9511OCT     C119021   2.601  18.976  10.708 -0.2726  0.2956 -0.1557
 9511OCT     C219022   2.399  18.660  10.387 -0.1955 -0.2087  0.2853
 9512OCT     C119023   0.204   1.131  12.295 -0.0013 -0.2184 -0.0686
 9512OCT     C219024   0.391   0.698  12.401  0.1039  0.0056  0.1653
 9513OCT     C119025  20.265  21.279   1.849  0.0674 -0.0743 -0.2603
 9513OCT     C219026  19.856  21.269   1.737  0.3625  0.0832  0.0726
 9514OCT     C119027  20.997   7.522  13.917 -0.0068  0.3891 -0.0875
 9514OCT     C219028  20.889   7.945  14.087  0.4082  0.2968 -0.2389
 9515OCT     C119029   7.047   5.699  19.962 -0.2518  0.1263 -0.0677
 9515OCT     C219030   6.705   5.732  19.689 -0.1661  0.1609  0.4227
 9516OCT     C119031  21.554   3.091  20.186 -0.1710 -0.1612  0.4084
 9516OCT     C219032  21.725   3.164  20.599  0.0295 -0.0207 -0.0616
 9517OCT     C119033   1.863  16.902   7.994 -0.2066  0.0340 -0.0415
 9517OCT     C219034   1.740  17.365   8.009 -0.1213 -0.3047  0.1935
 9518OCT     C119035  17.749   3.553   5.387 -0.0659 -0.1850  0.1267
 9518OCT     C219036  17.306   3.527   5.602 -0.3878 -0.2223 -0.2507
 9519OCT     C119037  20.264  20.010   2.904  0.2929  0.5025 -0.1565
 9519OCT     C219038  20.152  19.500   2.927  0.1810  0.2063 -0.0871
 9520OCT     C119039  23.498  11.579  12.850  0.3596 -0.0443 -0.1496
 9520OCT     C219040   0.014  11.804  12.607  0.0469 -0.0020  0.1920
 9521OCT     C119041  15.599   0.211   9.009  0.3876 -0.1061  0.2852
 9521OCT     C219042  15.373   0.418   8.611  0.0509  0.1793  0.0751
 9522OCT     C119043  12.062  11.277  21.478 -0.4027  0.0698  0.1352
 9522OCT     C219044  12.457  11.365  21.362  0.1043 -0.0352 -0.2572
 9523OCT     C119045  16.417  10.649  22.483  0.0523 -0.0113  0.1251
 9523OCT     C219046  16.437  11.038  22.211 -0.2092 -0.2198 -0.0476
 9524OCT     C119047  16.170   7.984   3.872  0.0296 -0.2358 -0.0993
 9524OCT     C219048  15.740   8.138   3.673 -0.3286  0.1208 -0.2402
 9525OCT     C119049  12.166  16.052  16.007 -0.2213 -0.0592  0.0312
 9525OCT     C219050  12.026  15.768  16.317  0.3337  0.1000  0.1221
 9526OCT     C119051  18.434  10.120  18.323 -0.0908  0.0601 -0.1222
 9526OCT     C219052  18.659   9.832  18.598  0.1975 -0.1375 -0.0541
 9527OCT     C119053   0.669   0.935  10.118  0.3045  0.3490  0.1380
 9527OCT     C219054   0.493   1.280   9.926 -0.2653  0.5122  0.0071
 9528OCT     C119055  14.848   6.997   9.754 -0.4579  0.3122  0.0983
 9528OCT     C219056  14.664   7.383   9.476 -0.3449 -0.0286  0.0540
 9529OCT     C119057  18.063   7.244  19.887  0.0592 -0.0185 -0.2130
 9529OCT     C219058  18.517   7.087  19.898  0.2369 -0.3738 -0.1668
 9530OCT     C119059   0.394   8.566  19.432  0.0067  0.2113 -0.1266
 9530OCT     C219060   0.076   8.834  19.282  0.2687  0.4533 -0.0729
 9531OCT     C119061  19.783  13.930  10.472 -0.1298  0.1259 -0.3490
 9531OCT     C219062  19.796  14.154  10.059 -0.1565  0.1028  0.3278
 9532OCT     C119063  17.325  11.709   1.778 -0.2132 -0.1150 -0.0229
 9532OCT     C219064  16.832  11.663   1.820  0.0705  0.1313 -0.3217
 9533OCT     C119065  19.363  23.628   0.208  0.0324  0.1066  0.3157
 9533OCT     C219066  19.468   0.269   0.409  0.0082 -0.3276 -0.0497
 9534OCT     C119067  19.814   8.128  12.618  0.1784 -0.3287  0.1399
 9534OCT     C219068  19.745   8.274  13.089 -0.1765 -0.0898  0.1825
 9535OCT     C119069  13.604  16.099   7.302  0.0970  0.0929 -0.2645
 9535OCT     C219070  13.617  16.213   6.868 -0.2410 -0.1984 -0.3230
 9536OCT     C119071   6.774  15.243   8.495 -0.2795  0.3859  0.1345
 9536OCT     C219072   6.351  15.140   8.629  0.1914 -0.0669  0.0251
 9537OCT     C119073   1.715   2.496  12.577  0.1400  0.0245 -0.0132
 9537OCT     C219074   1.637   2.792  12.881 -0.2253 -0.3127  0.0178
 9538OCT     C119075   8.080   7.342  19.082 -0.1460  0.0391  0.2028
 9538OCT     C219076   8.470   7.422  19.367  0.0370 -0.3514  0.0649
 9539OCT     C119077   3.445  10.298   6.790 -0.1139  0.1819  0.2753
 9539OCT     C219078   3.496   9.856   6.868 -0.0766  0.0173  0.1998
 9540OCT     C119079   3.258  11.047  20.915 -0.2400  0.2681 -0.2950
 9540OCT     C219080   3.632  11.176  20.682  0.3563  0.1975  0.0178
 9541OCT     C119081  11.961  14.448   6.076  0.1357  0.0864  0.1090
 9541OCT     C219082  11.905  14.031   6.380 -0.0147 -0.4245 -0.4222
 9542OCT     C119083  12.208  21.182  16.521 -0.0064 -0.1789 -0.3470
 9542OCT     C219084  12.475  21.106  16.873  0.0166  0.2114  0.1442
 9543OCT     C119085   7.837   7.998  15.218  0.1394 -0.2515 -0.0575
 9543OCT     C219086   8.129   8.265  15.123 -0.0338 -0.3350  0.0293
 9544OCT     C119087  20.804   1.394  16.505  0.0683 -0.1395 -0.2471
 9544OCT     C219088  20.732   1.119  16.836  0.0517  0.3031 -0.1236
 9545OCT     C119089   1.082   9.831   3.409  0.1158 -0.2934 -0.0104
 9545OCT     C219090   1.287   9.994   3.779 -0.0000 -0.3161 -0.1398
 9546OCT     C119091  23.000  23.147   8.916 -0.1576  0.0347 -0.1606
 9546OCT     C219092  23.371  23.238   9.185  0.0338  0.3888 -0.1721
 9547OCT     C119093   2.133  13.743   9.826  0.0802 -0.2007  0.0448
 9547OCT     C219094   1.795  14.081   9.785  0.2882  0.1448 -0.1304
 9548OCT     C119095  21.374   5.323  11.126 -0.0360  0.1171  0.0771
 9548OCT     C219096  21.535   5.659  10.819 -0.1137  0.0081  0.3167
 9549OCT     C119097   8.704  21.947  12.193 -0.2038 -0.0106 -0.3645
 9549OCT     C219098   8.714  21.934  12.691 -0.0469  0.0836 -0.0124
 9550OCT     C119099  17.484  22.025  10.100 -0.2765  0.0471  0.0059
 9550OCT     C219100  17.213  21.804   9.760  0.0852  0.3017  0.0021
 9551OCT     C119101  14.405  12.735  20.657 -0.1486 -0.2203  0.1544
 9551OCT     C219102  14.108  12.834  21.049 -0.3091 -0.0290  0.2612
 9552OCT     C119103  10.512  12.397  18.312  0.2777  0.3984 -0.3807
 9552OCT     C219104  10.569  11.985  18.473  0.0319  0.2200 -0.1552
 9553OCT     C119105  11.517  18.962  21.432 -0.2513 -0.0557 -0.0995
 9553OCT     C219106  11.787  18.852  21.760  0.1194  0.2752 -0.1113
 9554OCT     C119107  16.705  23.190  10.585  0.0010  0.0080  0.3266
 9554OCT     C219108  16.231  23.023  10.634 -0.1876 -0.1243  0.0581
 9555OCT     C119109  20.761  12.661  19.560 -0.2007 -0.2118  0.0542
 9555OCT     C219110  20.698  12.572  19.101  0.1329 -0.1968 -0.4556
 9556OCT     C119111   7.020  11.756  19.091  0.0436 -0.1793  0.1432
 9556OCT     C219112   7.489  11.746  19.207  0.1488 -0.1159  0.1987
 9557OCT     C119113  12.094  18.525   7.926 -0.1937 -0.0169  0.1853
 9557OCT     C219114  12.442  18.689   8.114 -0.0790  0.2441  0.0968
 9558OCT     C119115   7.487  22.998   5.810  0.0475  0.0581  0.1463
 9558OCT     C219116   7.895  23.010   5.608 -0.0530  0.2143  0.1895
 9559OCT     C119117  22.790  13.223  16.274  0.0366  0.1998  0.1148
 9559OCT     C219118  23.084  13.399  16.024  0.0508 -0.2523  0.0005
 9560OCT     C119119  13.102  12.032   5.479 -0.1337  0.1295  0.0320
 9560OCT     C219120  12.772  12.079   5.765  0.1054 -0.0782  0.1224
 9561OCT     C119121  16.185   8.595   1.374 -0.2051  0.0007  0.0271
 9561OCT     C219122  16.144   8.677   1.824 -0.2205 -0.2364 -0.2064
 9562OCT     C119123   3.812  15.586   3.913  0.4395  0.2960 -0.0381
 9562OCT     C219124   3.671  15.248   3.675 -0.1075  0.2442 -0.0168
 9563OCT     C119125  10.393   2.198  21.456 -0.3296 -0.1309  0.0265
 9563OCT     C219126  10.425   1.838  21.747  0.0763 -0.0692  0.0539
 9564OCT     C119127   4.654  18.211   5.320  0.2694  0.0902  0.1614
 9564OCT     C219128   4.753  18.418   5.732  0.2482  0.4165 -0.2656
 9565OCT     C119129  17.702   4.599  15.134  0.1592  0.0392  0.5377
 9565OCT     C219130  18.042   4.471  15.451 -0.1796  0.2387 -0.0218
 9566OCT     C119131  16.014  23.423  10.369 -0.0148 -0.1997 -0.3314
 9566OCT     C219132  15.856   0.131  10.466  0.2571  0.0593 -0.0349
 9567OCT     C119133   4.767  22.827  12.949 -0.1123  0.3425 -0.2839
 9567OCT     C219134   4.741  22.440  13.166  0.1755  0.2163 -0.4368
 9568OCT     C119135   5.389  22.011   1.166 -0.0163  0.2402  0.0607
 9568OCT     C219136   5.276  22.153   1.626  0.3934 -0.2638  0.0080
 9569OCT     C119137  13.046   1.371  13.912 -0.5511 -0.4492 -0.4156
 9569OCT     C219138  12.631   1.575  13.978 -0.0234  0.1650 -0.3213
 9570OCT     C119139   4.990   7.299   1.629  0.0968  0.0076 -0.0236
 9570OCT     C219140   5.396   7.133   1.750  0.2468 -0.0968  0.1033
 9571OCT     C119141   6.572  23.319   4.044 -0.0873 -0.0706 -0.0323
 9571OCT     C219142   6.562  22.913   3.799  0.3829  0.2000 -0.0660
 9572OCT     C119143  18.615  17.986  10.042  0.0819 -0.0045 -0.2589
 9572OCT     C219144  18.140  17.980  10.104 -0.2739 -0.0615  0.2750
 9573OCT     C119145   2.001  21.387  21.859 -0.1036 -0.0714 -0.0889
 9573OCT     C219146   1.874  21.844  21.805 -0.1337  0.3191  0.0145
 9574OCT     C119147   0.722  23.211   7.039  0.0947 -0.1963  0.0200
 9574OCT     C219148   0.419  23.362   6.715 -0.0880 -0.2022 -0.0824
 9575OCT     C119149   4.048   1.302   5.480 -0.3139  0.1426  0.0193
 9575OCT     C219150   3.904   0.831   5.460  0.1112  0.1829  0.0424
 9576OCT     C119151   3.404  11.616  10.161 -0.2019 -0.1061  0.1026
 9576OCT     C219152   3.517  12.015   9.982 -0.0677 -0.4224  0.2788
 9577OCT     C119153  18.885  21.144  13.812  0.1106 -0.0653  0.2515
 9577OCT     C219154  18.712  21.016  14.222  0.2737  0.1359 -0.0471
 9578OCT     C119155  18.409  17.744   2.420 -0.2227  0.4632 -0.2181
 9578OCT     C219156  18.868  17.650   2.432  0.1584 -0.0152  0.1066
 9579OCT     C119157  16.601   7.101  16.752  0.1470  0.1445  0.0386
 9579OCT     C219158  16.554   6.713  16.544  0.0068 -0.0849 -0.0601
 9580OCT     C119159   4.174  15.945   2.761  0.4167  0.0359 -0.0037
 9580OCT     C219160   3.843  16.130   2.426  0.0177  0.2725 -0.0102
 9581OCT     C119161  14.690   9.613  22.117  0.1942 -0.0707 -0.1759
 9581OCT     C219162  14.447   9.264  21.864  0.3246 -0.0813 -0.2340
 9582OCT     C119163  12.793   4.778   8.449  0.0211 -0.1797  0.0487
 9582OCT     C219164  13.193   4.778   8.154  0.1649  0.0135 -0.4731
 9583OCT     C119165   9.559   2.012  14.047  0.2813  0.2270 -0.0548
 9583OCT     C219166   9.460   2.412  13.913 -0.3299  0.1407 -0.2374
 9584OCT     C119167  21.350  16.756   5.163  0.3439  0.0297  0.3723
 9584OCT     C219168  21.269  16.508   4.772 -0.0484  0.1888 -0.0795
 9585OCT     C119169  20.227  22.961  18.305 -0.0496 -0.0253  0.2991
 9585OCT     C219170  19.908  23.178  18.057  0.0902  0.0523  0.0379
 9586OCT     C119171  23.691  15.262  14.001  0.4477  0.1512  0.4971
 9586OCT     C219172  23.565  15.181  14.424  0.1034  0.0983 -0.2441
 9587OCT     C119173  12.004   1.014  18.014  0.1485 -0.0238 -0.1157
 9587OCT     C219174  12.176   1.405  17.790  0.1337  0.0437  0.3230
 9588OCT     C119175  22.602  14.626  14.222 -0.0186 -0.0412 -0.0163
 9588OCT     C219176  22.947  14.511  13.911 -0.0727 -0.0209  0.0396
 9589OCT     C119177  17.559  20.261   4.069  0.2081 -0.1575  0.1284
 9589OCT     C219178  17.504  20.052   3.718 -0.0336 -0.1370 -0.0519
 9590OCT     C119179  10.558   9.242  19.722 -0.0859  0.1649 -0.2832
 9590OCT     C219180  10.627   8.943  19.351  0.1722 -0.0035 -0.0446
 9591OCT     C119181  14.022   4.013   4.246  0.3267 -0.3395  0.3019
 9591OCT     C219182  13.612   4.280   4.367  0.2379 -0.0471  0.2673
 9592OCT     C119183  20.856  23.289  22.327 -0.0256 -0.3166 -0.0203
 9592OCT     C219184  21.249  23.446  22.169 -0.1334 -0.0839  0.1758
 9593OCT     C119185   2.114  19.921   6.520 -0.4154 -0.1170  0.3112
 9593OCT     C219186   2.223  19.908   6.996 -0.1819  0.2520 -0.1094
 9594OCT     C119187  13.700  12.200   9.837  0.1578 -0.3100 -0.1245
 9594OCT     C219188  13.235  12.350   9.741  0.1932 -0.0012 -0.0339
 9595OCT     C119189   3.249   6.391  10.227 -0.0969 -0.2680 -0.2303
 9595OCT     C219190   3.076   6.838  10.140 -0.2862  0.2624  0.1055
 9596OCT     C119191  10.377  21.521  18.998  0.0647 -0.0106  0.0275
 9596OCT     C219192   9.977  21.277  19.197  0.2114 -0.0081  0.2001
 9597OCT     C119193  15.485  16.200   0.442 -0.0759  0.0012 -0.2861
 9597OCT     C219194  15.796  16.196   0.761 -0.2179 -0.0137 -0.3811
 9598OCT     C119195  13.995  10.595  21.947 -0.2543  0.3234  0.2270
 9598OCT     C219196  13.804  10.610  22.396 -0.1277 -0.0406  0.1895
 9599OCT     C119197   8.975   7.664  20.258  0.1036  0.0880  0.1187
 9599OCT     C219198   8.962   7.238  20.522 -0.0214  0.1148 -0.0715
 9600OCT     C119199  11.990  16.008  22.160 -0.1154 -0.1493  0.2289
 9600OCT     C219200  12.276  16.276  21.907 -0.1186  0.0177  0.0493
 9601OCT     C119201  19.594  22.736  20.931  0.1060 -0.2034 -0.2803
 9601OCT     C219202  19.419  23.113  20.636  0.0673  0.0561  0.1515
 9602OCT     C119203  21.045   1.782  14.320 -0.5359  0.1943 -0.0763
 9602OCT     C219204  21.210   1.367  14.305 -0.2786  0.0571  0.1333
 9603OCT     C119205   1.028  19.283   2.351  0.3734  0.1770 -0.1961
 9603OCT     C219206   0.673  19.037   2.192  0.2107 -0.0140  0.1376
 9604OCT     C119207  19.242  11.226  17.095 -0.2935 -0.2757 -0.1815
 9604OCT     C219208  18.923  11.434  17.347  0.1310  0.0040 -0.1008
 9605OCT     C119209  19.735  20.431   3.050 -0.1707 -0.2081  0.1418
 9605OCT     C219210  20.172  20.509   2.953  0.2984 -0.0569 -0.2658
 9606OCT     C119211  12.171  19.501   3.056 -0.0560  0.0387 -0.1025
 9606OCT     C219212  11.883  19.627   2.722 -0.3499 -0.1848  0.1728
 9607OCT     C119213  15.282  12.912  13.509  0.3196  0.0765 -0.2207
 9607OCT     C219214  15.530  12.730  13.198  0.1635 -0.0221  0.0285
 9608OCT     C119215  12.415   4.555  10.265 -0.1413  0.0717 -0.1121
 9608OCT     C219216  12.159   4.851  10.457 -0.0490  0.3634  0.2251
 9609OCT     C119217   0.580   5.152   8.143 -0.0809  0.0599 -0.1940
 9609OCT     C219218   0.248   5.028   7.809 -0.0456  0.2408 -0.0829
 9610OCT     C119219  18.585  22.168  23.533 -0.5796 -0.4799  0.2244
 9610OCT     C219220  18.153  22.217  23.590  0.0977 -0.0825 -0.0399
 9611OCT     C119221  21.990  21.314   7.515 -0.1964 -0.0268 -0.5471
 9611OCT     C219222  21.783  21.553   7.144  0.1779  0.2197 -0.1427
 9612OCT     C119223  18.559  13.422  10.734  0.0183  0.1337 -0.0575
 9612OCT     C219224  18.316  13.718  11.020  0.4407  0.1008  0.4254
 9613OCT     C119225   2.562   5.706   5.506 -0.1804 -0.0912 -0.2007
 9613OCT     C219226   2.425   5.893   5.109  0.1768 -0.0197  0.2518
 9614OCT     C119227  12.273   3.864   9.361  0.2809  0.2200 -0.2970
 9614OCT     C219228  12.165   3.450   9.604  0.0712  0.0490  0.0060
 9615OCT     C119229  10.404   7.992  21.105 -0.3091 -0.3323 -0.2251
 9615OCT     C219230  10.456   7.521  21.177 -0.2348 -0.1768  0.0866
 9616OCT     C119231  21.792  10.663   9.825  0.2493 -0.2924 -0.1034
 9616OCT     C219232  21.895  11.054   9.595 -0.1477 -0.3454 -0.3307
 9617OCT     C119233   9.166  10.586   2.770 -0.0579 -0.4686  0.2336
 9617OCT     C219234   9.629  10.418   2.953  0.0881 -0.0229 -0.0325
 9618OCT     C119235   0.559  13.126  22.325 -0.3153 -0.0042  0.0375
 9618OCT     C219236   0.634  12.797  22.033 -0.2617 -0.1594  0.1495
 9619OCT     C119237   3.608   3.979   4.044 -0.3133  0.0357  0.1312
 9619OCT     C219238   3.503   3.721   3.662  0.1752  0.1199  0.1839
 9620OCT     C119239  19.125   6.644   5.205  0.1160  0.3002  0.0614
 9620OCT     C219240  19.178   6.629   4.720  0.4722  0.1377  0.1092
 9621OCT     C119241   4.593  14.401   6.721  0.3826  0.2871  0.2301
 9621OCT     C219242   4.467  14.660   7.108  0.1345 -0.1040  0.2325
 9622OCT     C119243   9.609  23.694  23.405  0.0282  0.1049  0.1992
 9622OCT     C219244   9.562   0.035   0.129  0.1283  0.0419  0.2694
 9623OCT     C119245   1.528   6.878  21.494  0.1119  0.0211 -0.2833
 9623OCT     C219246   1.603   6.987  21.911  0.3035  0.1064  0.1902
 9624OCT     C119247  17.773   5.998   6.596 -0.0430  0.2804 -0.1370
 9624OCT     C219248  17.380   5.985   6.265 -0.3851 -0.0227 -0.1377
 9625OCT     C119249   6.097  20.626  12.594 -0.2372  0.3091 -0.3538
 9625OCT     C219250   6.366  20.959  12.711  0.0468  0.1637  0.0321
 9626OCT     C119251  23.697  15.983  20.132  0.0126  0.1927 -0.4374
 9626OCT     C219252   0.149  15.559  20.055 -0.0321  0.0042  0.0816
 9627OCT     C119253  12.116   2.649  13.774 -0.0102 -0.1344 -0.0735
 9627OCT     C219254  12.540   2.548  13.858  0.5087  0.3505 -0.1415
 9628OCT     C119255   2.005   5.392  10.207  0.2207 -0.1621  0.0519
 9628OCT     C219256   2.175   5.116   9.879 -0.1805 -0.2935  0.2298
 9629OCT     C119257  21.111  15.835  22.374  0.3560 -0.0227  0.1261
 9629OCT     C219258  20.898  15.712  22.780 -0.2381 -0.0225 -0.2621
 9630OCT     C119259  18.924   3.282  14.994  0.0819 -0.3430  0.0651
 9630OCT     C219260  18.837   3.641  15.307 -0.1151 -0.4223 -0.1167
 9631OCT     C119261   0.431  16.900  16.641 -0.1233 -0.1157  0.2944
 9631OCT     C219262   0.538  17.072  17.045 -0.1034  0.0984  0.1760
 9632OCT     C119263  16.823  14.590  18.636  0.5636  0.0284 -0.2073
 9632OCT     C219264  16.691  14.405  19.077  0.3461 -0.0953  0.0950
 9633OCT     C119265   1.681  18.976   5.183  0.1905 -0.2320 -0.2182
 9633OCT     C219266   1.453  19.114   5.548 -0.2077  0.0964 -0.0158
 9634OCT     C119267  22.339  17.836  18.634  0.0413 -0.0091  0.1919
 9634OCT     C219268  22.360  18.137  18.970  0.2001  0.2550 -0.2111
 9635OCT     C119269   7.976  23.523  13.082 -0.3324  0.2030 -0.1571
 9635OCT     C219270   7.670  23.740  13.324 -0.1040  0.2139  0.1695
 9636OCT     C119271  12.338   4.491  12.240  0.3365 -0.0341  0.0308
 9636OCT     C219272  12.313   4.584  11.824 -0.0770 -0.2970 -0.1885
 9637OCT     C119273  23.712  11.098  10.120  0.0824  0.1284  0.1588
 9637OCT     C219274  23.422  11.124   9.731  0.0387 -0.0940  0.2532
 9638OCT     C119275   5.475  19.887  11.541 -0.1254  0.1797 -0.0154
 9638OCT     C219276   5.624  19.867  11.997 -0.2272  0.1025 -0.0413
 9639OCT     C119277   8.572   5.107  14.618 -0.0073  0.0671 -0.5650
 9639OCT     C219278   8.638   5.238  15.100  0.0244  0.2656  0.1322
 9640OCT     C119279  16.577  19.822  10.355 -0.2604  0.3420  0.0313
 9640OCT     C219280  16.206  19.753  10.083  0.1267  0.0703 -0.0098
 9641OCT     C119281   1.115   1.666  15.461 -0.1128 -0.1050 -0.0427
 9641OCT     C219282   1.152   2.062  15.123 -0.2041 -0.0383 -0.0233
 9642OCT     C119283  22.763   3.927  22.069  0.2248 -0.0951  0.0575
 9642OCT     C219284  22.791   4.410  22.085 -0.1355 -0.1620  0.2033
 9643OCT     C119285  22.894  22.677   8.507 -0.1184  0.1702 -0.0122
 9643OCT     C219286  22.680  23.078   8.482 -0.4739 -0.0261  0.0933
 9644OCT     C119287  13.322  21.320  11.513  0.1204 -0.1387 -0.1943
 9644OCT     C219288  13.039  21.647  11.417 -0.1349  0.3080 -0.0183
 9645OCT     C119289   8.371  22.279   5.216  0.2575  0.0707  0.1504
 9645OCT     C219290   8.196  22.682   5.347 -0.3294 -0.3393  0.1805
 9646OCT     C119291   6.183  11.478   4.534 -0.2304 -0.1444 -0.1949
 9646OCT     C219292   6.342  11.386   4.958  0.4902 -0.1104  0.1022
 9647OCT     C119293   4.559   8.950  15.332  0.0252 -0.0140  0.3179
 9647OCT     C219294   4.310   8.602  15.246  0.2460  0.0436 -0.2775
 9648OCT     C119295  17.326   7.339   9.384 -0.1553  0.1931  0.2103
 9648OCT     C219296  16.992   6.992   9.444 -0.0850 -0.1321 -0.0833
 9649OCT     C119297   2.209  14.066  10.712 -0.1011  0.0245 -0.1467
 9649OCT     C219298   2.195  14.260  10.297 -0.2052  0.1057  0.4127
 9650OCT     C119299  17.599   4.652  23.450 -0.3059  0.1178  0.2241
 9650OCT     C219300  17.291   4.653   0.072 -0.4195 -0.0191  0.2164
 9651OCT     C119301   8.472  19.750  13.082 -0.3019  0.0807 -0.1198
 9651OCT     C219302   8.052  19.886  12.866 -0.1061 -0.1066 -0.3039
 9652OCT     C119303   6.511  16.030   2.012  0.0401 -0.2545  0.0381
 9652OCT     C219304   6.846  16.420   2.019  0.2660 -0.5198 -0.1340
 9653OCT     C119305   2.885  13.001  23.028  0.1524  0.0745 -0.3519
 9653OCT     C219306   2.483  13.139  23.057  0.3039 -0.0346  0.1179
 9654OCT     C119307  17.974   3.320  22.323  0.0441  0.2964  0.4664
 9654OCT     C219308  18.035   3.118  22.748 -0.0473  0.1937 -0.0808
 9655OCT     C119309  11.075   3.257   6.092  0.1656  0.2556  0.0824
 9655OCT     C219310  11.461   3.109   6.295 -0.1595  0.0530  0.2043
 9656OCT     C119311   6.268  11.873   7.848 -0.1420  0.2091 -0.1738
 9656OCT     C219312   6.215  11.890   8.345  0.0002 -0.1550  0.0081
 9657OCT     C119313  20.647   7.975   4.231  0.2005 -0.2873 -0.2778
 9657OCT     C219314  20.393   8.357   4.383 -0.4888 -0.2340 -0.2657
 9658OCT     C119315  18.132   4.895   2.044 -0.1205 -0.1103  0.0035
 9658OCT     C219316  17.993   4.569   1.741  0.0037 -0.3143  0.0576
 9659OCT     C119317   4.168  16.542   1.965 -0.0834  0.0225 -0.0388
 9659OCT     C219318   4.428  16.130   1.869  0.1099 -0.0705  0.2932
 9660OCT     C119319  21.578  22.883  22.046  0.1337  0.1771  0.0219
 9660OCT     C219320  21.177  22.975  22.217 -0.3437  0.1649  0.2120
 9661OCT     C119321  20.728   5.068   1.242  0.1511 -0.3001 -0.2590
 9661OCT     C219322  20.462   4.971   0.888  0.3331 -0.3571  0.2589
 9662OCT     C119323   9.785   2.046  18.521 -0.0886  0.2081 -0.0425
 9662OCT     C219324   9.623   1.667  18.322  0.0904 -0.2714 -0.0504
 9663OCT     C119325   9.619   4.204  12.582  0.1122  0.1136 -0.0919
 9663OCT     C219326   9.372   4.594  12.641 -0.4614  0.0597 -0.0714
 9664OCT     C119327  17.535  19.997  22.326 -0.0440 -0.0685 -0.0534
 9664OCT     C219328  17.259  19.633  22.259 -0.1836 -0.1040 -0.1576
 9665OCT     C119329  10.136  19.622  10.284 -0.1732  0.1852 -0.0699
 9665OCT     C219330  10.426  19.750  10.002 -0.2827  0.0292  0.2374
 9666OCT     C119331   1.326  22.582   2.128 -0.3843  0.1031  0.0063
 9666OCT     C219332   1.587  22.587   2.495 -0.3177 -0.3899 -0.2405
 9667OCT     C119333   9.543  18.839  16.675 -0.0164 -0.0993 -0.2297
 9667OCT     C219334   9.844  18.584  16.961  0.1227 -0.0707  0.1423
 9668OCT     C119335   4.854  16.321  11.380  0.1643 -0.1084 -0.0269
 9668OCT     C219336   4.734  16.747  11.068  0.0411 -0.0402  0.0645
 9669OCT     C119337   3.795   0.179  17.941  0.1408 -0.0176  0.2507
 9669OCT     C219338   3.851  23.563  18.286  0.2009  0.2104  0.0896
 9670OCT     C119339  19.901  23.487  21.251 -0.0129  0.0206 -0.4807
 9670OCT     C219340  19.973  23.378  21.656  0.0096  0.1227  0.0685
 9671OCT     C119341  10.210  21.876  22.569  0.0831 -0.0789 -0.2899
 9671OCT     C219342  10.554  21.941  22.914 -0.3209 -0.0875  0.0506
 9672OCT     C119343  10.922  21.882   7.824 -0.3078 -0.0694  0.2841
 9672OCT     C219344  10.888  21.459   7.917 -0.1968  0.3920  0.0920
 9673OCT     C119345  11.582  18.153   5.394 -0.2899  0.3158  0.0391
 9673OCT     C219346  11.505  18.552   5.088  0.1079 -0.0904 -0.2019
 9674OCT     C119347   4.494   4.865  16.713 -0.0424 -0.1732  0.0546
 9674OCT     C219348   4.654   4.510  16.957 -0.4300  0.0999  0.0201
 9675OCT     C119349   9.437  16.801  13.259 -0.0298 -0.1152  0.0947
 9675OCT     C219350   9.841  16.645  13.340 -0.0603  0.2210  0.1482
 9676OCT     C119351   0.102   2.790   7.330  0.0314 -0.0233  0.3177
 9676OCT     C219352  23.620   2.495   7.041  0.3181 -0.1358  0.0058
 9677OCT     C119353   6.239  21.547  15.393 -0.2102  0.2024  0.1725
 9677OCT     C219354   6.506  21.286  15.683  0.1183  0.1867  0.0848
 9678OCT     C119355  20.570  19.811   8.247 -0.0603  0.0849  0.3110
 9678OCT     C219356  20.162  20.036   8.217 -0.0898  0.2251 -0.1550
 9679OCT     C119357   4.366   0.069   0.956 -0.4980  0.3685 -0.0685
 9679OCT     C219358   3.984   0.223   1.092 -0.1238  0.1565  0.2234
 9680OCT     C119359  20.580  20.171  18.928 -0.2885 -0.0247 -0.3108
 9680OCT     C219360  20.898  20.210  18.594  0.1841  0.2286 -0.0237
 9681OCT     C119361  21.176  19.316  17.684 -0.1251 -0.1328 -0.1972
 9681OCT     C219362  21.227  18.926  17.464 -0.3770  0.0863  0.2035
 9682OCT     C119363  23.498  17.111  15.560  0.2031  0.1032 -0.1019
 9682OCT     C219364  23.545  16.687  15.793  0.1227  0.2917  0.0601
 9683OCT     C119365   2.101   2.500  11.964  0.1633  0.2569  0.3414
 9683OCT     C219366   2.469   2.543  12.239  0.1956 -0.0535 -0.2967
 9684OCT     C119367  18.309   2.574  13.121 -0.1016  0.0404 -0.1433
 9684OCT     C219368  17.842   2.604  13.108  0.1718  0.0541 -0.0026
 9685OCT     C119369   5.333   4.521   5.078  0.3528 -0.1891  0.2329
 9685OCT     C219370   4.925   4.318   5.135  0.1460  0.0887 -0.1900
 9686OCT     C119371  21.145   7.590   1.952  0.0614 -0.0691  0.1583
 9686OCT     C219372  21.343   7.815   2.319 -0.0307  0.0661 -0.2118
 9687OCT     C119373  18.290  22.651   0.734  0.2535 -0.5232  0.0705
 9687OCT     C219374  18.095  22.255   0.799  0.0459  0.0573  0.2222
 9688OCT     C119375  21.910   4.823  17.289  0.3878  0.0763  0.4332
 9688OCT     C219376  21.872   4.689  16.853  0.0518  0.1853 -0.1794
 9689OCT     C119377  16.174  19.054  16.375  0.1798  0.3396 -0.3213
 9689OCT     C219378  16.394  18.679  16.449  0.1345  0.0625  0.1410
 9690OCT     C119379  22.488  12.726  11.064 -0.0288  0.2408 -0.1533
 9690OCT     C219380  22.328  12.333  11.136  0.1809 -0.1252 -0.0011
 9691OCT     C119381  11.578   1.679   6.090 -0.2316  0.1539  0.0777
 9691OCT     C219382  12.014   1.612   6.058  0.1925 -0.0339  0.1414
 9692OCT     C119383  19.095  20.173  13.821 -0.2030  0.0153  0.1028
 9692OCT     C219384  19.484  20.406  13.967 -0.2175  0.1347  0.1720
 9693OCT     C119385   1.741  11.408   4.930 -0.0792  0.1246 -0.5545
 9693OCT     C219386   2.127  11.321   5.165 -0.1116  0.4144  0.4050
 9694OCT     C119387   8.861  21.819   9.022 -0.3604 -0.0991  0.2027
 9694OCT     C219388   8.882  21.829   8.552  0.0530 -0.0727 -0.1350
 9695OCT     C119389   2.481   5.464   4.268 -0.2673  0.0705  0.1489
 9695OCT     C219390   2.281   5.365   4.734  0.1833  0.0656  0.2467
 9696OCT     C119391  17.314  22.418  11.039 -0.1890  0.1763 -0.0089
 9696OCT     C219392  16.915  22.238  10.852  0.0731 -0.0021  0.0133
 9697OCT     C119393  10.993  20.719  17.867 -0.0482  0.0678  0.0448
 9697OCT     C219394  10.923  20.407  18.111 -0.2165  0.0588 -0.3788
 9698OCT     C119395  11.710  17.130  19.554  0.2567  0.3276 -0.0121
 9698OCT     C219396  11.885  17.506  19.364 -0.1932 -0.0560  0.0762
 9699OCT     C119397   6.904   6.228  19.915  0.2189 -0.0032 -0.0626
 9699OCT     C219398   7.089   6.663  19.994  0.0661 -0.0279  0.0741
 9700OCT     C119399  19.469  15.464  18.057 -0.0204 -0.2543  0.1836
 9700OCT     C219400  19.536  15.463  17.549  0.3149  0.2776  0.0920
 9701OCT     C119401  21.487  10.591   7.927 -0.0522 -0.0049 -0.1565
 9701OCT     C219402  21.067  10.454   8.039 -0.2437  0.3009 -0.1568
 9702OCT     C119403   7.833  21.828  10.156 -0.2392 -0.0456  0.2659
 9702OCT     C219404   7.937  22.330  10.054 -0.1752  0.1763  0.1130
 9703OCT     C119405  13.815  16.615  20.785 -0.1062  0.1774  0.0290
 9703OCT     C219406  14.221  16.417  20.974 -0.0134 -0.1812  0.3801
 9704OCT     C119407   5.673  13.246   6.780 -0.1919 -0.0675 -0.3261
 9704OCT     C219408   5.751  13.696   6.900 -0.0436  0.3971 -0.1285
 9705OCT     C119409  19.293  19.437   9.560 -0.0574  0.2365  0.0900
 9705OCT     C219410  19.501  19.540   9.175 -0.0788  0.2460  0.0008
 9706OCT     C119411  17.138  18.554   6.462 -0.2128  0.0642  0.0918
 9706OCT     C219412  17.094  18.074   6.488 -0.2921  0.0200  0.2899
 9707OCT     C119413  11.787  19.540  15.585 -0.2885  0.1815 -0.2331
 9707OCT     C219414  12.102  19.196  15.689 -0.0395 -0.0588 -0.1894
 9708OCT     C119415   0.211  21.668  16.336 -0.1963 -0.1996  0.1284
 9708OCT     C219416   0.481  21.731  16.001 -0.1570  0.1171  0.1900
 9709OCT     C119417   7.797  18.259   4.274 -0.1501 -0.5443 -0.1319
 9709OCT     C219418   7.434  17.993   4.181  0.4916  0.2167  0.0546
 9710OCT     C119419   1.678  17.629   4.837  0.1191 -0.1659  0.2171
 9710OCT     C219420   1.530  17.938   5.148 -0.3392 -0.0260 -0.1393
 9711OCT     C119421  21.738  11.711  17.529  0.4968 -0.0705 -0.1855
 9711OCT     C219422  21.976  11.391  17.282  0.0719 -0.0434  0.3292
 9712OCT     C119423  16.952   0.525  22.398  0.2295 -0.3287 -0.1043
 9712OCT     C219424  16.993   0.242  22.013  0.1041 -0.0531  0.1381
 9713OCT     C119425  17.928   7.202  14.383  0.3650  0.0688  0.0792
 9713OCT     C219426  18.194   7.414  14.062  0.1487  0.0905 -0.3200
 9714OCT     C119427   6.208   7.793   4.604 -0.0293  0.0626  0.0337
 9714OCT     C219428   5.745   7.833   4.403 -0.3436  0.2418 -0.2394
 9715OCT     C119429  11.225  21.674   3.964  0.0010  0.0424  0.1267
 9715OCT     C219430  10.892  21.333   4.044 -0.4018 -0.0754  0.4220
 9716OCT     C119431  21.624  12.546  12.479 -0.2398 -0.0367  0.0577
 9716OCT     C219432  21.949  12.323  12.763  0.1601 -0.1208 -0.0603
 9717OCT     C119433   4.106  14.935   7.607  0.1601  0.2505 -0.1809
 9717OCT     C219434   4.448  15.125   7.333 -0.0352  0.0393 -0.1906
 9718OCT     C119435  22.585  15.562   8.975  0.0349 -0.0014  0.4159
 9718OCT     C219436  22.511  15.782   8.538  0.0662 -0.0083  0.0286
 9719OCT     C119437   7.320   4.798   9.053  0.2800 -0.1938 -0.1574
 9719OCT     C219438   7.514   4.435   9.285  0.1150  0.1347 -0.1339
 9720OCT     C119439  18.642   1.216  18.203  0.1890  0.1766 -0.0622
 9720OCT     C219440  18.244   1.429  18.421 -0.0334  0.2957  0.1549
 9721OCT     C119441   8.754   6.028   1.421 -0.0954  0.1065  0.0497
 9721OCT     C219442   8.706   6.453   1.171  0.1446 -0.1808 -0.5031
 9722OCT     C119443  23.343  16.409  11.748 -0.0511  0.1470 -0.3251
 9722OCT     C219444  23.647  16.793  11.887 -0.1820 -0.0153  0.0646
 9723OCT     C119445  19.557  15.011   5.533  0.1131 -0.1004 -0.2949
 9723OCT     C219446  19.569  14.642   5.782 -0.0860 -0.1175  0.1192
 9724OCT     C119447   7.258  10.836   5.225  0.0116 -0.1890  0.4447
 9724OCT     C219448   7.693  11.011   5.190  0.0715 -0.0474  0.1244
 9725OCT     C119449   8.431  17.112   2.512 -0.0713 -0.2801  0.4412
 9725OCT     C219450   8.406  16.852   2.147  0.1114 -0.2364  0.2900
 9726OCT     C119451   3.350   3.458  14.442 -0.2393 -0.3672  0.0738
 9726OCT     C219452   3.486   3.884  14.376 -0.2900 -0.0106 -0.2387
 9727OCT     C119453  18.716  16.346   5.244 -0.0116 -0.0776  0.1009
 9727OCT     C219454  18.320  16.545   5.431  0.0021  0.0498 -0.0123
 9728OCT     C119455  13.531   9.127  16.384 -0.1375  0.1233 -0.2575
 9728OCT     C219456  13.598   9.507  16.056  0.0304  0.0735  0.2193
 9729OCT     C119457   7.057   2.251  23.337  0.2932  0.0022  0.2356
 9729OCT     C219458   7.228   1.875  23.436 -0.0234  0.0389 -0.1168
 9730OCT     C119459   8.069  20.421  21.123 -0.1130 -0.0175  0.3060
 9730OCT     C219460   8.486  20.437  21.429  0.4096  0.0954 -0.1924
 9731OCT     C119461   4.522  14.304  17.870 -0.1031 -0.1344  0.1381
 9731OCT     C219462   4.865  14.094  17.713  0.1505  0.1965 -0.1509
 9732OCT     C119463   8.220   9.685   6.970 -0.0495  0.0609 -0.4778
 9732OCT     C219464   8.429  10.009   6.753 -0.2790 -0.1628  0.0258
 9733OCT     C119465   7.494  20.711  23.233 -0.1378 -0.0144  0.2114
 9733OCT     C219466   7.416  20.379  22.900 -0.0541  0.4170 -0.0206
 9734OCT     C119467   3.268   5.002   7.353  0.2622  0.0531 -0.1141
 9734OCT     C219468   3.080   5.095   6.947  0.1346 -0.1555  0.4272
 9735OCT     C119469   1.207   6.982  12.140  0.0338  0.0660 -0.4816
 9735OCT     C219470   1.253   7.412  12.233 -0.2821 -0.0208 -0.0340
 9736OCT     C119471  17.031  17.865   1.264  0.1238  0.2617 -0.0449
 9736OCT     C219472  16.982  17.423   1.131 -0.4673  0.1552  0.4988
 9737OCT     C119473  22.929  21.883  23.682 -0.1345 -0.0110 -0.1692
 9737OCT     C219474  22.889  22.311  23.689 -0.1730  0.0684  0.5214
 9738OCT     C119475  15.669   8.306   5.472 -0.0823  0.2507 -0.1993
 9738OCT     C219476  16.061   8.130   5.602 -0.0208  0.0063  0.2460
 9739OCT     C119477  21.227  13.165  12.900  0.1728 -0.2970 -0.0815
 9739OCT     C219478  21.573  13.076  12.589  0.1026 -0.1461  0.1697
 9740OCT     C119479  13.709   5.566   9.584 -0.1939 -0.1839 -0.0414
 9740OCT     C219480  13.596   5.262   9.871  0.0594  0.0523 -0.0690
 9741OCT     C119481  15.769   2.262   5.012  0.2076  0.1210  0.1624
 9741OCT     C219482  16.225   2.070   5.002  0.0484  0.2443  0.2969
 9742OCT     C119483  21.235  10.011   3.652 -0.3195  0.4095  0.1002
 9742OCT     C219484  21.407   9.548   3.700 -0.0700 -0.0660  0.2466
 9743OCT     C119485   4.066  18.865  16.047 -0.2640  0.1780 -0.3226
 9743OCT     C219486   4.229  19.201  15.719  0.0742  0.2507 -0.1658
 9744OCT     C119487  22.064  15.550  10.888 -0.2717 -0.5088  0.2133
 9744OCT     C219488  22.214  15.293  11.273 -0.1411  0.1017 -0.3253
 9745OCT     C119489   8.323  18.588   9.715  0.4170  0.3480 -0.1318
 9745OCT     C219490   8.243  18.359  10.088  0.1583 -0.1586  0.0659
 9746OCT     C119491   5.945  21.276  21.530  0.1226  0.1457  0.1195
 9746OCT     C219492   6.161  21.506  21.885  0.3699 -0.0979  0.3131
 9747OCT     C119493  11.301  19.732  10.438  0.0548  0.1641  0.3169
 9747OCT     C219494  11.675  19.519  10.600 -0.0525  0.1346  0.1474
 9748OCT     C119495  20.684  11.318  17.430  0.1650  0.1602  0.4294
 9748OCT     C219496  20.683  11.044  17.066 -0.2528  0.5766  0.1639
 9749OCT     C119497   5.033   2.648  12.892  0.4652 -0.1491  0.1777
 9749OCT     C219498   5.483   2.760  13.078  0.3601 -0.1321  0.1435
 9750OCT     C119499  13.721  18.362   5.161 -0.3086  0.1757  0.0130
 9750OCT     C219500  13.390  18.642   5.364 -0.0618  0.0602  0.2244
 9751OCT     C119501   2.963  22.213   2.654  0.0159  0.2243 -0.0466
 9751OCT     C219502   2.796  21.922   2.293 -0.3853  0.0250  0.2300
 9752OCT     C119503   5.195   4.357  20.630  0.1686 -0.0832  0.0739
 9752OCT     C219504   5.361   4.478  20.198 -0.0586  0.2754 -0.0242
 9753OCT     C119505  16.731   8.192   5.481  0.1215  0.0286  0.3052
 9753OCT     C219506  16.416   8.468   5.322 -0.1301 -0.3905  0.0851
 9754OCT     C119507   9.223   7.832   3.500  0.1028 -0.1950  0.0334
 9754OCT     C219508   9.228   7.990   3.940  0.0761 -0.1041 -0.0654
 9755OCT     C119509   8.728  23.022  18.105  0.1841  0.2339  0.2302
 9755OCT     C219510   8.609  23.424  18.239 -0.4600  0.0797 -0.0787
 9756OCT     C119511  21.719   3.579   4.961 -0.3292  0.2543 -0.0548
 9756OCT     C219512  21.526   3.184   5.020  0.1006  0.1408  0.0080
 9757OCT     C119513  21.693  21.393   8.015  0.2551 -0.1460  0.0182
 9757OCT     C219514  21.530  21.468   7.551  0.1781 -0.1260 -0.0507
 9758OCT     C119515   7.799  19.714  14.758  0.4558  0.3108  0.1137
 9758OCT     C219516   8.223  19.854  14.841 -0.3021  0.3848  0.1958
 9759OCT     C119517  19.270   3.820  15.046  0.3975 -0.0213  0.3423
 9759OCT     C219518  19.235   4.255  15.036  0.5377  0.3267  0.1581
 9760OCT     C119519  20.619  15.944  15.639 -0.0786  0.0564  0.1310
 9760OCT     C219520  20.821  16.315  15.535  0.0306 -0.2272  0.2082
 9761OCT     C119521  19.081   0.409  12.186  0.1919  0.0194  0.1010
 9761OCT     C219522  18.876   0.401  11.756  0.0015  0.2659 -0.4159
 9762OCT     C119523   4.633   2.222  23.122 -0.2355 -0.0528  0.6149
 9762OCT     C219524   4.236   1.971  23.287 -0.1465  0.1745  0.4467
 9763OCT     C119525   1.012   0.282   4.181 -0.4899  0.1572 -0.3846
 9763OCT     C219526   1.084   0.583   3.797  0.2305  0.2680 -0.1200
 9764OCT     C119527  13.480  20.906   5.704  0.2322 -0.1621  0.0411
 9764OCT     C219528  13.529  21.132   5.263  0.0786 -0.4412  0.1055
 9765OCT     C119529  19.533   9.860   7.101  0.0187 -0.1817  0.0418
 9765OCT     C219530  19.666   9.996   7.471  0.1729  0.0099 -0.2245
 9766OCT     C119531   1.544  13.210  19.996 -0.0547 -0.1699 -0.3838
 9766OCT     C219532   1.878  13.432  20.284  0.1057 -0.1902  0.0544
 9767OCT     C119533  20.056  17.230  11.990  0.3308 -0.0913  0.1269
 9767OCT     C219534  20.305  17.022  12.401  0.0482 -0.0416  0.3918
 9768OCT     C119535  11.948   3.758   5.483 -0.0290  0.1368 -0.1332
 9768OCT     C219536  11.745   3.919   5.941 -0.1803  0.1881  0.1359
 9769OCT     C119537  22.464   4.366  20.435 -0.1383  0.2448  0.0203
 9769OCT     C219538  22.057   4.643  20.419  0.0389 -0.0393  0.0431
 9770OCT     C119539   7.658   7.397   8.490  0.1504 -0.1486  0.1364
 9770OCT     C219540   7.766   7.212   8.033  0.0682  0.2912 -0.2638
 9771OCT     C119541   5.826   5.870  20.178  0.3628 -0.3555 -0.1095
 9771OCT     C219542   5.587   5.574  20.445 -0.5950  0.2889  0.1072
 9772OCT     C119543  10.420   5.144   6.255  0.4235  0.1005 -0.0579
 9772OCT     C219544  10.168   4.942   5.914 -0.0860 -0.5094 -0.0520
 9773OCT     C119545   3.030   8.472   6.982 -0.0082 -0.1848  0.1542
 9773OCT     C219546   2.659   8.643   7.191  0.0273 -0.0335 -0.0901
 9774OCT     C119547  18.222  16.051  17.500  0.0954  0.1495  0.1745
 9774OCT     C219548  17.963  15.884  17.129  0.0570 -0.3134  0.1191
 9775OCT     C119549   9.661  13.489  19.591  0.0610  0.1465 -0.0447
 9775OCT     C219550   9.214  13.629  19.495 -0.0311 -0.2390  0.0932
 9776OCT     C119551   3.344  14.297  19.875  0.4122 -0.0904  0.1988
 9776OCT     C219552   3.353  13.911  20.144  0.0825  0.0259  0.0339
 9777OCT     C119553  13.178   9.722  17.130 -0.2249  0.1021 -0.0568
 9777OCT     C219554  12.955   9.471  16.820 -0.0396  0.3243 -0.1530
 9778OCT     C119555  12.820  23.304  11.602 -0.1300  0.0158  0.0017
 9778OCT     C219556  12.892   0.023  11.675 -0.1832  0.3728  0.1512
 9779OCT     C119557   7.561  19.472   7.882 -0.1568 -0.1986  0.0460
 9779OCT     C219558   7.519  19.799   7.511 -0.2798 -0.0571 -0.1410
 9780OCT     C119559  19.091  13.740   9.499  0.2363 -0.0637  0.3102
 9780OCT     C219560  19.506  13.862   9.641 -0.3691 -0.2441  0.3156
 9781OCT     C119561   4.137  13.746  12.935  0.1703 -0.2294  0.2169
 9781OCT     C219562   4.080  13.609  13.340 -0.1425  0.1786 -0.1705
 9782OCT     C119563  18.100   1.430  20.830 -0.0815 -0.1188  0.0288
 9782OCT     C219564  18.215   1.134  21.180  0.0270  0.0270 -0.1310
 9783OCT     C119565   6.176   1.340  16.046 -0.1334 -0.3611  0.1337
 9783OCT     C219566   6.383   0.980  15.892 -0.1411 -0.4527 -0.0818
 9784OCT     C119567  19.542   9.882  17.328 -0.1258 -0.0508  0.2085
 9784OCT     C219568  19.221  10.056  17.047  0.2500  0.0138 -0.0762
 9785OCT     C119569  17.145  14.950   3.183 -0.2987  0.2489  0.2568
 9785OCT     C219570  17.046  15.119   2.771 -0.2416  0.2014  0.0183
 9786OCT     C119571  19.024   1.027   3.524  0.0829  0.3370 -0.0564
 9786OCT     C219572  18.864   1.450   3.635 -0.2367  0.3645 -0.0997
 9787OCT     C119573   5.997   6.762  10.541  0.4610  0.0829 -0.2250
 9787OCT     C219574   5.601   6.984  10.703  0.0672 -0.0122 -0.2886
 9788OCT     C119575   7.608   6.731  22.315 -0.1529 -0.0782  0.4996
 9788OCT     C219576   7.811   6.875  22.716 -0.1478  0.3620  0.0165
 9789OCT     C119577  18.562   1.112  16.880  0.0061 -0.2332 -0.1203
 9789OCT     C219578  18.742   0.621  16.858  0.2589 -0.1112  0.3172
 9790OCT     C119579  20.216  13.291  20.237  0.0090 -0.0248 -0.2780
 9790OCT     C219580  20.510  13.001  19.949  0.2032 -0.1658 -0.2970
 9791OCT     C119581  20.103  11.478   9.621  0.0481 -0.0184  0.0496
 9791OCT     C219582  19.748  11.172   9.547  0.1631  0.2225 -0.1339
 9792OCT     C119583  10.835  12.608  21.912 -0.2110  0.2003 -0.1175
 9792OCT     C219584  11.085  12.974  21.868  0.1235 -0.1002  0.2623
 9793OCT     C119585  13.592   2.151   9.116  0.1793  0.0130  0.1288
 9793OCT     C219586  14.021   2.396   9.161  0.0915  0.1958 -0.0192
 9794OCT     C119587   7.939   1.942  16.210  0.1276  0.4409 -0.2621
 9794OCT     C219588   7.515   2.090  16.376 -0.0301 -0.2295  0.2678
 9795OCT     C119589   5.390  11.995   6.206 -0.3322 -0.4177 -0.2089
 9795OCT     C219590   5.330  12.472   6.072  0.0026 -0.0002  0.3202
 9796OCT     C119591  20.567  16.174   8.252  0.0263  0.1573 -0.1378
 9796OCT     C219592  20.658  15.782   7.988  0.0612 -0.0147 -0.1185
 9797OCT     C119593  10.003  15.938   7.435 -0.2152  0.3059  0.1970
 9797OCT     C219594  10.354  16.186   7.653  0.1856 -0.0781  0.0699
 9798OCT     C119595  19.791   9.056   3.628  0.1954 -0.0004 -0.0891
 9798OCT     C219596  20.080   9.138   3.314  0.0792  0.2125  0.3963
 9799OCT     C119597  19.303  20.750  18.029  0.1017  0.2118  0.0473
 9799OCT     C219598  19.674  20.709  17.829  0.0295 -0.1948  0.1282
 9800OCT     C119599   3.230   4.246  21.088  0.0103 -0.1984  0.2742
 9800OCT     C219600   3.100   4.567  21.444 -0.1349 -0.1421 -0.2026
 9801OCT     C119601  14.133   4.069  20.827  0.3566 -0.2682 -0.0252
 9801OCT     C219602  14.254   4.533  20.719  0.0049  0.2063 -0.3826
 9802OCT     C119603  23.274  12.835   6.761  0.1783  0.0432 -0.0763
 9802OCT     C219604  23.699  12.534   6.796  0.0967 -0.1557 -0.1858
 9803OCT     C119605   0.928  18.763  13.371 -0.2911 -0.0150  0.0815
 9803OCT     C219606   1.080  19.103  13.110  0.0749 -0.1608 -0.5390
 9804OCT     C119607   1.028  11.178  19.166 -0.0976 -0.2505  0.0986
 9804OCT     C219608   0.995  10.785  18.921 -0.3165 -0.5056 -0.3103
 9805OCT     C119609  23.682   4.283  20.845 -0.1016 -0.1633  0.0996
 9805OCT     C219610   0.164   4.063  20.504  0.0402 -0.1044 -0.2369
 9806OCT     C119611   7.592   5.186   0.070 -0.1360 -0.0658 -0.1153
 9806OCT     C219612   8.019   5.277   0.103 -0.0982  0.0702 -0.1363
 9807OCT     C119613   1.199   5.639   3.308 -0.1746  0.0041  0.2105
 9807OCT     C219614   1.287   5.524   3.730 -0.4125  0.5012 -0.3518
 9808OCT     C119615  15.703  23.261   2.410  0.1535  0.1428 -0.1041
 9808OCT     C219616  15.479  23.655   2.288 -0.1856 -0.1307  0.1082
 9809OCT     C119617  17.186   5.824  15.415 -0.0133 -0.0667  0.1508
 9809OCT     C219618  17.155   5.591  15.006 -0.2511  0.1351 -0.2452
 9810OCT     C119619  10.168   6.549  21.402 -0.0863  0.1218 -0.1068
 9810OCT     C219620  10.124   6.604  20.909 -0.1162 -0.0878 -0.1701
 9811OCT     C119621  14.225   4.232  19.407  0.2019 -0.2305 -0.3370
 9811OCT     C219622  14.105   4.646  19.487  0.1327  0.0277  0.0812
 9812OCT     C119623   5.132  22.907  15.507 -0.0157 -0.0447  0.0697
 9812OCT     C219624   4.928  22.413  15.640 -0.1708 -0.4678 -0.0967
 9813OCT     C119625   6.729  12.241   4.652 -0.1448  0.0562  0.4297
 9813OCT     C219626   6.667  11.769   4.674 -0.1825 -0.0782  0.0207
 9814OCT     C119627   1.632  16.124  11.278 -0.0167 -0.4044  0.2877
 9814OCT     C219628   1.577  16.478  10.972  0.1206  0.4374 -0.4059
 9815OCT     C119629   7.847   2.363  16.865 -0.0641  0.2928 -0.4028
 9815OCT     C219630   7.535   2.097  17.072  0.2537  0.0593 -0.0365
 9816OCT     C119631   9.757  20.407   7.297  0.2553  0.0116 -0.0884
 9816OCT     C219632  10.156  20.312   7.523 -0.0196  0.1601 -0.0605
 9817OCT     C119633  19.692  15.750  18.734  0.1281  0.2222 -0.1402
 9817OCT     C219634  19.662  15.834  19.191  0.0864  0.2926  0.0908
 9818OCT     C119635   9.603  14.966  22.557  0.0272  0.3960 -0.1709
 9818OCT     C219636   9.591  15.417  22.375  0.0991  0.2468  0.0176
 9819OCT     C119637  23.501  18.462  23.211 -0.0547  0.0598 -0.1441
 9819OCT     C219638   0.228  18.470  23.342 -0.1766 -0.4103 -0.0288
 9820OCT     C119639   5.617  11.248  12.342  0.1240 -0.3330 -0.0982
 9820OCT     C219640   5.290  11.188  12.072  0.2759  0.6991 -0.3348
 9821OCT     C119641  21.729  13.064   5.128  0.1385 -0.0237  0.0906
 9821OCT     C219642  21.969  13.283   5.445 -0.2810  0.1295  0.1898
 9822OCT     C119643  21.500  16.424   2.549  0.1679  0.1406  0.2088
 9822OCT     C219644  21.927  16.466   2.296  0.1634  0.0406 -0.2584
 9823OCT     C119645   7.094   1.703  14.791  0.0819  0.6346 -0.3893
 9823OCT     C219646   7.434   1.366  15.020 -0.2805 -0.1446  0.1368
 9824OCT     C119647  16.777   7.951   4.960 -0.1950 -0.2833 -0.0203
 9824OCT     C219648  17.171   7.928   5.195 -0.2252 -0.2838  0.0919
 9825OCT     C119649  17.993  10.326  15.159 -0.1713 -0.1379  0.0228
 9825OCT     C219650  17.566  10.148  14.981  0.1177  0.0608 -0.0670
 9826OCT     C119651   0.748   0.816   1.890 -0.1431 -0.0867  0.0487
 9826OCT     C219652   0.448   0.519   1.661  0.2154 -0.1356 -0.3779
 9827OCT     C119653   8.671  21.462  12.788 -0.2973 -0.1148  0.0796
 9827OCT     C219654   8.956  21.127  12.987 -0.0053  0.0507  0.0056
 9828OCT     C119655   1.138   3.337  15.898 -0.2822  0.0255 -0.1051
 9828OCT     C219656   0.727   3.230  15.627 -0.2421  0.0073 -0.0016
 9829OCT     C119657   9.177  16.233  18.364 -0.3394 -0.2948  0.1807
 9829OCT     C219658   9.372  16.525  18.707 -0.0366  0.3027  0.0696
 9830OCT     C119659  17.854  17.124   9.208 -0.3726  0.0895  0.0584
 9830OCT     C219660  17.539  17.417   9.435  0.0309  0.1092 -0.2345
 9831OCT     C119661  12.435   6.475   4.286  0.0962  0.1818 -0.0806
 9831OCT     C219662  12.910   6.503   4.459 -0.1772 -0.3938  0.0353
 9832OCT     C119663  15.129  11.822  17.751 -0.1908 -0.3942 -0.0025
 9832OCT     C219664  14.674  11.943  17.741  0.1805  0.3806 -0.1940
 9833OCT     C119665  19.331  10.017   5.980 -0.0716 -0.5303 -0.0617
 9833OCT     C219666  19.440   9.617   5.721 -0.0193 -0.0401  0.0849
 9834OCT     C119667  22.310  14.918   7.136 -0.1969 -0.0118 -0.1277
 9834OCT     C219668  22.169  14.748   7.558 -0.2486  0.2132 -0.0540
 9835OCT     C119669   8.542  17.096   3.428 -0.1704 -0.0279  0.0176
 9835OCT     C219670   8.552  16.863   3.816  0.3629 -0.2235 -0.2819
 9836OCT     C119671   8.110  10.673   5.585 -0.1262 -0.0051  0.2057
 9836OCT     C219672   8.443  10.927   5.781 -0.5086 -0.0387 -0.0254
 9837OCT     C119673   2.388  11.309   7.325 -0.2626  0.1109 -0.0771
 9837OCT     C219674   2.508  11.296   6.855 -0.2912  0.0316 -0.3521
 9838OCT     C119675   1.117   1.322  21.567  0.1213 -0.3143 -0.2189
 9838OCT     C219676   1.457   1.054  21.761 -0.3215 -0.2578  0.1961
 9839OCT     C119677   6.729   6.213  20.737 -0.3097 -0.0253  0.1848
 9839OCT     C219678   6.645   6.337  20.304 -0.3579 -0.3065  0.0041
 9840OCT     C119679  14.815   7.905   3.692 -0.1962  0.0569 -0.0344
 9840OCT     C219680  14.910   7.639   4.032  0.2635  0.2328  0.0465
 9841OCT     C119681   4.842   8.714   6.595  0.2257 -0.1430  0.0911
 9841OCT     C219682   4.609   9.021   6.360  0.1922  0.1010 -0.0104
 9842OCT     C119683   9.440  21.098   5.589 -0.0652  0.1143  0.4695
 9842OCT     C219684   9.885  20.862   5.451  0.2984  0.2758 -0.0174
 9843OCT     C119685   7.214   9.336   6.403 -0.1441  0.2683 -0.2232
 9843OCT     C219686   6.841   9.072   6.302 -0.0105 -0.1573  0.1231
 9844OCT     C119687  22.792   2.862  13.537  0.5149  0.1245 -0.0244
 9844OCT     C219688  22.857   2.472  13.261  0.1804  0.0189 -0.2921
 9845OCT     C119689   7.889  11.527   9.485  0.2413 -0.1650  0.2382
 9845OCT     C219690   7.653  11.437   9.813  0.1333  0.1029 -0.1964
 9846OCT     C119691  10.112  17.995   0.121 -0.1644 -0.1506 -0.0868
 9846OCT     C219692  10.504  18.272   0.019 -0.0201 -0.0747 -0.1220
 9847OCT     C119693   3.127  18.143  11.840  0.0813 -0.3110 -0.0928
 9847OCT     C219694   2.733  18.148  12.123  0.1308 -0.0820  0.1834
 9848OCT     C119695   2.523   9.634  16.091  0.1421  0.1378 -0.0262
 9848OCT     C219696   2.094   9.753  16.226  0.1150 -0.0365 -0.0424
 9849OCT     C119697   0.479   0.077  12.752 -0.2137 -0.2057  0.1604
 9849OCT     C219698   0.620   0.227  13.158 -0.0283 -0.0221  0.1680
 9850OCT     C119699  12.815  22.625  21.770 -0.3030  0.2605  0.1806
 9850OCT     C219700  12.465  22.285  21.819 -0.1658  0.1479 -0.0868
 9851OCT     C119701   3.374  11.428  13.735  0.6061 -0.3771  0.4405
 9851OCT     C219702   3.640  11.690  13.963 -0.1028  0.3161  0.0436
 9852OCT     C119703   3.639   1.575   5.620  0.1019 -0.0766 -0.1601
 9852OCT     C219704   3.738   1.639   5.198 -0.1216 -0.3652 -0.1581
 9853OCT     C119705  19.713  15.435  14.186 -0.4745  0.0075 -0.2135
 9853OCT     C219706  20.025  15.749  14.352  0.4516  0.0642 -0.2387
 9854OCT     C119707  13.949  11.593  20.935 -0.0208  0.0647 -0.0669
 9854OCT     C219708  14.276  11.423  20.591  0.1102  0.0704  0.1585
 9855OCT     C119709   3.074  17.939   8.446 -0.0207  0.2185 -0.2834
 9855OCT     C219710   2.700  17.979   8.745 -0.0685  0.2551  0.0692
 9856OCT     C119711  23.616   6.616   6.007  0.3218 -0.0435 -0.1766
 9856OCT     C219712   0.303   6.460   5.983 -0.2298 -0.3583  0.1274
 9857OCT     C119713   9.405  13.118  19.306 -0.2652 -0.1776 -0.2374
 9857OCT     C219714   9.183  12.973  18.882  0.1879 -0.0948 -0.1931
 9858OCT     C119715  21.393   6.307  11.081  0.0822 -0.0649 -0.0429
 9858OCT     C219716  21.716   6.610  11.333  0.0026 -0.0819 -0.1044
 9859OCT     C119717   3.792  14.318   4.679  0.2771  0.0307 -0.1267
 9859OCT     C219718   3.848  14.579   5.055  0.1531 -0.1607 -0.0097
 9860OCT     C119719   2.893   4.681   1.138 -0.1814  0.2717 -0.2824
 9860OCT     C219720   2.984   4.789   1.558 -0.1723  0.1945 -0.3158
 9861OCT     C119721   5.787   9.158   1.612  0.2134  0.0839  0.3396
 9861OCT     C219722   5.674   9.340   1.182  0.1564 -0.2215 -0.1469
 9862OCT     C119723  21.196  19.899  19.969 -0.2175  0.0331  0.1670
 9862OCT     C219724  21.426  20.071  19.640 -0.1602  0.0964  0.4477
 9863OCT     C119725   7.995  12.781   5.948  0.5954  0.0727  0.0041
 9863OCT     C219726   8.148  12.639   5.527 -0.1186  0.1105  0.0409
 9864OCT     C119727   3.745   2.727   5.725 -0.3868 -0.0757 -0.2859
 9864OCT     C219728   4.057   2.397   5.657 -0.0380 -0.2127 -0.1937
 9865OCT     C119729   3.194  12.135  18.051 -0.2272  0.0416 -0.2494
 9865OCT     C219730   2.926  12.210  17.638 -0.0028 -0.1879  0.1210
 9866OCT     C119731   5.649   0.857  23.419  0.2159  0.0332  0.2612
 9866OCT     C219732   5.221   0.999  23.459  0.2119 -0.2861 -0.0149
 9867OCT     C119733  10.867  12.155  14.131  0.0183  0.0009 -0.0588
 9867OCT     C219734  11.297  12.095  14.246 -0.0239 -0.3657  0.0669
 9868OCT     C119735   5.079  16.187  16.319  0.0401  0.3195  0.1155
 9868OCT     C219736   4.976  16.591  16.641 -0.0820  0.0198 -0.0046
 9869OCT     C119737  19.185   1.302  11.455  0.0943 -0.1405 -0.0050
 9869OCT     C219738  19.360   1.238  11.001  0.0437 -0.1903 -0.1186
 9870OCT     C119739   7.771   3.972  12.648  0.2122 -0.0192 -0.0224
 9870OCT     C219740   8.149   3.695  12.771 -0.3022 -0.3147 -0.1331
 9871OCT     C119741  17.152   2.004  10.797  0.1856 -0.2259  0.0123
 9871OCT     C219742  17.558   2.173  10.903 -0.4986  0.2161 -0.0050
 9872OCT     C119743   2.795  18.301   8.327  0.3236  0.1732 -0.1034
 9872OCT     C219744   2.938  18.446   7.884  0.2825  0.1113 -0.2878
 9873OCT     C119745   8.879  16.697   6.131 -0.0962 -0.4067 -0.4411
 9873OCT     C219746   8.389  16.669   6.101 -0.1163 -0.2026  0.1131
 9874OCT     C119747  23.049  16.074   3.562  0.2150 -0.2081 -0.0371
 9874OCT     C219748  22.923  15.914   3.179  0.0577 -0.2361  0.3058
 9875OCT     C119749   3.384   2.505  13.737 -0.2825 -0.0002 -0.1956
 9875OCT     C219750   3.005   2.694  13.891  0.0188  0.2231 -0.0624
 9876OCT     C119751   6.289   6.164   8.276 -0.0183 -0.0796  0.3367
 9876OCT     C219752   6.429   6.580   8.498  0.0128  0.1538 -0.1272
 9877OCT     C119753  15.157  18.078  20.906  0.4320  0.1812  0.0106
 9877OCT     C219754  14.891  18.451  20.885 -0.1998 -0.2324  0.0017
 9878OCT     C119755  21.361   8.237   4.949 -0.2609  0.1319 -0.3405
 9878OCT     C219756  21.072   8.537   4.918 -0.2521 -0.0201 -0.2719
 9879OCT     C119757   0.700   7.427  14.748 -0.1336 -0.2299  0.0625
 9879OCT     C219758   1.127   7.275  14.580  0.1960 -0.0265  0.0391
 9880OCT     C119759  12.445   0.201   5.418  0.4311 -0.0921 -0.1326
 9880OCT     C219760  12.889   0.396   5.343  0.0178 -0.1483 -0.3207
 9881OCT     C119761  19.797   8.305  12.117  0.0130 -0.1052 -0.1387
 9881OCT     C219762  20.132   8.601  11.935 -0.2309  0.2822  0.3003
 9882OCT     C119763  13.497  13.535   4.873 -0.0933  0.1320  0.3491
 9882OCT     C219764  13.460  13.973   4.679 -0.2160 -0.1183 -0.0429
 9883OCT     C119765  12.555   5.710   4.030 -0.2112  0.1013 -0.2113
 9883OCT     C219766  12.578   5.608   3.587  0.0824 -0.5540 -0.0661
 9884OCT     C119767  14.419  16.745  18.906 -0.2094 -0.0235 -0.0860
 9884OCT     C219768  14.140  17.068  18.596 -0.0806 -0.3985  0.4997
 9885OCT     C119769  10.034  16.194   5.988  0.3144 -0.1853  0.1786
 9885OCT     C219770   9.620  16.429   5.910  0.0310 -0.3042  0.1038
 9886OCT     C119771  11.958  16.951   9.986  0.2597 -0.3316  0.1324
 9886OCT     C219772  12.255  16.752  10.327  0.1773 -0.0574 -0.2253
 9887OCT     C119773  15.089  17.207  20.714 -0.0527  0.0479  0.1776
 9887OCT     C219774  14.718  17.505  20.838 -0.1797 -0.2683  0.1777
 9888OCT     C119775  10.840  12.157  12.588 -0.0395  0.0932 -0.1681
 9888OCT     C219776  10.807  11.916  12.232  0.3567  0.0434  0.0312
 9889OCT     C119777   0.108  11.517   1.123  0.2557 -0.0631  0.1427
 9889OCT     C219778   0.413  11.866   0.966  0.1761  0.0225  0.3086
 9890OCT     C119779  16.917   5.870   3.760 -0.2757  0.0263 -0.2547
 9890OCT     C219780  17.368   6.007   3.670 -0.0198 -0.0370  0.0945
 9891OCT     C119781  21.529  10.584  13.570 -0.2568 -0.1275 -0.3990
 9891OCT     C219782  21.578  11.069  13.433 -0.1277 -0.0222 -0.0916
 9892OCT     C119783   0.480  17.983   2.976 -0.0338 -0.0267  0.4769
 9892OCT     C219784   0.787  18.134   3.306 -0.2922  0.0553 -0.1205
 9893OCT     C119785  20.333   4.931  12.027 -0.1805 -0.0578 -0.0280
 9893OCT     C219786  20.247   5.347  12.104 -0.1376 -0.3265 -0.0995
 9894OCT     C119787   8.261   5.689  23.682 -0.2575 -0.0460 -0.1897
 9894OCT     C219788   8.284   5.767  23.219  0.2072 -0.2543 -0.0803
 9895OCT     C119789  18.532  12.455  23.379 -0.1726  0.0574  0.0693
 9895OCT     C219790  18.310  12.713  23.002 -0.1322 -0.2577 -0.2123
 9896OCT     C119791   6.375  11.056   4.459  0.1157 -0.1612 -0.0231
 9896OCT     C219792   6.401  10.787   4.073  0.2909  0.0144 -0.1739
 9897OCT     C119793  18.286   8.672   6.090  0.2076 -0.3411 -0.2222
 9897OCT     C219794  18.375   8.596   6.520 -0.4092 -0.1516 -0.0635
 9898OCT     C119795   3.823   8.800  21.771  0.1101 -0.4014  0.1880
 9898OCT     C219796   3.488   8.578  21.521  0.3630 -0.4215 -0.1307
 9899OCT     C119797   8.069  10.506  18.687  0.1347  0.1275  0.0113
 9899OCT     C219798   8.164  10.036  18.733  0.2619  0.0768  0.2299
 9900OCT     C119799   4.850   8.640   7.769 -0.3084  0.3581 -0.2600
 9900OCT     C219800   4.701   8.186   7.922  0.4800 -0.1387 -0.0757
 9901OCT     C119801  20.241  17.361  10.450  0.0235 -0.1612  0.1257
 9901OCT     C219802  20.043  17.717  10.645  0.1560 -0.1741  0.1408
 9902OCT     C119803   2.657  19.464  20.969 -0.2229 -0.0761 -0.0388
 9902OCT     C219804   2.538  19.524  20.569  0.0090 -0.1895 -0.2810
 9903OCT     C119805   9.817   1.921  15.511  0.5281  0.2229  0.3046
 9903OCT     C219806  10.135   2.073  15.263 -0.0704 -0.1169  0.0503
 9904OCT     C119807   0.818  19.299  17.273  0.1311  0.4354  0.3090
 9904OCT     C219808   0.904  18.944  17.506  0.0547  0.2711 -0.1633
 9905OCT     C119809   8.290   8.225   4.614 -0.0849 -0.3149  0.3002
 9905OCT     C219810   8.546   7.876   4.800 -0.1709  0.0493  0.1344
 9906OCT     C119811  23.529  13.599   9.214 -0.1295 -0.1026  0.0430
 9906OCT     C219812  23.285  13.364   8.851 -0.2080 -0.1082  0.3815
 9907OCT     C119813   3.493  22.682   3.511  0.3380 -0.2852  0.2199
 9907OCT     C219814   3.157  22.962   3.296 -0.0050 -0.0375  0.0071
 9908OCT     C119815  13.092   3.042  23.147  0.1126 -0.0116  0.4776
 9908OCT     C219816  13.052   2.574  23.091  0.4697  0.2021 -0.2559
 9909OCT     C119817  13.830  20.785  13.443  0.1416  0.1314 -0.1115
 9909OCT     C219818  13.800  20.590  13.873  0.1122 -0.2047 -0.3951
 9910OCT     C119819  20.880  13.784  21.698 -0.0763 -0.1689  0.0689
 9910OCT     C219820  21.026  13.584  21.271 -0.0462 -0.1118 -0.3567
 9911OCT     C119821  23.449   3.750  19.636 -0.0138 -0.0435 -0.3525
 9911OCT     C219822  23.002   3.559  19.701  0.3128 -0.5676 -0.1727
 9912OCT     C119823   2.303   1.133  15.437  0.3496 -0.0032 -0.0823
 9912OCT     C219824   2.497   1.483  15.143  0.0026 -0.1135 -0.0179
 9913OCT     C119825  18.466   1.877  14.022  0.0797  0.2498 -0.0896
 9913OCT     C219826  18.296   1.914  14.494 -0.1710  0.2234  0.0913
 9914OCT     C119827  19.791   8.107  20.757  0.0596  0.0443  0.2854
 9914OCT     C219828  19.486   8.197  20.438 -0.2216 -0.0634  0.1996
 9915OCT     C119829  17.887  12.088  19.088 -0.1808  0.0308  0.3084
 9915OCT     C219830  17.393  12.147  19.072  0.0598  0.1360  0.3494
 9916OCT     C119831   9.584   5.244   6.885  0.0127 -0.0795  0.0198
 9916OCT     C219832   9.600   5.041   6.473 -0.4316 -0.1039 -0.3422
 9917OCT     C119833  13.042  17.560  12.370  0.2450 -0.2887 -0.2116
 9917OCT     C219834  12.745  17.919  12.467 -0.4394  0.1171  0.2059
 9918OCT     C119835   9.412   5.161  17.825 -0.0444 -0.4248  0.1176
 9918OCT     C219836   9.740   4.810  17.771 -0.1779 -0.2031 -0.2427
 9919OCT     C119837   3.455  13.642   9.371 -0.0505 -0.0954  0.0475
 9919OCT     C219838   2.979  13.821   9.431 -0.1722  0.2422  0.2080
 9920OCT     C119839   0.118  18.669  11.740  0.1163 -0.0074  0.1227
 9920OCT     C219840   0.421  18.906  11.995  0.0019  0.2390  0.1132
 9921OCT     C119841   1.237  21.359   8.948  0.1361 -0.0419 -0.0290
 9921OCT     C219842   1.637  21.121   9.145 -0.1801  0.1981  0.1073
 9922OCT     C119843  15.507   4.144   7.453  0.0836  0.0628 -0.4165
 9922OCT     C219844  15.438   3.950   7.826 -0.0966 -0.0515 -0.0796
 9923OCT     C119845   7.000   7.669  19.978  0.1281  0.2220 -0.0356
 9923OCT     C219846   7.116   7.241  19.972 -0.1189  0.2954  0.1006
 9924OCT     C119847  17.360  16.798   0.625  0.1685  0.2158 -0.0309
 9924OCT     C219848  17.431  16.954   1.079 -0.2625 -0.0960 -0.3090
 9925OCT     C119849   8.516  21.546  21.944  0.3828  0.1238 -0.0788
 9925OCT     C219850   8.669  21.760  21.535  0.1153 -0.1963  0.0556
 9926OCT     C119851  12.235  12.191  11.825  0.1298  0.1485 -0.2391
 9926OCT     C219852  12.585  11.903  11.652  0.0769  0.0654 -0.1129
 9927OCT     C119853  16.316  10.517  15.479  0.0258  0.2012 -0.2600
 9927OCT     C219854  16.178  10.255  15.204  0.3955  0.2690  0.1192
 9928OCT     C119855  13.709  11.493  18.656 -0.1973 -0.0191  0.5850
 9928OCT     C219856  13.467  11.077  18.701  0.2569  0.1021  0.0702
 9929OCT     C119857  20.921  11.413   1.136  0.0654 -0.1566  0.2430
 9929OCT     C219858  21.312  11.210   1.060 -0.2843 -0.1012 -0.1811
 9930OCT     C119859  21.872  10.993  22.968  0.1370 -0.0065  0.2417
 9930OCT     C219860  22.027  10.830  22.552  0.0942  0.3267 -0.0190
 9931OCT     C119861   2.132  11.882  11.431  0.0711 -0.1403  0.0026
 9931OCT     C219862   1.866  11.689  11.076 -0.0581 -0.2645 -0.2132
 9932OCT     C119863  13.218  14.880  16.997 -0.3999 -0.1060  0.0955
 9932OCT     C219864  13.097  14.518  16.654  0.5052  0.3097 -0.0122
 9933OCT     C119865   1.510  21.375   9.850  0.0121 -0.0123  0.0627
 9933OCT     C219866   1.845  21.326   9.544 -0.0455  0.0646 -0.4601
 9934OCT     C119867  11.451  17.909  23.370  0.0243 -0.2888 -0.1529
 9934OCT     C219868  11.602  18.348  23.234  0.0300 -0.1266 -0.2654
 9935OCT     C119869   5.540   8.770  17.268 -0.0066 -0.2557 -0.2951
 9935OCT     C219870   5.374   8.823  17.667  0.0106  0.3795 -0.1240
 9936OCT     C119871   7.991  11.789   9.982  0.2142  0.0663 -0.1592
 9936OCT     C219872   8.317  11.599   9.701  0.3354 -0.2806 -0.0584
 9937OCT     C119873   0.424  11.520  11.076 -0.1054  0.3575 -0.1025
 9937OCT     C219874   0.257  11.148  11.273  0.0966 -0.3039  0.1482
 9938OCT     C119875   3.283  23.443  14.312 -0.1392  0.0213 -0.3770
 9938OCT     C219876   3.653  23.711  14.416 -0.1791  0.0120  0.0834
 9939OCT     C119877  22.885  17.453   6.646 -0.0635 -0.1656 -0.1028
 9939OCT     C219878  23.237  17.674   6.489  0.3360  0.0303 -0.4919
 9940OCT     C119879   0.051   5.728   0.749 -0.1964 -0.0762 -0.0420
 9940OCT     C219880  23.687   5.966   0.363  0.0002 -0.2015  0.5036
 9941OCT     C119881   0.900  22.240   0.369 -0.1803  0.2930  0.2352
 9941OCT     C219882   0.820  21.731   0.301  0.1585 -0.1015 -0.0328
 9942OCT     C119883  17.331   8.108  18.430  0.4605  0.0614 -0.0602
 9942OCT     C219884  17.195   8.128  18.000  0.1888 -0.1226  0.0178
 9943OCT     C119885  23.557  21.925  10.083 -0.4109 -0.1016  0.0646
 9943OCT     C219886  23.707  22.346   9.947 -0.0981 -0.0366  0.0047
 9944OCT     C119887  22.863   7.894  16.938 -0.4668 -0.1219 -0.0558
 9944OCT     C219888  22.411   7.926  16.766  0.3053  0.2075  0.1053
 9945OCT     C119889   6.891  12.934  17.815 -0.1139 -0.1514  0.3051
 9945OCT     C219890   6.554  13.118  17.569  0.2442 -0.1776 -0.0049
 9946OCT     C119891   2.224  21.675  23.382 -0.0765  0.2007 -0.0610
 9946OCT     C219892   2.264  21.173  23.419 -0.1626  0.1242  0.0581
 9947OCT     C119893   9.758   0.450  22.327  0.1139  0.2725 -0.2833
 9947OCT     C219894   9.838   0.850  22.084  0.0948 -0.0356 -0.2199
 9948OCT     C119895  22.264  11.786  22.643 -0.0596 -0.1483 -0.1476
 9948OCT     C219896  22.305  11.333  22.649 -0.2414  0.0810 -0.1976
 9949OCT     C119897  19.053   0.795  13.156  0.0277  0.1346  0.1679
 9949OCT     C219898  19.425   0.773  13.465 -0.0643 -0.0559  0.2714
 9950OCT     C119899   8.259  23.475  10.488  0.4458 -0.1382  0.2196
 9950OCT     C219900   8.739  23.560  10.503  0.4157  0.2922 -0.1273
 9951OCT     C119901  16.954   1.138  20.568 -0.0958  0.2050 -0.1297
 9951OCT     C219902  17.105   0.964  20.158  0.0216  0.3240  0.0679
 9952OCT     C119903  23.688  12.207  14.730  0.0553  0.1702 -0.0549
 9952OCT     C219904   0.077  12.510  14.341  0.1058 -0.3797 -0.0513
 9953OCT     C119905  12.904   5.438  19.422 -0.2429 -0.3278  0.2379
 9953OCT     C219906  13.036   5.811  19.624 -0.4075 -0.3934  0.1442
 9954OCT     C119907   1.695   6.846  12.469  0.0114  0.3493 -0.0547
 9954OCT     C219908   1.766   6.961  12.015  0.0500  0.2304  0.1324
 9955OCT     C119909  19.260  22.022  15.424  0.2874 -0.0036 -0.1614
 9955OCT     C219910  19.274  22.083  14.972  0.2326 -0.0042 -0.3639
 9956OCT     C119911  21.520   5.601   3.816 -0.0780  0.0354  0.1992
 9956OCT     C219912  21.829   5.730   3.542  0.1701  0.0672  0.1809
 9957OCT     C119913   7.968  15.707  12.771  0.0431 -0.2025 -0.1911
 9957OCT     C219914   7.753  15.298  12.663 -0.1439  0.1250 -0.0875
 9958OCT     C119915  17.203  20.679   6.543 -0.2241 -0.3959 -0.1377
 9958OCT     C219916  17.610  20.742   6.868  0.0489 -0.0077  0.1293
 9959OCT     C119917   9.548   5.874  17.349 -0.2551 -0.1081  0.0970
 9959OCT     C219918   9.606   6.025  16.907 -0.0506 -0.0962 -0.2220
 9960OCT     C119919  14.763  13.418   3.165  0.2210  0.0836  0.2129
 9960OCT     C219920  14.819  13.282   3.617 -0.0921  0.4390  0.2654
 9961OCT     C119921   5.793   8.652  18.185  0.1596  0.1592  0.0177
 9961OCT     C219922   5.497   8.359  18.443 -0.3694  0.1804 -0.1436
 9962OCT     C119923   7.251  12.569   8.200 -0.0755  0.4029  0.0336
 9962OCT     C219924   7.151  12.130   8.003  0.1483 -0.2826  0.2324
 9963OCT     C119925   4.926  20.139   2.152 -0.1096  0.2474 -0.1132
 9963OCT     C219926   4.670  20.482   1.946  0.0619 -0.0049  0.2443
 9964OCT     C119927  18.353   3.931   0.226  0.0081 -0.2859 -0.1420
 9964OCT     C219928  18.138   4.372   0.218 -0.0812  0.1532 -0.0046
 9965OCT     C119929  10.663   7.221   3.901 -0.3990 -0.1867 -0.1305
 9965OCT     C219930  10.651   7.337   3.385  0.0136  0.1071 -0.1061
 9966OCT     C119931   0.543  14.059  21.072  0.5103  0.0461 -0.3241
 9966OCT     C219932   0.596  13.779  21.470 -0.1206  0.0812  0.1473
 9967OCT     C119933   8.145  21.034  19.559 -0.0888  0.1161 -0.3076
 9967OCT     C219934   8.528  20.818  19.411 -0.2012  0.2305 -0.0372
 9968OCT     C119935   4.476   2.258   3.354 -0.1672 -0.0740  0.0737
 9968OCT     C219936   4.580   1.850   3.142  0.5075 -0.0396 -0.1530
 9969OCT     C119937  16.297   4.217  16.008  0.0148  0.1516 -0.1744
 9969OCT     C219938  16.524   4.656  15.979  0.1272  0.0150  0.0714
 9970OCT     C119939   7.147  18.235  13.517  0.0525  0.1558  0.4197
 9970OCT     C219940   6.708  18.467  13.577  0.0076 -0.0919 -0.0089
 9971OCT     C119941   8.765   9.857  10.359  0.2296 -0.0913 -0.3055
 9971OCT     C219942   8.249   9.760  10.414  0.2899  0.1922  0.0739
 9972OCT     C119943  13.050   5.949   4.613 -0.0992 -0.2215  0.2300
 9972OCT     C219944  12.920   6.098   4.174  0.2886  0.1420  0.1154
 9973OCT     C119945  13.194  12.773  10.934  0.1910  0.2303  0.1101
 9973OCT     C219946  13.137  12.364  11.103  0.0413 -0.0838  0.1569
 9974OCT     C119947  19.935  16.423  12.668 -0.1224  0.4562 -0.3285
 9974OCT     C219948  20.203  16.319  12.242 -0.3028 -0.1655 -0.1745
 9975OCT     C119949  12.904   7.164   4.265  0.1052 -0.0740 -0.1694
 9975OCT     C219950  12.908   6.823   4.002  0.1295  0.3163  0.3097
 9976OCT     C119951  18.007   3.392  17.555  0.0265 -0.2630  0.3649
 9976OCT     C219952  18.268   3.802  17.476  0.1086 -0.1808 -0.1298
 9977OCT     C119953  19.003   7.514  19.189  0.0995  0.1445  0.1529
 9977OCT     C219954  18.836   7.330  19.595 -0.5312 -0.3125  0.0312
 9978OCT     C119955  21.522  18.117  23.471 -0.2018  0.4424  0.4351
 9978OCT     C219956  21.328  18.071  23.020  0.0822 -0.1652 -0.1462
 9979OCT     C119957  12.545   6.210  21.841 -0.1237  0.1001  0.0716
 9979OCT     C219958  12.242   6.333  22.166 -0.1028 -0.0459  0.1775
 9980OCT     C119959  23.647  19.628  15.872  0.1044  0.6852  0.5171
 9980OCT     C219960   0.060  20.008  16.140 -0.1188  0.1708  0.2423
 9981OCT     C119961  18.522   9.372  15.245 -0.1319 -0.0155 -0.0988
 9981OCT     C219962  18.684   9.150  15.563 -0.0706  0.3286 -0.2329
 9982OCT     C119963  12.273   8.586   2.578 -0.1647 -0.0476 -0.3336
 9982OCT     C219964  11.929   8.528   2.298  0.1459 -0.3494  0.1568
 9983OCT     C119965   7.063  15.363  11.968 -0.1266  0.2025 -0.1283
 9983OCT     C219966   7.250  15.228  11.530 -0.2656  0.0590 -0.5211
 9984OCT     C119967  17.406  19.014   5.273  0.1567  0.6520 -0.0555
 9984OCT     C219968  17.005  18.982   5.038  0.0808  0.4158 -0.0204
 9985OCT     C119969  17.759  20.665  22.743  0.1295 -0.1651 -0.3393
 9985OCT     C219970  17.428  20.921  22.549 -0.2069 -0.0055  0.2014
 9986OCT     C119971   6.951   7.051  22.984  0.4302  0.0079 -0.4521
 9986OCT     C219972   7.172   6.817  22.611 -0.2403  0.0451  0.0221
 9987OCT     C119973  15.696  17.729  11.917  0.1968 -0.2231  0.2145
 9987OCT     C219974  15.546  17.338  11.664 -0.0487 -0.0922 -0.5493
 9988OCT     C119975   2.545  21.552  18.502  0.2855 -0.1088 -0.1184
 9988OCT     C219976   2.461  22.072  18.534  0.1874 -0.0461  0.0737
 9989OCT     C119977   0.425  21.472  21.518  0.1656  0.1066  0.1209
 9989OCT     C219978  23.722  21.597  21.484  0.1703 -0.3318  0.0652
 9990OCT     C119979   0.089   5.967   9.938  0.3571 -0.0870 -0.0323
 9990OCT     C219980   0.266   5.867   9.517  0.0353  0.7308  0.0862
 9991OCT     C119981   6.268  21.568  11.093  0.0466 -0.1621  0.0426
 9991OCT     C219982   6.298  21.109  11.138  0.1289 -0.1922  0.0538
 9992OCT     C119983  12.765  11.433  13.245  0.1338 -0.3562  0.1473
 9992OCT     C219984  13.098  11.621  13.551  0.1107  0.1299 -0.0684
 9993OCT     C119985  16.543  23.069  11.068 -0.0577  0.3017 -0.0588
 9993OCT     C219986  16.237  22.724  11.076  0.0712 -0.1886  0.1319
 9994OCT     C119987  19.153  11.000  12.222  0.0537 -0.0051 -0.1118
 9994OCT     C219988  18.726  10.912  12.139  0.0364  0.0011  0.1682
 9995OCT     C119989   3.150  16.860   2.091  0.2915 -0.2513  0.2221
 9995OCT     C219990   2.907  17.141   2.380 -0.0975 -0.2278 -0.1070
 9996OCT     C119991  22.268  10.305   7.178  0.5927  0.0366  0.1931
 9996OCT     C219992  22.697  10.292   7.055  0.2137 -0.4439  0.0250
 9997OCT     C119993   6.247   0.948  21.292 -0.0351  0.3042 -0.0390
 9997OCT     C219994   6.390   1.218  21.613  0.2085  0.1632 -0.4449
 9998OCT     C119995   1.428   1.684  21.814 -0.1054 -0.0049 -0.1443
 9998OCT     C219996   1.776   1.386  21.953  0.1254 -0.2284  0.1899
 9999OCT     C119997  20.011  19.644  20.245 -0.1700  0.4768 -0.4249
 9999OCT     C219998  20.216  19.308  20.539 -0.1832  0.2887  0.0194
10000OCT     C119999   7.046  22.451   8.230 -0.0817  0.1692  0.0747
10000OCT     C220000   7.367  22.123   8.436 -0.0855 -0.1326  0.1488
10001OCT     C120001  21.201   8.274  15.108 -0.1154 -0.2537 -0.0224
10001OCT     C220002  20.836   8.079  15.363  0.3310  0.2137  0.1297
10002OCT     C120003   7.255  17.688  19.720  0.2540  0.2428 -0.0570
10002OCT     C220004   7.577  17.407  19.548 -0.0270 -0.0893 -0.0060
10003OCT     C120005  21.042  19.207   9.664 -0.3266 -0.1811 -0.0278
10003OCT     C220006  20.806  19.109   9.223  0.0968  0.0439  0.1578
10004OCT     C120007   2.698  10.548   0.361 -0.3517  0.4048 -0.0210
10004OCT     C220008   2.370  10.645   0.635  0.1454  0.0777  0.0747
10005OCT     C120009  21.554  23.370   4.735 -0.6271 -0.3022  0.2746
10005OCT     C220010  21.792  23.068   4.471  0.1473 -0.2235  0.4204
10006OCT     C120011  12.499   7.113  11.640  0.5088  0.0825 -0.2475
10006OCT     C220012  12.854   7.210  11.944  0.3515 -0.3717 -0.1357
10007OCT     C120013  15.783  13.080  17.562 -0.0707 -0.1222 -0.2490
10007OCT     C220014  15.429  12.840  17.691 -0.2002  0.1151 -0.1836
10008OCT     C120015  18.226   1.483  15.481  0.1658 -0.0751 -0.5512
10008OCT     C220016  17.860   1.574  15.262 -0.1679 -0.1710 -0.1686
10009OCT     C120017   6.268   2.533  21.419  0.0836 -0.1616  0.0097
10009OCT     C220018   6.244   2.372  21.870  0.0874  0.0939  0.1494
10010OCT     C120019  16.960   8.012  16.356 -0.1188 -0.4574  0.1125
10010OCT     C220020  17.328   8.167  16.034  0.0491 -0.1292  0.1645
10011OCT     C120021   3.329   8.737   8.487  0.0117  0.3629 -0.0740
10011OCT     C220022   3.195   8.599   8.013  0.2474  0.2662 -0.0817
10012OCT     C120023   5.155  22.194  13.841 -0.0176  0.4006  0.0903
10012OCT     C220024   5.117  22.209  13.381 -0.0185 -0.0907  0.0173
10013OCT     C120025   3.516  18.959   1.928 -0.1722 -0.1535  0.0802
10013OCT     C220026   3.950  18.803   1.870 -0.3485 -0.0406  0.0561
10014OCT     C120027  18.440  16.024   2.229 -0.3491  0.1512  0.4097
10014OCT     C220028  18.442  16.477   2.268  0.2460 -0.1405 -0.3185
10015OCT     C120029   6.010  16.741  10.547 -0.2328  0.1184 -0.0031
10015OCT     C220030   5.906  16.354  10.330  0.0256 -0.1070 -0.2577
10016OCT     C120031  14.199  21.705   0.887 -0.1403 -0.3594 -0.1680
10016OCT     C220032  14.024  21.631   1.302  0.1451  0.0839 -0.2197
10017OCT     C120033   8.457   7.323   0.910  0.2824 -0.0866  0.0535
10017OCT     C220034   8.073   7.233   0.681 -0.1517  0.1040 -0.0804
10018OCT     C120035  11.507  22.988  21.207 -0.0867 -0.1917  0.1954
10018OCT     C220036  11.869  23.221  21.411  0.0674 -0.0722 -0.2492
10019OCT     C120037   4.378   2.494  21.650  0.1027  0.1366  0.0557
10019OCT     C220038   4.820   2.394  21.608 -0.2934 -0.1387  0.2110
10020OCT     C120039  20.836  14.082  11.118  0.2478 -0.4612 -0.0914
10020OCT     C220040  20.796  14.060  11.549 -0.0200  0.0726  0.0133
10021OCT     C120041  22.222   1.094   3.512  0.3094  0.1140  0.5948
10021OCT     C220042  22.287   1.542   3.548 -0.3164  0.0133 -0.1564
10022OCT     C120043  11.986  18.767  17.427 -0.0192 -0.0538 -0.0056
10022OCT     C220044  12.255  18.844  17.065 -0.0079  0.2052 -0.0240
10023OCT     C120045  22.367  12.734  13.559 -0.0008  0.1698 -0.2348
10023OCT     C220046  22.731  12.787  13.199  0.1317 -0.0363 -0.3477
10024OCT     C120047  22.755   7.190  13.925 -0.0688  0.2155 -0.1904
10024OCT     C220048  22.962   7.657  13.800  0.0744 -0.0466 -0.0408
10025OCT     C120049  23.390  23.455   6.504 -0.4166  0.0677 -0.6734
10025OCT     C220050  23.452  23.038   6.758 -0.0643  0.0758 -0.1076
10026OCT     C120051  11.029  21.633   7.399 -0.0876 -0.1463  0.2592
10026OCT     C220052  11.360  21.314   7.577 -0.0671 -0.1038  0.0985
10027OCT     C120053  13.412   5.616   2.385  0.0229  0.1605 -0.2621
10027OCT     C220054  13.082   5.293   2.326 -0.3554  0.0387 -0.2465
10028OCT     C120055   5.952  11.658  11.964  0.0117 -0.0783 -0.2148
10028OCT     C220056   6.118  11.430  12.305 -0.0058  0.1283  0.0572
10029OCT     C120057   6.331  11.579   6.506  0.0913  0.2163 -0.1226
10029OCT     C220058   6.169  11.289   6.172  0.0855  0.0389  0.0561
10030OCT     C120059  18.479  14.097  13.572  0.0121  0.1150 -0.0221
10030OCT     C220060  18.138  13.805  13.393 -0.0348 -0.2097 -0.0504
10031OCT     C120061  18.089   3.120  18.537  0.1565  0.1317  0.2541
10031OCT     C220062  17.793   3.072  18.168 -0.1444  0.1690  0.2620
10032OCT     C120063  14.384   9.669  19.899  0.0599  0.0806 -0.2236
10032OCT     C220064  14.346   9.745  20.364 -0.1162  0.0090  0.0984
10033OCT     C120065  10.355  23.517  11.098  0.4180  0.1199 -0.0007
10033OCT     C220066  10.617  23.135  11.309 -0.0154  0.0216  0.1543
10034OCT     C120067   4.962   5.631  23.284  0.1391 -0.3578  0.1379
10034OCT     C220068   4.802   5.233  23.077 -0.1386 -0.1630 -0.1522
10035OCT     C120069   7.156  14.822  11.894 -0.0061 -0.3175  0.1016
10035OCT     C220070   6.833  14.510  11.933 -0.0177  0.3193  0.1488
10036OCT     C120071   8.820   4.500   7.168 -0.2957 -0.1105  0.0714
10036OCT     C220072   8.862   4.124   7.486  0.1508 -0.0894 -0.3267
10037OCT     C120073  21.410  10.092  16.101  0.1728 -0.0712  0.1817
10037OCT     C220074  21.185   9.960  16.487  0.0343  0.0051 -0.3895
10038OCT     C120075   9.801  21.795   9.084 -0.1265  0.2053 -0.1666
10038OCT     C220076   9.649  21.983   9.485  0.4308  0.0313  0.2782
10039OCT     C120077  22.677  18.323  17.057 -0.1448 -0.0685 -0.2428
10039OCT     C220078  22.376  18.475  16.732 -0.2292  0.1514 -0.1242
10040OCT     C120079  15.081   8.259  17.375 -0.1972 -0.0420  0.1595
10040OCT     C220080  15.435   8.465  17.126  0.2529  0.0419  0.1449
10041OCT     C120081  18.252  22.781  22.862 -0.0685  0.0989 -0.0372
10041OCT     C220082  18.328  22.476  23.194  0.1007  0.2950  0.1984
10042OCT     C120083   4.650  23.315   5.831  0.0787  0.1342  0.1559
10042OCT     C220084   5.015  23.024   5.859 -0.2311 -0.2856  0.0171
10043OCT     C120085  21.475  12.208  21.547  0.1800 -0.0556 -0.3506
10043OCT     C220086  21.411  12.381  21.158 -0.3102 -0.2255 -0.4861
10044OCT     C120087   3.524  23.575  11.091 -0.0731 -0.0770  0.1209
10044OCT     C220088   3.303   0.220  10.979 -0.0763  0.1919  0.3049
10045OCT     C120089   3.445  10.767  21.385 -0.0037  0.2809 -0.0033
10045OCT     C220090   3.393  11.266  21.404  0.3030 -0.1353 -0.0344
10046OCT     C120091  19.191  17.129   8.052  0.1966 -0.1824  0.1845
10046OCT     C220092  19.398  16.738   7.937 -0.3465  0.0074 -0.1134
10047OCT     C120093  11.373  12.204   9.322  0.1106  0.4809 -0.3154
10047OCT     C220094  11.451  12.017   9.732 -0.0744 -0.0263  0.3351
10048OCT     C120095   2.436  14.919   2.743  0.2202  0.3498  0.1404
10048OCT     C220096   2.345  14.838   3.204  0.4816 -0.3564 -0.0477
10049OCT     C120097  11.161  13.220   4.181  0.2780  0.0214  0.0798
10049OCT     C220098  10.943  12.811   3.989 -0.4623 -0.1360 -0.2652
10050OCT     C120099  11.535  17.045   1.752  0.2310  0.2525  0.0083
10050OCT     C220100  11.312  16.629   1.761 -0.3204  0.2379 -0.2491
10051OCT     C120101  12.935  21.247   8.567  0.0107 -0.1710  0.0077
10051OCT     C220102  12.721  21.561   8.328 -0.0697 -0.2231  0.1382
10052OCT     C120103   8.430   6.234  19.279  0.7918 -0.1139  0.1281
10052OCT     C220104   8.099   5.906  19.267  0.3125 -0.0563  0.0942
10053OCT     C120105   2.759  18.513  14.736 -0.0052 -0.1962  0.1395
10053OCT     C220106   3.150  18.748  14.570 -0.0855  0.0548 -0.0085
10054OCT     C120107  11.249   7.544   4.092  0.1296 -0.0624  0.1776
10054OCT     C220108  11.247   7.106   4.105  0.2060  0.1253  0.1210
10055OCT     C120109   7.069  15.489   2.099 -0.0152 -0.0885 -0.1502
10055OCT     C220110   7.311  15.865   2.312  0.1909  0.0859  0.2424
10056OCT     C120111  22.569   4.097  17.920  0.1712  0.0443 -0.1318
10056OCT     C220112  22.920   4.361  17.847  0.6054  0.1159  0.3850
10057OCT     C120113   9.124  16.409   0.506  0.2646  0.6095 -0.2045
10057OCT     C220114   9.498  16.189   0.752 -0.0904 -0.0111 -0.1123
10058OCT     C120115  16.798   0.086  18.449 -0.0918 -0.2146 -0.0529
10058OCT     C220116  16.390   0.021  18.495 -0.0423 -0.2079  0.0518
10059OCT     C120117  19.400   3.776  11.242 -0.2110  0.1999 -0.0787
10059OCT     C220118  19.038   3.548  11.357  0.3192 -0.2700 -0.3255
10060OCT     C120119   8.355  15.199  10.827  0.3241 -0.1218  0.0092
10060OCT     C220120   8.294  14.770  10.924  0.1082 -0.1607  0.1862
10061OCT     C120121  12.011  14.396  18.235  0.0477 -0.4004 -0.1287
10061OCT     C220122  11.746  14.120  17.966  0.0650  0.1295  0.0463
10062OCT     C120123  10.619   3.293   8.806  0.0365 -0.0077 -0.0863
10062OCT     C220124  10.240   3.127   8.972  0.2806 -0.2563  0.1304
10063OCT     C120125  16.367   3.135   9.891 -0.0632  0.0979 -0.1910
10063OCT     C220126  16.125   2.833   9.626  0.2498  0.1582 -0.0153
10064OCT     C120127  17.192  11.674  12.337  0.1541  0.0976  0.3512
10064OCT     C220128  17.289  11.962  11.921 -0.3254  0.2699  0.0621
10065OCT     C120129   1.063  18.202  11.599 -0.1303  0.2780 -0.3054
10065OCT     C220130   0.635  18.329  11.633 -0.1979 -0.0250 -0.0985
10066OCT     C120131   0.942  20.598   5.569  0.1734  0.0653 -0.3921
10066OCT     C220132   0.990  20.338   5.221  0.3165 -0.2192  0.1439
10067OCT     C120133   1.199  21.486  17.252 -0.3402  0.1313  0.3460
10067OCT     C220134   1.255  21.187  17.603  0.2522 -0.1491 -0.0633
10068OCT     C120135   6.005  11.960  17.167 -0.3518  0.1904  0.1356
10068OCT     C220136   5.815  11.858  17.586  0.1042  0.4116  0.2143
10069OCT     C120137   4.949  22.646   4.389 -0.3273  0.0283 -0.1284
10069OCT     C220138   4.873  22.219   4.524  0.0454 -0.1585 -0.2812
10070OCT     C120139  15.313   4.075   2.118  0.0204 -0.0162 -0.1717
10070OCT     C220140  15.301   4.297   1.721  0.2788 -0.0706  0.1657
10071OCT     C120141  20.881   0.319   2.541 -0.0112 -0.0501 -0.0781
10071OCT     C220142  20.649   0.599   2.819  0.0693  0.2104  0.1483
10072OCT     C120143  16.983  22.710   0.671 -0.1996 -0.1382  0.3894
10072OCT     C220144  16.907  22.786   1.184  0.2967  0.1184 -0.1619
10073OCT     C120145  13.925   7.052  23.438  0.0222 -0.2114 -0.0214
10073OCT     C220146  14.169   6.828  23.116 -0.1722 -0.1180  0.2267
10074OCT     C120147   8.679   3.065   8.623  0.1944 -0.0856 -0.0256
10074OCT     C220148   8.392   2.706   8.484  0.0365 -0.1119  0.1510
10075OCT     C120149  15.149  22.528  13.311  0.1116  0.2520  0.1162
10075OCT     C220150  15.198  22.145  13.620 -0.1489  0.2237 -0.0607
10076OCT     C120151  16.108  15.306  22.206  0.0721 -0.4390  0.2625
10076OCT     C220152  16.353  15.696  22.222  0.5599 -0.2884  0.0204
10077OCT     C120153  19.297  19.062   6.273 -0.0251 -0.4984  0.2202
10077OCT     C220154  19.053  18.807   6.478 -0.1080  0.2301 -0.1795
10078OCT     C120155  10.092  14.058  10.154 -0.1414 -0.2342  0.2184
10078OCT     C220156   9.975  14.163   9.675 -0.3279  0.0564 -0.2423
10079OCT     C120157  13.175  19.232   7.729  0.2506 -0.4552 -0.2645
10079OCT     C220158  13.042  19.472   7.341  0.4448  0.0785 -0.1233
10080OCT     C120159  10.725   1.320  16.625 -0.0128  0.0267 -0.1512
10080OCT     C220160  10.612   1.548  16.241  0.1133 -0.0955  0.0874
10081OCT     C120161  19.004  14.768  16.630  0.3026 -0.1083  0.6139
10081OCT     C220162  19.462  14.788  16.697 -0.3451 -0.1939  0.1135
10082OCT     C120163   4.760  17.193   0.492  0.1823  0.0660 -0.2313
10082OCT     C220164   4.636  17.181   0.046  0.0203 -0.1475 -0.1302
10083OCT     C120165  15.537  15.065  15.160  0.0037 -0.2247 -0.1681
10083OCT     C220166  15.241  14.657  15.067  0.1037  0.1009 -0.3427
10084OCT     C120167   8.556  19.371  11.701 -0.2482  0.0186 -0.1882
10084OCT     C220168   8.601  19.176  12.114  0.1038  0.2486 -0.0983
10085OCT     C120169  23.134   6.689   5.952 -0.2843  0.0349 -0.0169
10085OCT     C220170  22.991   6.255   6.057  0.1538  0.5160 -0.1714
10086OCT     C120171   5.611   7.623  18.490  0.2933 -0.1054 -0.0970
10086OCT     C220172   5.193   7.555  18.531 -0.0309  0.0857 -0.3072
10087OCT     C120173  12.343  11.420   9.626 -0.1454  0.0113  0.1020
10087OCT     C220174  12.054  11.367   9.241  0.1103 -0.1041  0.5301
10088OCT     C120175   0.788   9.706  21.432 -0.1586  0.1015  0.0023
10088OCT     C220176   0.707   9.899  20.970 -0.2974  0.2786  0.6045
10089OCT     C120177  11.340   5.253  19.034 -0.0695 -0.1846 -0.0701
10089OCT     C220178  10.954   5.034  18.861  0.1966  0.0420 -0.1198
10090OCT     C120179  23.145  15.321  13.930  0.0027 -0.1245 -0.0229
10090OCT     C220180  23.297  15.544  13.503  0.2946 -0.0266 -0.4487
10091OCT     C120181  19.708   4.039   9.808  0.1173  0.1385 -0.1163
10091OCT     C220182  19.995   4.289  10.043 -0.0838  0.0492 -0.1231
10092OCT     C120183  14.818   2.862  17.543  0.4668  0.0829  0.1939
10092OCT     C220184  14.422   3.000  17.734  0.0270  0.0822 -0.0118
10093OCT     C120185  16.513  15.594   4.468 -0.1230  0.0400  0.2707
10093OCT     C220186  16.446  15.284   4.168  0.1898 -0.0191 -0.2557
10094OCT     C120187   2.975   0.533   7.435 -0.1740 -0.0686 -0.0301
10094OCT     C220188   2.954   0.356   7.850 -0.2574 -0.2984  0.0732
10095OCT     C120189   2.762  11.854  20.341 -0.0513 -0.2360  0.2487
10095OCT     C220190   3.195  11.776  20.302  0.0137  0.0988  0.1536
10096OCT     C120191   7.288  22.150   4.071  0.0169  0.0018  0.2312
10096OCT     C220192   7.620  22.171   4.412 -0.0370 -0.1621 -0.1699
10097OCT     C120193   4.561   7.628  11.883  0.0471  0.6039 -0.3448
10097OCT     C220194   4.568   7.774  11.459  0.0584 -0.0517  0.2340
10098OCT     C120195  16.233   5.439  11.101  0.1638 -0.3490 -0.5667
10098OCT     C220196  16.223   5.467  11.575 -0.0761  0.0024  0.2409
10099OCT     C120197  15.610  23.619  16.501  0.0312  0.0155  0.3106
10099OCT     C220198  15.762  23.149  16.386  0.0491  0.0577 -0.2093
10100OCT     C120199  12.821   3.093  23.577  0.1155 -0.3136  0.3403
10100OCT     C220200  12.696   3.539  23.618  0.1474 -0.1242  0.1107
10101OCT     C120201  17.947  16.434  10.791 -0.0067  0.0050 -0.0912
10101OCT     C220202  17.897  16.246  10.395  0.0040 -0.2522  0.2741
10102OCT     C120203   3.891  21.607  17.482 -0.0228 -0.1135  0.0175
10102OCT     C220204   4.203  21.624  17.804 -0.2183  0.2185  0.0592
10103OCT     C120205  21.575   1.010  15.376  0.2959 -0.1321  0.4382
10103OCT     C220206  21.359   0.967  14.899  0.3412 -0.1023  0.1714
10104OCT     C120207  10.166   3.124   3.216 -0.0141 -0.0327 -0.4452
10104OCT     C220208  10.030   2.817   3.534  0.2552 -0.3101 -0.6635
10105OCT     C120209  14.708  14.014  12.867 -0.0907  0.2303 -0.0525
10105OCT     C220210  15.143  13.949  12.829 -0.0602  0.0877  0.0989
10106OCT     C120211   7.753  22.348  23.692 -0.0941 -0.1018 -0.0482
10106OCT     C220212   7.311  22.460  23.626  0.0922 -0.2184  0.3534
10107OCT     C120213  11.180  13.503  15.313 -0.0640  0.2129  0.1403
10107OCT     C220214  11.004  13.886  15.178 -0.1464 -0.1600 -0.0918
10108OCT     C120215  19.379   5.909  10.299  0.1708 -0.0979  0.1116
10108OCT     C220216  19.230   5.571  10.564 -0.4535  0.0848 -0.3101
10109OCT     C120217   1.526   2.794   6.038 -0.2799 -0.3165  0.0118
10109OCT     C220218   1.896   2.578   5.909 -0.0203 -0.1443 -0.1460
10110OCT     C120219  15.249  16.318   5.145  0.1558  0.3381  0.0815
10110OCT     C220220  15.206  16.226   5.586 -0.1532  0.0141 -0.0108
10111OCT     C120221  13.722   6.632  15.368  0.2885  0.0735  0.0138
10111OCT     C220222  13.273   6.902  15.458 -0.2534 -0.1082 -0.2484
10112OCT     C120223  20.037  18.338  22.728 -0.0987  0.2201  0.2043
10112OCT     C220224  20.310  18.059  22.997 -0.2696 -0.5260 -0.2995
10113OCT     C120225   7.629  23.455  18.802  0.0247  0.0175 -0.1194
10113OCT     C220226   7.934  23.271  19.224 -0.2317  0.0679  0.2593
10114OCT     C120227  14.949   3.815  13.583  0.1457  0.2527 -0.1330
10114OCT     C220228  14.625   3.651  13.258 -0.1544  0.0015 -0.4712
10115OCT     C120229  20.218  14.404  16.046  0.3583 -0.0623 -0.1045
10115OCT     C220230  20.037  14.793  15.918 -0.1337  0.2349  0.0771
10116OCT     C120231   9.608   3.972   7.262  0.2286 -0.1458 -0.1231
10116OCT     C220232   9.215   3.741   7.125  0.1626  0.0630 -0.1991
10117OCT     C120233  12.881   8.365  12.808 -0.4751  0.0296 -0.3943
10117OCT     C220234  12.532   8.295  12.484  0.1367  0.2931 -0.2213
10118OCT     C120235   7.557  15.379   5.727 -0.1582  0.1998 -0.3530
10118OCT     C220236   7.645  15.278   5.237  0.0163  0.4834 -0.0861
10119OCT     C120237  16.892  17.044  13.081  0.4894  0.0408  0.2771
10119OCT     C220238  17.186  16.714  13.087 -0.0008  0.4892  0.1787
10120OCT     C120239  20.906   6.479  17.301 -0.0875  0.1296  0.0592
10120OCT     C220240  20.805   6.032  17.402  0.1318 -0.0344 -0.2559
10121OCT     C120241  12.495  15.142  15.505  0.0233 -0.0457 -0.0864
10121OCT     C220242  12.043  15.089  15.360 -0.2288  0.2013 -0.1864
10122OCT     C120243   4.415   6.681   6.289  0.2843 -0.0585 -0.1894
10122OCT     C220244   4.117   6.336   6.226  0.4033 -0.1284 -0.1124
10123OCT     C120245  17.135   1.244  13.273 -0.1325  0.2467 -0.1527
10123OCT     C220246  16.857   1.495  12.972  0.2717  0.0045  0.2318
10124OCT     C120247   7.042  23.338  21.405 -0.3308  0.1271  0.1721
10124OCT     C220248   7.449  23.576  21.456 -0.0825  0.0530 -0.0729
10125OCT     C120249   9.677   2.820   3.923 -0.1991  0.1066  0.0171
10125OCT     C220250   9.427   3.032   4.225  0.0762 -0.1594 -0.2613
10126OCT     C120251  10.528   7.293   0.918 -0.2791  0.0504  0.0436
10126OCT     C220252  10.868   7.311   1.198 -0.0805  0.3467 -0.2528
10127OCT     C120253  23.684   7.777  22.438 -0.0392  0.1237  0.0964
10127OCT     C220254  23.434   7.727  22.809 -0.1136  0.1331  0.1092
10128OCT     C120255  11.129   1.390   9.684 -0.2568 -0.0181  0.0259
10128OCT     C220256  11.252   1.435  10.086  0.1623  0.2093  0.2966
10129OCT     C120257  21.076   3.031  21.932 -0.1058  0.2713  0.0649
10129OCT     C220258  20.858   3.335  21.708  0.4346  0.0416  0.0939
10130OCT     C120259   5.044   0.870   4.295  0.2896  0.2416  0.1655
10130OCT     C220260   4.780   1.017   3.921 -0.1490  0.2652 -0.1788
10131OCT     C120261  10.306  22.395  12.063  0.1081 -0.1432 -0.1655
10131OCT     C220262  10.595  22.220  11.738  0.1599 -0.0572  0.2909
10132OCT     C120263  22.023  21.543  20.877 -0.1328  0.3019 -0.0396
10132OCT     C220264  22.176  21.077  20.859 -0.0346 -0.0234  0.0439
10133OCT     C120265  22.810  20.557  11.270  0.1633  0.0745  0.0770
10133OCT     C220266  22.851  20.093  11.436 -0.3234 -0.2940 -0.1125
10134OCT     C120267  11.810   9.544   9.372  0.0831  0.1803  0.0557
10134OCT     C220268  11.888   9.495   9.834  0.2382  0.0776  0.1638
10135OCT     C120269   1.817   4.061  18.680  0.1197  0.2141 -0.0739
10135OCT     C220270   1.990   3.724  18.457  0.3815  0.0612  0.1257
10136OCT     C120271  10.413  15.224  14.499 -0.0864  0.1445 -0.2972
10136OCT     C220272  10.512  14.764  14.616  0.3287 -0.2102  0.4028
10137OCT     C120273  16.795   2.666  13.595 -0.0369  0.0825  0.2918
10137OCT     C220274  16.363   2.797  13.822  0.5862 -0.0109  0.0892
10138OCT     C120275   5.920  18.295  17.588 -0.0492  0.0868 -0.1166
10138OCT     C220276   5.779  18.502  17.204  0.2301 -0.2426  0.4013
10139OCT     C120277  13.760  23.004  15.159 -0.2384  0.1346  0.3148
10139OCT     C220278  13.573  23.379  15.288  0.1352  0.0513  0.1637
10140OCT     C120279  14.082   8.610   2.193  0.1469 -0.2269  0.1503
10140OCT     C220280  14.170   8.266   1.896  0.0639  0.1389 -0.2398
10141OCT     C120281  10.539  14.908  17.198 -0.2506 -0.2840  0.1155
10141OCT     C220282  10.122  14.665  17.322 -0.3046 -0.0332  0.2192
10142OCT     C120283   5.290  23.299  17.503  0.0605  0.2825  0.0293
10142OCT     C220284   5.198  22.881  17.613 -0.0379 -0.0210 -0.2388
10143OCT     C120285  16.499   0.873  21.350 -0.0051 -0.1171 -0.0307
10143OCT     C220286  16.971   0.649  21.344  0.2072 -0.0464 -0.3234
10144OCT     C120287  12.469  14.371   3.681  0.1461 -0.1938 -0.3158
10144OCT     C220288  12.061  14.291   3.512 -0.1574  0.1462  0.1763
10145OCT     C120289  19.753  20.661  12.135  0.0226 -0.2660  0.1680
10145OCT     C220290  19.955  21.054  11.889  0.1089 -0.2626  0.0145
10146OCT     C120291  14.728  16.506   4.980 -0.1473 -0.1285 -0.1584
10146OCT     C220292  14.320  16.272   5.081  0.0259 -0.1375  0.4580
10147OCT     C120293   3.990   5.393  18.390  0.1443  0.0401  0.3295
10147OCT     C220294   3.693   5.640  18.101 -0.0343  0.0897  0.1316
10148OCT     C120295  15.088   5.769  19.236 -0.0386  0.0507  0.3249
10148OCT     C220296  14.915   5.815  18.736  0.1264 -0.3044 -0.0672
10149OCT     C120297   3.287   1.416  12.264  0.2300  0.1065 -0.1938
10149OCT     C220298   3.133   1.667  11.901 -0.2191  0.2066  0.0513
10150OCT     C120299  20.359   8.568  22.603 -0.1214  0.1830 -0.0888
10150OCT     C220300  19.964   8.330  22.672  0.0876 -0.1995  0.3774
10151OCT     C120301   7.695   0.966  14.868  0.2239 -0.0097 -0.0749
10151OCT     C220302   8.169   0.869  14.907 -0.0000  0.2435 -0.0533
10152OCT     C120303  21.749  17.079  14.712 -0.4555  0.1792 -0.1546
10152OCT     C220304  21.659  17.517  14.963 -0.4539 -0.2291 -0.2298
10153OCT     C120305  23.064  13.438  22.622 -0.0604  0.3643  0.0532
10153OCT     C220306  23.190  13.192  22.978 -0.0823 -0.1430 -0.1346
10154OCT     C120307   9.729  19.168   2.472  0.2080 -0.3400 -0.0706
10154OCT     C220308   9.379  19.069   2.139  0.1028  0.0405  0.1057
10155OCT     C120309   9.849   4.567  23.026 -0.0909 -0.0724  0.1655
10155OCT     C220310   9.848   5.033  23.075 -0.1080  0.0641  0.1931
10156OCT     C120311  13.332   1.556  19.053  0.1820 -0.3891  0.2222
10156OCT     C220312  13.451   1.193  19.231 -0.1921 -0.4604  0.0832
10157OCT     C120313  18.691  18.062   5.909 -0.0325  0.2061  0.2033
10157OCT     C220314  18.505  18.289   5.572 -0.0286 -0.0593 -0.4047
10158OCT     C120315  21.546  18.888   4.431  0.2049 -0.2038 -0.2884
10158OCT     C220316  21.296  19.095   4.060  0.0791 -0.0771  0.1735
10159OCT     C120317  22.058   4.965   2.895 -0.0921  0.0147 -0.1288
10159OCT     C220318  22.011   5.123   2.443 -0.1404 -0.1494 -0.1744
10160OCT     C120319   3.891  17.217  16.767 -0.2539  0.0776  0.0912
10160OCT     C220320   3.977  16.784  16.844 -0.1203  0.1619 -0.0123
10161OCT     C120321  20.590  10.158  10.255 -0.0512 -0.0460  0.3242
10161OCT     C220322  20.172  10.004  10.047  0.0314 -0.3215  0.1620
10162OCT     C120323  15.206   3.591   2.317  0.2307 -0.2919 -0.1877
10162OCT     C220324  15.195   3.618   1.870 -0.0172  0.0645  0.0230
10163OCT     C120325   6.290   8.346   3.199 -0.2495  0.1067 -0.2370
10163OCT     C220326   6.153   8.758   2.986 -0.0862  0.3583 -0.0172
10164OCT     C120327   7.724   0.684  11.434 -0.1292 -0.1225 -0.3120
10164OCT     C220328   7.407   0.289  11.333 -0.0593  0.0675 -0.2566
10165OCT     C120329  15.260   9.651  14.480 -0.1748 -0.2115 -0.0798
10165OCT     C220330  15.212   9.192  14.366  0.4666 -0.1704  0.1162
10166OCT     C120331   8.914   3.243  12.527  0.4189 -0.1565  0.2365
10166OCT     C220332   8.755   3.146  12.055 -0.0704  0.2637 -0.2731
10167OCT     C120333   7.300  19.837  19.484 -0.2794  0.0483 -0.2420
10167OCT     C220334   7.756  20.049  19.565  0.4418  0.4722  0.2175
10168OCT     C120335  22.138   8.999  21.856 -0.2941 -0.1138  0.0320
10168OCT     C220336  22.452   8.881  21.569 -0.0106  0.2155 -0.4124
10169OCT     C120337  13.641   7.115   7.996  0.3240  0.0117  0.2461
10169OCT     C220338  13.248   6.815   8.170  0.1537  0.0829 -0.2340
10170OCT     C120339  18.981   9.045   4.369  0.4008  0.0947 -0.0085
10170OCT     C220340  19.334   8.708   4.361 -0.0596 -0.2387 -0.1738
10171OCT     C120341   5.755   8.344   9.985  0.2544  0.0902 -0.0332
10171OCT     C220342   5.658   8.768   9.727  0.3870  0.0458 -0.3272
10172OCT     C120343   9.572  10.276  13.322  0.0994 -0.0450  0.5091
10172OCT     C220344   9.397  10.522  12.899  0.2072  0.2161 -0.1635
10173OCT     C120345  11.185  11.063  15.780  0.3240  0.0367 -0.0822
10173OCT     C220346  11.422  10.841  16.079 -0.3314  0.0145 -0.2505
10174OCT     C120347  21.123   3.470  18.935 -0.2949  0.2181  0.0516
10174OCT     C220348  21.576   3.331  18.867 -0.0577  0.0568  0.1519
10175OCT     C120349   4.728  20.712  18.113  0.1646 -0.0801 -0.4193
10175OCT     C220350   4.341  20.649  17.924 -0.0603  0.3820  0.1916
10176OCT     C120351  20.953  11.153  14.350 -0.1593 -0.1503 -0.2323
10176OCT     C220352  20.810  11.443  14.002  0.3901  0.1834  0.1374
10177OCT     C120353  12.367  19.702  21.489 -0.2331 -0.0577 -0.2082
10177OCT     C220354  12.000  19.592  21.255 -0.2877 -0.1108 -0.1086
10178OCT     C120355   6.464   4.783  18.622 -0.5041  0.1424  0.0139
10178OCT     C220356   6.639   4.573  18.969 -0.0054  0.0971 -0.1838
10179OCT     C120357   1.682   8.760  13.318  0.1248 -0.0268  0.0225
10179OCT     C220358   1.961   9.023  13.562 -0.2338 -0.0232  0.0303
10180OCT     C120359  10.899   3.247  22.009 -0.1300 -0.3276 -0.0634
10180OCT     C220360  10.491   3.394  22.152 -0.3042  0.2914  0.4120
10181OCT     C120361   5.930  16.603  16.264 -0.7804  0.1553  0.1511
10181OCT     C220362   6.194  16.536  15.891  0.0227 -0.4305 -0.0106
10182OCT     C120363  13.269   8.965   2.378  0.1897 -0.1736 -0.3580
10182OCT     C220364  13.532   8.786   2.051  0.0933 -0.0834  0.1022
10183OCT     C120365  18.435  11.429  23.590  0.3146 -0.3290 -0.4198
10183OCT     C220366  18.158  11.561   0.201  0.3172  0.1758 -0.0816
10184OCT     C120367  23.624   4.238   6.696  0.1338  0.3081 -0.1643
10184OCT     C220368  23.357   4.636   6.847  0.0506 -0.1887  0.2244
10185OCT     C120369   1.219   7.440  16.958 -0.0088  0.0858  0.1397
10185OCT     C220370   1.019   7.072  16.957  0.0054 -0.0688  0.1924
10186OCT     C120371  16.659   5.972   1.390  0.1270 -0.2217 -0.0953
10186OCT     C220372  16.470   5.609   1.167 -0.0257 -0.1454 -0.3565
10187OCT     C120373  12.197   4.992  10.940 -0.0219 -0.2039 -0.4639
10187OCT     C220374  11.834   4.725  11.112 -0.2861  0.2681 -0.0345
10188OCT     C120375   7.007  12.935   8.429 -0.2481  0.1588 -0.3664
10188OCT     C220376   7.513  12.972   8.400  0.0980 -0.4276 -0.0226
10189OCT     C120377   8.516  12.547  22.730  0.0682 -0.6350  0.2064
10189OCT     C220378   8.489  12.225  22.486  0.1532 -0.0069  0.3839
10190OCT     C120379  11.647  21.827  13.016  0.3879  0.1069 -0.0191
10190OCT     C220380  11.662  21.715  13.516 -0.0628  0.0115  0.2135
10191OCT     C120381  17.550   2.236   0.088 -0.1140 -0.0536 -0.0222
10191OCT     C220382  17.368   2.658   0.246 -0.0545  0.0299  0.2356
10192OCT     C120383   1.813  14.868  11.855 -0.0098 -0.1533 -0.3192
10192OCT     C220384   1.920  14.666  12.298 -0.0414 -0.2513  0.0664
10193OCT     C120385   6.799  23.226   6.645 -0.0961 -0.4055 -0.3246
10193OCT     C220386   6.782  23.637   6.950 -0.2563  0.0540  0.1369
10194OCT     C120387   2.318  13.933   8.947  0.1346  0.1737  0.0776
10194OCT     C220388   2.702  13.736   9.040  0.0420  0.0396 -0.1107
10195OCT     C120389  12.747   7.896  19.340 -0.3476 -0.0758  0.0118
10195OCT     C220390  13.012   7.547  19.500 -0.0655 -0.0044 -0.3497
10196OCT     C120391   9.613  19.298   8.792  0.0391 -0.1892 -0.0466
10196OCT     C220392  10.071  19.188   8.804 -0.1811  0.1311  0.0657
10197OCT     C120393   5.254  20.177  23.605 -0.2647  0.2556 -0.0257
10197OCT     C220394   5.257  19.875  23.215 -0.3141  0.0756 -0.2038
10198OCT     C120395   0.398   0.105   8.091  0.0868  0.0954 -0.2144
10198OCT     C220396   0.786   0.159   8.351 -0.1264 -0.1794 -0.1246
10199OCT     C120397   6.580  12.049   2.027 -0.0431  0.0865 -0.1072
10199OCT     C220398   6.719  12.067   1.530  0.0930  0.0957 -0.2618
10200OCT     C120399  10.649  13.096  17.698 -0.1674  0.1292 -0.0904
10200OCT     C220400  10.763  13.488  17.839 -0.1056 -0.0439 -0.2632
10201OCT     C120401  16.326  10.531  19.299 -0.5145 -0.0352 -0.2408
10201OCT     C220402  16.011  10.320  19.565 -0.0675  0.0685  0.0852
10202OCT     C120403  11.962  20.772  23.576 -0.1218 -0.0568  0.1937
10202OCT     C220404  11.965  20.850  23.116 -0.3296 -0.0052 -0.2222
10203OCT     C120405  15.406  14.857  11.884 -0.1282 -0.1145 -0.0507
10203OCT     C220406  15.054  15.064  12.164  0.1457  0.2253 -0.1336
10204OCT     C120407  16.241   8.983  12.654  0.1269  0.3973 -0.1500
10204OCT     C220408  15.832   9.064  12.862  0.2805 -0.0458  0.1668
10205OCT     C120409  21.483  18.893  18.680  0.0000  0.3696 -0.3697
10205OCT     C220410  21.253  18.637  18.969 -0.1493 -0.3039 -0.1574
10206OCT     C120411   9.633  12.218  10.971  0.3120 -0.1807  0.3817
10206OCT     C220412   9.444  11.798  11.133  0.1764 -0.1442 -0.0086
10207OCT     C120413  11.582  18.716   8.695 -0.3224  0.0266  0.2507
10207OCT     C220414  11.322  18.914   8.363  0.1379  0.3429  0.0329
10208OCT     C120415   3.983  11.207   8.109 -0.1609  0.0131  0.1008
10208OCT     C220416   4.425  10.985   8.154 -0.0564 -0.0315 -0.1434
10209OCT     C120417  21.745  21.521   0.933 -0.0599 -0.2051  0.0887
10209OCT     C220418  22.044  21.427   0.585 -0.1275  0.1631 -0.1729
10210OCT     C120419   6.730  22.658  10.214 -0.0839 -0.0308  0.1867
10210OCT     C220420   6.785  22.922  10.579  0.2922 -0.4235  0.2728
10211OCT     C120421  21.049   7.305  19.768  0.1897 -0.0512  0.1348
10211OCT     C220422  21.087   7.102  19.334 -0.1046 -0.2605 -0.4401
10212OCT     C120423  14.579   1.694  21.582 -0.0458  0.0240  0.1961
10212OCT     C220424  14.364   2.069  21.673  0.2653  0.2540 -0.1771
10213OCT     C120425  14.967   6.665  20.260  0.1772  0.0626 -0.0668
10213OCT     C220426  14.749   7.056  20.241 -0.1542  0.1250  0.0825
10214OCT     C120427  12.195  21.975   1.538 -0.0733 -0.1702  0.1058
10214OCT     C220428  11.763  22.135   1.523 -0.2963  0.0498  0.3449
10215OCT     C120429  23.153  10.579   7.164  0.1594  0.2888 -0.1274
10215OCT     C220430  22.734  10.805   7.354 -0.0098 -0.2014  0.2248
10216OCT     C120431  16.088  20.443  14.826  0.2675 -0.1896 -0.3166
10216OCT     C220432  16.266  20.432  14.358 -0.4064 -0.1860 -0.0082
10217OCT     C120433  20.216   0.009   3.399 -0.1409  0.0403  0.1350
10217OCT     C220434  19.774  23.639   3.193  0.0228  0.2009 -0.2658
10218OCT     C120435  10.616   0.742   1.800 -0.1313 -0.0823 -0.0023
10218OCT     C220436  10.607   1.172   1.706  0.1974 -0.0440 -0.0628
10219OCT     C120437  12.673  17.556  21.531  0.1357  0.2920  0.0207
10219OCT     C220438  12.226  17.623  21.576 -0.2346 -0.6196 -0.0764
10220OCT     C120439  12.312  15.359  21.570 -0.2537  0.0942 -0.5671
10220OCT     C220440  12.458  15.032  21.918  0.0730  0.1250 -0.2069
10221OCT     C120441   7.001  19.246  22.194  0.0379 -0.1244 -0.0524
10221OCT     C220442   6.855  19.028  21.733 -0.3420 -0.2672  0.4153
10222OCT     C120443   7.114  21.050  16.175 -0.4265 -0.1428 -0.0521
10222OCT     C220444   7.473  21.150  16.438  0.1275 -0.0355  0.2120
10223OCT     C120445   2.190  18.221  22.707  0.2562 -0.1454 -0.3774
10223OCT     C220446   2.573  18.106  22.960 -0.2138  0.0236  0.2494
10224OCT     C120447   9.757   4.503  13.812  0.0002  0.3060 -0.3197
10224OCT     C220448   9.362   4.686  13.998  0.1567  0.2349  0.0369
10225OCT     C120449  16.396  15.860   8.820 -0.0369  0.2234  0.2090
10225OCT     C220450  16.350  16.019   8.378 -0.1399 -0.0643  0.0404
10226OCT     C120451  18.846  12.840  20.133  0.1435 -0.1245  0.2412
10226OCT     C220452  19.288  12.935  20.420  0.2927  0.0100 -0.0189
10227OCT     C120453   5.996   5.841   1.325  0.1526 -0.0444  0.1531
10227OCT     C220454   6.435   5.879   1.363  0.2450  0.1102  0.0494
10228OCT     C120455   1.667  21.469  20.855  0.3476 -0.1834  0.0561
10228OCT     C220456   2.057  21.731  20.738  0.0843  0.2148  0.2022
10229OCT     C120457  23.512   3.293   6.554  0.2463  0.3112  0.3680
10229OCT     C220458  23.577   3.018   6.106 -0.0968 -0.0741 -0.2161
10230OCT     C120459   9.270   2.000  17.885 -0.2884 -0.2636 -0.0894
10230OCT     C220460   9.623   2.015  17.555  0.2433 -0.1194  0.0659
10231OCT     C120461  16.630  20.468   9.597  0.2971  0.0460  0.0842
10231OCT     C220462  16.233  20.216   9.647 -0.1827  0.0401 -0.0159
10232OCT     C120463  16.633  17.713  20.497  0.1043  0.0373 -0.0435
10232OCT     C220464  16.243  17.686  20.262  0.1203  0.0610  0.0529
10233OCT     C120465   6.941  13.173  12.574  0.1774 -0.0102  0.4330
10233OCT     C220466   7.174  13.542  12.706  0.3569 -0.1921  0.2346
10234OCT     C120467   7.721  16.513   5.008 -0.0797 -0.0379  0.0867
10234OCT     C220468   8.242  16.574   5.131 -0.0180 -0.4312  0.2145
10235OCT     C120469  15.943  17.840  15.702 -0.1200  0.0968 -0.1753
10235OCT     C220470  16.159  17.759  16.097  0.1833  0.0641  0.1431
10236OCT     C120471   6.229   4.310  18.482  0.2275  0.0894  0.3111
10236OCT     C220472   6.437   3.984  18.167  0.0746 -0.0592  0.3180
10237OCT     C120473   3.196   7.587  20.374 -0.0332 -0.1444  0.2259
10237OCT     C220474   2.890   7.961  20.323 -0.0390  0.0901 -0.1430
10238OCT     C120475  18.342  15.524  23.584 -0.1515 -0.0831  0.0415
10238OCT     C220476  18.454  15.852  23.260 -0.2052  0.1029 -0.0898
10239OCT     C120477  10.450   4.580  13.266  0.2867 -0.1004 -0.0833
10239OCT     C220478  10.803   4.397  13.152 -0.2422  0.1756  0.1145
10240OCT     C120479   0.406  20.140   4.548  0.1455 -0.0196 -0.0967
10240OCT     C220480   0.740  20.469   4.488  0.0641  0.1176 -0.0612
10241OCT     C120481   6.462  20.067  18.839  0.0178 -0.4958  0.1495
10241OCT     C220482   6.507  20.519  18.640  0.1044 -0.0590 -0.0896
10242OCT     C120483  10.002  22.623  11.582  0.1927 -0.2922  0.1337
10242OCT     C220484  10.130  22.182  11.553  0.0092 -0.0778 -0.3344
10243OCT     C120485   0.392   8.168  11.042 -0.2862  0.1778 -0.0425
10243OCT     C220486   0.053   8.056  10.722  0.2238  0.0116  0.1971
10244OCT     C120487   0.573   6.137   9.795 -0.2228 -0.0028 -0.3332
10244OCT     C220488   0.870   6.522   9.816 -0.1989  0.0450 -0.2225
10245OCT     C120489  10.842   5.048   3.330 -0.1026  0.2736  0.0392
10245OCT     C220490  11.005   5.199   3.722  0.0502 -0.0689 -0.3795
10246OCT     C120491  22.379  23.078   2.036  0.1482 -0.2459  0.1839
10246OCT     C220492  22.143  23.443   1.903 -0.2319  0.4980 -0.0449
10247OCT     C120493  10.465  21.045  17.612  0.3307 -0.2452  0.1688
10247OCT     C220494  10.921  21.110  17.531  0.2535  0.0154  0.3041
10248OCT     C120495   4.356   6.218   1.979  0.3432  0.1168  0.3214
10248OCT     C220496   4.771   6.276   1.899 -0.0859  0.2705 -0.0857
10249OCT     C120497   4.766   7.736   1.598 -0.0734  0.1687 -0.3635
10249OCT     C220498   4.525   7.491   1.260 -0.2981  0.5037 -0.1650
10250OCT     C120499   6.001  13.936   0.797  0.0485 -0.0655  0.1518
10250OCT     C220500   5.956  13.587   1.086 -0.2370  0.1371 -0.1669
10251OCT     C120501  20.035   2.270  23.012  0.0275  0.0259  0.1632
10251OCT     C220502  20.195   1.839  22.976  0.2648 -0.4565 -0.2621
10252OCT     C120503  17.576  10.974  15.337  0.2114 -0.1622 -0.1726
10252OCT     C220504  17.091  11.025  15.230 -0.4571 -0.1041  0.1610
10253OCT     C120505   6.136  18.703   7.635  0.2051 -0.0365  0.1533
10253OCT     C220506   6.249  19.135   7.757 -0.2417  0.1054 -0.2263
10254OCT     C120507  21.337   6.603  20.863  0.1637 -0.0937  0.4685
10254OCT     C220508  21.501   6.420  21.272  0.3516  0.3208  0.3851
10255OCT     C120509  21.920   5.654  17.685 -0.1620  0.3241  0.0428
10255OCT     C220510  21.690   5.275  17.553 -0.0740 -0.0929  0.1772
10256OCT     C120511  20.832   4.824   7.687  0.2425 -0.1272  0.1857
10256OCT     C220512  21.126   4.672   8.028 -0.1925 -0.2103 -0.0412
10257OCT     C120513   1.014  14.346   2.926 -0.3547 -0.0004  0.1924
10257OCT     C220514   0.724  14.468   3.245  0.0064  0.0379  0.0137
10258OCT     C120515  12.237  20.166  17.467  0.1909  0.0037  0.1055
10258OCT     C220516  11.782  20.195  17.336  0.2540 -0.3742  0.2450
10259OCT     C120517   6.648  10.781   0.542 -0.5343  0.2515 -0.2721
10259OCT     C220518   6.179  10.784   0.710 -0.0877  0.5512  0.1422
10260OCT     C120519  19.095   1.077  20.121 -0.0486  0.0018 -0.1247
10260OCT     C220520  19.021   0.811  19.787  0.1983  0.0902  0.2171
10261OCT     C120521  13.964  21.275  15.793  0.0350 -0.1561  0.4145
10261OCT     C220522  13.613  21.352  15.502  0.2046 -0.0576 -0.1166
10262OCT     C120523  20.510  17.720   7.704  0.0089 -0.3640  0.1352
10262OCT     C220524  20.702  18.201   7.557  0.0594  0.0465  0.0491
10263OCT     C120525  23.127   4.390  10.172  0.2733 -0.2310 -0.5590
10263OCT     C220526  23.486   4.089  10.239 -0.3776  0.3277 -0.4692
10264OCT     C120527  10.407   0.045  18.242  0.0637  0.2756  0.0032
10264OCT     C220528  10.099  23.483  18.435  0.2169 -0.2128  0.3969
10265OCT     C120529   3.788   6.257  15.166  0.4200  0.1065  0.0466
10265OCT     C220530   3.769   6.729  15.146  0.1629 -0.0663  0.1171
10266OCT     C120531  18.513  22.541  22.500  0.2221  0.4797  0.2084
10266OCT     C220532  18.844  22.771  22.251 -0.3044 -0.1822  0.5397
10267OCT     C120533  21.108  14.224   1.180  0.2107 -0.1546 -0.0111
10267OCT     C220534  20.628  14.242   1.258 -0.1474 -0.1365  0.2365
10268OCT     C120535   5.189  18.646   8.919 -0.5021  0.0326 -0.2727
10268OCT     C220536   5.078  18.470   8.455  0.1997 -0.2048 -0.1718
10269OCT     C120537   5.050  21.389   2.149 -0.2172 -0.0688  0.4058
10269OCT     C220538   5.270  21.660   1.856 -0.1651  0.1246  0.2626
10270OCT     C120539   9.464  12.757  22.267  0.0498  0.6206 -0.2571
10270OCT     C220540   9.578  12.747  22.773  0.1822 -0.2662 -0.0542
10271OCT     C120541  13.378  23.561   3.467 -0.2977  0.0202  0.0225
10271OCT     C220542  13.711  23.684   3.759 -0.0607 -0.0061 -0.3253
10272OCT     C120543  12.628   4.613   9.295  0.1738  0.0818  0.2056
10272OCT     C220544  13.064   4.704   9.143 -0.1635  0.2967  0.0678
10273OCT     C120545  16.991   4.029   8.122  0.4046 -0.2000 -0.1409
10273OCT     C220546  16.710   4.180   7.784 -0.0243  0.1829  0.0178
10274OCT     C120547  18.630  18.598  15.383  0.0943 -0.1664 -0.1019
10274OCT     C220548  18.715  18.583  14.948 -0.2400  0.1587 -0.1947
10275OCT     C120549  22.716   8.274  20.832  0.3740 -0.1306  0.1299
10275OCT     C220550  22.482   7.907  21.011  0.1835 -0.1962  0.0932
10276OCT     C120551   2.787  21.694   1.844 -0.0802  0.3371 -0.0955
10276OCT     C220552   3.155  21.612   2.121 -0.0524 -0.2848 -0.1144
10277OCT     C120553   5.340  10.595   6.027  0.3097  0.0664 -0.0367
10277OCT     C220554   4.989  10.840   5.750 -0.2025  0.3762  0.0293
10278OCT     C120555  22.361  12.868  20.730  0.0635  0.0509 -0.2614
10278OCT     C220556  22.489  13.249  20.916  0.0942  0.0711  0.2750
10279OCT     C120557   1.660  19.700   9.120  0.4922  0.1092  0.0018
10279OCT     C220558   1.786  19.504   9.510  0.0852  0.5435  0.3424
10280OCT     C120559   4.509  18.223   4.040 -0.2289 -0.2824  0.0124
10280OCT     C220560   4.730  18.340   4.442 -0.1221  0.0636  0.0876
10281OCT     C120561  19.960   9.907   6.587 -0.0578 -0.2247 -0.0632
10281OCT     C220562  19.798  10.208   6.281  0.1863  0.4305  0.2140
10282OCT     C120563   6.905  19.961  10.938  0.0134 -0.0241 -0.0160
10282OCT     C220564   6.925  20.375  11.156  0.0775 -0.2038 -0.0977
10283OCT     C120565   5.966  12.193   3.214  0.0633  0.1856  0.2240
10283OCT     C220566   5.597  12.186   2.937 -0.0751  0.1403 -0.2339
10284OCT     C120567  12.976  20.474   2.781 -0.1596 -0.2258 -0.1288
10284OCT     C220568  13.456  20.569   2.704  0.0004 -0.0306  0.0914
10285OCT     C120569  12.273  16.357  12.180  0.1241 -0.0617  0.0454
10285OCT     C220570  11.870  16.406  12.472  0.1256  0.1500  0.2653
10286OCT     C120571   0.630   1.103   7.237 -0.0668  0.0530 -0.2303
10286OCT     C220572   0.696   1.363   6.825 -0.0556  0.2666  0.0756
10287OCT     C120573  18.725   0.063  16.152 -0.2511  0.2279 -0.0143
10287OCT     C220574  19.144  23.618  16.256  0.0934  0.3902 -0.2307
10288OCT     C120575  10.499  12.973   6.927  0.0273 -0.0218  0.2932
10288OCT     C220576  10.563  13.375   6.685 -0.1767  0.1918 -0.3069
10289OCT     C120577   0.769   0.499  12.041  0.1910 -0.2293  0.0416
10289OCT     C220578   1.121   0.251  12.243 -0.1372 -0.3296  0.1558
10290OCT     C120579  18.211  10.266  16.223  0.3550  0.1946  0.1800
10290OCT     C220580  18.606  10.502  16.262  0.2284 -0.0465 -0.0461
10291OCT     C120581   4.136  17.922   1.586 -0.0287  0.0626  0.2289
10291OCT     C220582   4.390  17.737   1.253  0.3104  0.0579  0.1211
10292OCT     C120583  18.141   8.584  17.976  0.0697 -0.0880  0.2202
10292OCT     C220584  18.182   8.994  18.038 -0.2933  0.1835  0.0577
10293OCT     C120585  22.309  20.780  11.484  0.0407 -0.0834  0.0497
10293OCT     C220586  22.473  20.359  11.622 -0.2282  0.0374  0.0578
10294OCT     C120587  18.816  11.377  11.361 -0.1239  0.0014  0.1248
10294OCT     C220588  19.096  11.010  11.475 -0.0609  0.0313 -0.1649
10295OCT     C120589   6.822  16.357   3.031 -0.0263 -0.2573 -0.3424
10295OCT     C220590   6.819  16.396   3.513 -0.3149  0.1930 -0.1141
10296OCT     C120591   4.395  14.711   1.054  0.2280 -0.0595  0.0138
10296OCT     C220592   4.508  15.011   0.835 -0.1679 -0.2507 -0.2183
10297OCT     C120593   5.434  14.124  15.754  0.0643  0.0242  0.3348
10297OCT     C220594   5.849  14.189  15.516 -0.0885  0.1522 -0.0646
10298OCT     C120595  19.303   4.432  21.011 -0.1944 -0.1476  0.3588
10298OCT     C220596  19.072   4.885  21.105 -0.2928 -0.4571  0.0657
10299OCT     C120597  11.190   5.203  18.494 -0.4280 -0.4294 -0.0047
10299OCT     C220598  11.477   5.463  18.218 -0.0373  0.0480 -0.0141
10300OCT     C120599  11.000   0.775  22.575 -0.3305 -0.2554 -0.2814
10300OCT     C220600  11.243   0.400  22.705 -0.0439  0.0400 -0.5862
10301OCT     C120601  12.802  10.298  20.803  0.2337 -0.1599 -0.0752
10301OCT     C220602  12.374  10.251  20.515  0.0090 -0.0611  0.0964
10302OCT     C120603   8.870  19.565   2.178 -0.0581 -0.1576 -0.2435
10302OCT     C220604   9.301  19.581   2.380 -0.1690 -0.1057  0.6171
10303OCT     C120605  16.876  12.541   5.178 -0.0714  0.0474  0.2235
10303OCT     C220606  16.827  12.148   5.461  0.0427 -0.0461 -0.2856
10304OCT     C120607  20.145   1.960  15.477  0.2020  0.4051 -0.1783
10304OCT     C220608  20.415   1.994  15.823  0.0990  0.3097 -0.1428
10305OCT     C120609  16.416  23.312  13.033  0.0630 -0.4779 -0.1096
10305OCT     C220610  16.256  23.616  12.690 -0.0964 -0.1970  0.0989
10306OCT     C120611   0.057  15.173  19.767  0.2730 -0.0932 -0.1010
10306OCT     C220612  23.557  14.789  19.901 -0.2580  0.0411 -0.2783
10307OCT     C120613   6.016  18.832  16.248 -0.1877  0.1739 -0.0096
10307OCT     C220614   6.312  18.949  15.840  0.2050 -0.0706 -0.4348
10308OCT     C120615  17.206  16.803  11.598  0.0026 -0.0947  0.1777
10308OCT     C220616  17.731  16.847  11.610  0.7871 -0.2291 -0.2437
10309OCT     C120617   9.208   5.688  22.102  0.1805 -0.3562 -0.5316
10309OCT     C220618   9.132   5.356  22.438  0.0958  0.3715 -0.0704
10310OCT     C120619  19.044  10.617  16.459 -0.0655  0.1532 -0.2162
10310OCT     C220620  19.449  10.478  16.709 -0.3593  0.0011  0.0527
10311OCT     C120621  15.337  12.876   5.283 -0.1623  0.2966  0.2286
10311OCT     C220622  15.184  12.590   4.913 -0.0066  0.2665  0.1954
10312OCT     C120623   0.097  14.368   5.341 -0.4562  0.0306 -0.1505
10312OCT     C220624   0.332  14.708   5.095  0.2744  0.1337 -0.2261
10313OCT     C120625   5.209  10.272  22.203  0.3923 -0.0469 -0.1289
10313OCT     C220626   5.200  10.506  22.584 -0.0551  0.3053 -0.3743
10314OCT     C120627   7.659   7.889   9.510  0.1315 -0.0905  0.1930
10314OCT     C220628   7.563   8.281   9.316  0.4047  0.1357  0.2133
10315OCT     C120629  12.265  15.418   6.419  0.4642  0.0789  0.4562
10315OCT     C220630  12.550  15.482   6.760  0.0233 -0.0726 -0.3073
10316OCT     C120631  22.776   4.786   3.618  0.3138  0.0602  0.0516
10316OCT     C220632  23.108   4.880   3.927  0.1967 -0.0114 -0.0369
10317OCT     C120633  10.383  14.268   1.150 -0.0772  0.0527 -0.2113
10317OCT     C220634  10.276  13.881   0.927 -0.0507 -0.0765  0.1442
10318OCT     C120635  17.059  12.807   3.892 -0.0381 -0.2808 -0.3133
10318OCT     C220636  17.365  13.155   3.900  0.0603  0.0119 -0.0815
10319OCT     C120637   9.310   0.425  10.897  0.0683  0.6089 -0.0732
10319OCT     C220638   9.471   0.230  11.309  0.0962  0.1326 -0.0193
10320OCT     C120639  14.318  23.630   0.144 -0.2613  0.1976 -0.1196
10320OCT     C220640  14.521  23.236   0.274 -0.0697  0.0083 -0.0464
10321OCT     C120641   1.764   5.484  13.935 -0.1781 -0.4060 -0.0288
10321OCT     C220642   1.345   5.198  13.836  0.1624  0.1602  0.1980
10322OCT     C120643   4.257  14.430  22.263 -0.1770 -0.2495 -0.0300
10322OCT     C220644   4.308  14.667  22.655 -0.0434  0.0635 -0.2151
10323OCT     C120645  22.688  20.895  23.502 -0.1798 -0.5665 -0.4039
10323OCT     C220646  22.284  20.749  23.610 -0.1390  0.0801 -0.0062
10324OCT     C120647   7.226  21.044  13.998  0.0616  0.1087 -0.1352
10324OCT     C220648   7.508  21.431  13.776  0.0123 -0.1305 -0.1974
10325OCT     C120649  17.618  21.673   2.521  0.1021  0.1161  0.0755
10325OCT     C220650  17.924  21.997   2.443 -0.0026  0.1188 -0.1157
10326OCT     C120651   9.138   2.915  18.467  0.0550 -0.1310  0.1607
10326OCT     C220652   9.257   3.111  18.847  0.1531 -0.0372 -0.1720
10327OCT     C120653  10.547  12.372   9.500 -0.1644  0.4646 -0.3372
10327OCT     C220654  10.948  12.156   9.606 -0.0833 -0.4046  0.1039
10328OCT     C120655  18.439  14.500  21.397 -0.0884 -0.0004 -0.0632
10328OCT     C220656  18.903  14.347  21.217  0.1690  0.1955 -0.2089
10329OCT     C120657   4.304   1.533  12.879  0.3480 -0.1294  0.0270
10329OCT     C220658   4.390   1.325  12.491  0.1789 -0.0722  0.5743
10330OCT     C120659   7.106  23.095  15.300  0.0701 -0.0866 -0.4143
10330OCT     C220660   7.014  23.528  15.284  0.0800  0.0060  0.0969
10331OCT     C120661   1.097   2.577   8.099 -0.2895  0.0703 -0.2187
10331OCT     C220662   1.379   2.299   7.843  0.1457 -0.1862 -0.0540
10332OCT     C120663   9.882   7.490  10.316 -0.3424 -0.4751  0.1212
10332OCT     C220664   9.529   7.774  10.160  0.2757  0.0162  0.0564
10333OCT     C120665   8.362   6.638   8.649 -0.2018  0.2466  0.0211
10333OCT     C220666   8.569   7.023   8.549 -0.3114  0.0552 -0.3080
10334OCT     C120667  19.186   3.950  18.989 -0.2025 -0.1694 -0.3002
10334OCT     C220668  18.981   3.543  19.143 -0.3305  0.0959 -0.1901
10335OCT     C120669  23.482  20.110   8.217  0.0943 -0.0935  0.1508
10335OCT     C220670  23.349  20.380   8.568  0.0588 -0.2548 -0.5124
10336OCT     C120671  18.788  13.612   7.996  0.0571 -0.2188  0.1963
10336OCT     C220672  19.198  13.499   7.808 -0.2435 -0.2715 -0.0790
10337OCT     C120673   8.888  15.698  11.353 -0.2537  0.0124  0.3388
10337OCT     C220674   9.022  15.672  11.790 -0.0485 -0.1664 -0.0984
10338OCT     C120675   1.672   0.954  14.606 -0.2430 -0.0115  0.2179
10338OCT     C220676   1.756   0.785  14.165  0.4200  0.2789 -0.2584
10339OCT     C120677  17.826  13.772   4.672  0.1231 -0.0477 -0.0265
10339OCT     C220678  17.828  13.467   4.293  0.1950  0.2530 -0.0882
10340OCT     C120679  21.000   9.885   1.591 -0.1855 -0.0162  0.0110
10340OCT     C220680  20.817   9.487   1.763  0.2785 -0.0913  0.2177
10341OCT     C120681  20.572   4.980   3.472 -0.4757 -0.1646  0.2243
10341OCT     C220682  20.517   4.630   3.170  0.0549  0.0295  0.0716
10342OCT     C120683  15.138   2.346  19.684  0.0181  0.0605 -0.3400
10342OCT     C220684  15.147   2.829  19.586  0.2246  0.1953 -0.1637
10343OCT     C120685   0.471  18.947   3.940 -0.0967 -0.0262 -0.0801
10343OCT     C220686   0.161  19.015   3.641  0.3350 -0.6861 -0.1353
10344OCT     C120687   9.054  11.050   5.019 -0.1647  0.1241 -0.1983
10344OCT     C220688   9.286  10.945   4.614  0.1884 -0.4019 -0.2132
10345OCT     C120689   6.205   0.843  16.383 -0.4276  0.2894 -0.2922
10345OCT     C220690   5.859   1.049  16.278  0.2734 -0.4426  0.2143
10346OCT     C120691  17.304   0.292  13.425 -0.3162  0.2972 -0.0852
10346OCT     C220692  17.486   0.093  13.769 -0.1086 -0.0258 -0.0368
10347OCT     C120693   4.904  14.498  12.352  0.0310 -0.2152  0.0482
10347OCT     C220694   4.684  14.232  11.984 -0.3085 -0.1252  0.0356
10348OCT     C120695   5.406   6.203   7.519  0.0300 -0.0584  0.0606
10348OCT     C220696   5.408   6.653   7.329  0.1202  0.0612 -0.2266
10349OCT     C120697  20.780   3.871   0.091 -0.2331  0.3346 -0.2780
10349OCT     C220698  20.463   4.190   0.185 -0.0330  0.2626 -0.0838
10350OCT     C120699  21.190  21.491  19.976  0.4555 -0.1913 -0.0244
10350OCT     C220700  21.587  21.290  20.071  0.3663  0.0706  0.0838
10351OCT     C120701   9.949   3.425   5.150 -0.0437  0.2841 -0.3780
10351OCT     C220702   9.827   3.760   5.461  0.1032  0.1230  0.1288
10352OCT     C120703   5.352   2.002  17.396  0.1381  0.3091  0.1479
10352OCT     C220704   4.910   2.036  17.590 -0.1331  0.5332 -0.4050
10353OCT     C120705  18.172  10.081  20.802 -0.2424 -0.0441 -0.4378
10353OCT     C220706  17.898   9.725  20.594  0.0050 -0.3962  0.1544
10354OCT     C120707  23.338  13.308   4.062  0.2264  0.2489 -0.2080
10354OCT     C220708  22.963  13.540   3.897  0.2236  0.2460  0.1011
10355OCT     C120709  16.907   6.967   1.242  0.0367  0.1830  0.3455
10355OCT     C220710  16.813   6.769   1.636 -0.3172  0.0182 -0.1703
10356OCT     C120711  10.026   8.721  20.933  0.1831  0.2478  0.2409
10356OCT     C220712  10.199   8.339  20.729  0.1814  0.0598 -0.0259
10357OCT     C120713   4.086  16.525  14.163  0.1005  0.2957  0.0587
10357OCT     C220714   3.918  16.958  14.112  0.0214 -0.0320  0.1260
10358OCT     C120715  20.729  18.932   6.237 -0.2843  0.0043 -0.2948
10358OCT     C220716  20.717  18.495   6.415  0.0697 -0.2043  0.2161
10359OCT     C120717   4.869  14.069  19.936  0.1877  0.0502  0.0770
10359OCT     C220718   4.803  14.403  19.620  0.1926  0.1045  0.4885
10360OCT     C120719   1.754  23.197   3.370 -0.0333 -0.2750  0.2579
10360OCT     C220720   1.795  22.705   3.295  0.1293  0.0898 -0.1338
10361OCT     C120721   5.824   8.735  10.912 -0.3485  0.0838 -0.0419
10361OCT     C220722   6.126   8.375  11.048  0.0019 -0.1088  0.1991
10362OCT     C120723  13.665   4.760  13.300  0.2339 -0.2176 -0.4955
10362OCT     C220724  13.877   4.498  12.996  0.2170 -0.4185  0.0777
10363OCT     C120725   2.490  14.955  11.094 -0.0237 -0.1288  0.0049
10363OCT     C220726   2.386  14.659  11.440  0.2732 -0.1378  0.0765
10364OCT     C120727   1.553  18.459   7.875  0.3810 -0.0220 -0.0334
10364OCT     C220728   1.872  18.504   7.521 -0.0550 -0.6015 -0.0249
10365OCT     C120729  18.864   5.688   4.760  0.5237 -0.6831  0.1979
10365OCT     C220730  19.139   5.497   5.176  0.4113 -0.0316 -0.1007
10366OCT     C120731   4.880  20.461   0.979  0.4529  0.3053  0.0514
10366OCT     C220732   4.708  20.083   0.699 -0.0173 -0.1420  0.1013
10367OCT     C120733   5.692   6.148  23.511  0.0371 -0.0255 -0.0168
10367OCT     C220734   5.802   6.593  23.491 -0.1378 -0.0327  0.0371
10368OCT     C120735   9.835  19.901  11.926  0.2136 -0.0931 -0.0634
10368OCT     C220736   9.416  19.751  12.003 -0.1401 -0.1291 -0.0147
10369OCT     C120737   5.675   9.663  18.409  0.2779 -0.1786  0.0162
10369OCT     C220738   5.838   9.987  18.675 -0.0074 -0.0898  0.2095
10370OCT     C120739  10.941  18.129   3.373 -0.1630  0.1265 -0.2444
10370OCT     C220740  11.008  18.504   3.054 -0.3257 -0.3698  0.1329
10371OCT     C120741   7.479  13.505   3.133  0.1970 -0.0492  0.0210
10371OCT     C220742   7.547  13.648   2.673 -0.0881  0.2540 -0.0546
10372OCT     C120743  23.236  21.962   9.670  0.2207 -0.2875 -0.1201
10372OCT     C220744  23.370  21.540   9.612 -0.1177 -0.1640 -0.3188
10373OCT     C120745   8.371  16.704  22.359 -0.3288  0.0617  0.1344
10373OCT     C220746   8.126  17.097  22.262 -0.1276  0.0683 -0.1634
10374OCT     C120747   1.003  21.642  16.240  0.0841 -0.0659 -0.0290
10374OCT     C220748   0.704  21.841  16.541  0.2524 -0.1539  0.1815
10375OCT     C120749   4.124  19.908  18.624  0.2013  0.1931 -0.0499
10375OCT     C220750   4.212  19.703  18.182  0.0621 -0.2059  0.2775
10376OCT     C120751  11.925  16.181   3.075  0.1040 -0.1322 -0.2250
10376OCT     C220752  11.529  16.396   3.203 -0.2345  0.0087  0.1491
10377OCT     C120753   8.915  13.278   5.863  0.2089  0.2075 -0.0828
10377OCT     C220754   8.528  13.062   5.961  0.2998  0.0134  0.3067
10378OCT     C120755  20.220  23.526  11.081 -0.0192  0.1073  0.0647
10378OCT     C220756  20.117   0.239  11.076 -0.0389  0.0416 -0.1481
10379OCT     C120757  15.546  20.888  17.031  0.0049 -0.0537 -0.1258
10379OCT     C220758  15.840  20.981  16.638  0.1063  0.3275 -0.1778
10380OCT     C120759  21.242  11.679   9.975 -0.0870 -0.3453 -0.1605
10380OCT     C220760  21.052  11.572   9.534  0.1457 -0.0919  0.0869
10381OCT     C120761  20.885   3.787  16.991 -0.0500  0.0139  0.0087
10381OCT     C220762  20.755   4.098  16.699 -0.0353  0.0162 -0.0014
10382OCT     C120763  17.480   0.346   5.066  0.2423 -0.0438  0.0163
10382OCT     C220764  17.974   0.268   5.083  0.1224  0.1610 -0.0065
10383OCT     C120765  13.049   0.499   6.822 -0.0896 -0.0381 -0.0493
10383OCT     C220766  13.308   0.542   7.190  0.0611  0.1165 -0.1491
10384OCT     C120767  16.863  19.445  14.722  0.1120  0.2237  0.1059
10384OCT     C220768  17.220  19.772  14.688  0.1866  0.1679  0.5131
10385OCT     C120769   3.005   3.971  17.502  0.1547  0.2625 -0.0834
10385OCT     C220770   3.387   4.151  17.385 -0.0326  0.0003 -0.0677
10386OCT     C120771   8.892  13.877  16.824 -0.2091 -0.1161 -0.0237
10386OCT     C220772   8.748  13.569  16.556 -0.2520  0.3320 -0.0489
10387OCT     C120773   8.110  16.507  22.796 -0.1344 -0.0851 -0.1401
10387OCT     C220774   8.454  16.577  23.030 -0.3622  0.0774  0.2926
10388OCT     C120775  14.152  16.197  12.946 -0.1037  0.0581  0.1269
10388OCT     C220776  14.513  16.272  13.219 -0.0389  0.4368 -0.1295
10389OCT     C120777  21.675   0.698   1.198  0.1626  0.2631 -0.3386
10389OCT     C220778  21.572   0.890   1.540 -0.0979 -0.1600 -0.0069
10390OCT     C120779  22.137  16.832  18.739  0.1197 -0.0954 -0.0885
10390OCT     C220780  22.146  17.343  18.732 -0.0514  0.4708  0.1453
10391OCT     C120781   5.777  13.508  17.425 -0.2823  0.0346  0.1641
10391OCT     C220782   6.042  13.207  17.691  0.4145 -0.4300  0.1702
10392OCT     C120783  15.407   6.099  22.788 -0.0263 -0.2464  0.2855
10392OCT     C220784  15.109   6.414  22.522 -0.0598 -0.0305 -0.0731
10393OCT     C120785   7.601  11.787  10.280  0.2391  0.2579 -0.1688
10393OCT     C220786   7.223  11.644   9.956 -0.0744  0.0427 -0.2531
10394OCT     C120787   6.488   8.684  17.068 -0.1452  0.2658  0.3437
10394OCT     C220788   6.524   8.233  17.229 -0.1732  0.0063  0.1045
10395OCT     C120789  13.274   8.736  16.207 -0.2306 -0.1987  0.0967
10395OCT     C220790  12.976   8.451  15.985 -0.1151  0.1432 -0.3783
10396OCT     C120791   9.620  21.789   7.258 -0.4413  0.2657  0.0760
10396OCT     C220792   9.721  22.170   7.046 -0.1556  0.0573 -0.4045
10397OCT     C120793   5.074   0.948   1.010  0.3129 -0.1960  0.0936
10397OCT     C220794   4.869   0.699   1.308 -0.3021 -0.0084  0.0889
10398OCT     C120795  19.167  18.397  16.364 -0.2774  0.1900 -0.1709
10398OCT     C220796  19.234  18.558  16.721 -0.5361  0.0191 -0.1580
10399OCT     C120797   9.821  19.679   3.976  0.0061  0.0881 -0.1439
10399OCT     C220798  10.044  20.098   4.100 -0.4286  0.4048 -0.2520
10400OCT     C120799  18.541   1.985   3.352  0.1050 -0.1800 -0.0813
10400OCT     C220800  18.656   1.968   3.795  0.1512  0.0275  0.0333
10401OCT     C120801  11.840   3.165   5.502  0.1813  0.0263  0.0701
10401OCT     C220802  11.768   2.916   5.885  0.0633 -0.1054 -0.1428
10402OCT     C120803  14.997  14.472  18.876  0.2065  0.3610  0.1806
10402OCT     C220804  15.388  14.405  19.173  0.0700 -0.4502  0.1034
10403OCT     C120805  10.192  18.741  11.021  0.0945 -0.0549 -0.2851
10403OCT     C220806  10.240  19.174  11.149 -0.2118 -0.0791 -0.0143
10404OCT     C120807   8.571   2.886  12.693 -0.1263 -0.0922 -0.1602
10404OCT     C220808   8.354   2.856  12.286  0.0212  0.0232 -0.2082
10405OCT     C120809  15.864  18.991  17.452  0.0709  0.0172 -0.3293
10405OCT     C220810  15.823  19.213  17.044  0.4475 -0.0796  0.0762
10406OCT     C120811  20.170   9.170  11.836  0.0951 -0.1716  0.3912
10406OCT     C220812  19.850   9.045  11.508 -0.0607 -0.2049  0.2310
10407OCT     C120813   5.262   8.288  16.294 -0.1535 -0.3537  0.1991
10407OCT     C220814   5.333   7.923  16.486 -0.2926  0.0950 -0.1423
10408OCT     C120815   6.722   8.995   3.838  0.2697  0.2428 -0.1266
10408OCT     C220816   7.009   8.855   4.133  0.0548 -0.1619  0.3595
10409OCT     C120817  22.385  14.250  18.131  0.2662 -0.1392 -0.1685
10409OCT     C220818  22.795  14.493  18.154  0.2722 -0.4357 -0.0652
10410OCT     C120819   1.539  11.978   2.364 -0.0546 -0.1591 -0.2384
10410OCT     C220820   1.123  11.919   2.249 -0.2582 -0.0427 -0.1700
10411OCT     C120821   8.009  10.676  12.304  0.1019  0.0888  0.1473
10411OCT     C220822   7.668  11.032  12.224 -0.1986 -0.3843 -0.0320
10412OCT     C120823   8.816   7.720   7.528 -0.1323  0.0204 -0.1847
10412OCT     C220824   9.099   7.615   7.096 -0.1238  0.1037  0.3246
10413OCT     C120825   6.200   5.686  19.855 -0.0543  0.0095  0.0545
10413OCT     C220826   6.493   5.373  20.007  0.0837  0.0338 -0.0521
10414OCT     C120827   5.051   5.948   4.469 -0.1749  0.2396  0.0636
10414OCT     C220828   4.983   6.005   4.910 -0.0832  0.1652 -0.0606
10415OCT     C120829   6.401  16.555   0.748 -0.1547 -0.1991 -0.0431
10415OCT     C220830   6.074  16.166   0.614  0.1100  0.0341 -0.2858
10416OCT     C120831   0.429  20.836  14.491  0.0177 -0.1749 -0.3176
10416OCT     C220832   0.681  21.266  14.585  0.1500 -0.0991  0.2713
10417OCT     C120833   6.936  14.025  17.461 -0.4012 -0.2013  0.2996
10417OCT     C220834   7.121  14.055  17.881  0.0049 -0.0115 -0.3853
10418OCT     C120835  20.238   8.714  19.819  0.1257  0.0623  0.2010
10418OCT     C220836  20.396   9.138  19.893  0.0098 -0.1923 -0.0952
10419OCT     C120837  13.821  23.519   0.096  0.0490  0.1531 -0.0794
10419OCT     C220838  13.848   0.058  23.426 -0.2040  0.4328  0.0076
10420OCT     C120839  22.623  12.797  17.315 -0.0532  0.2003  0.0077
10420OCT     C220840  22.636  12.623  17.769  0.2498 -0.1881 -0.0254
10421OCT     C120841  10.744   5.716  18.970  0.2855  0.4206  0.1784
10421OCT     C220842  10.754   5.883  19.398  0.2645 -0.1119 -0.0867
10422OCT     C120843  20.904   5.514  18.883 -0.0586 -0.1997 -0.1260
10422OCT     C220844  20.895   5.188  18.559 -0.0546 -0.0545  0.1011
10423OCT     C120845  22.454   7.795   9.871 -0.1058  0.0820 -0.1488
10423OCT     C220846  22.700   7.683  10.280 -0.0634  0.3760  0.3597
10424OCT     C120847   5.606   5.641  11.089  0.0603 -0.1476  0.3274
10424OCT     C220848   5.748   5.899  10.746 -0.3451 -0.1602 -0.0087
10425OCT     C120849  22.171  14.964   3.018 -0.1778  0.1071  0.0625
10425OCT     C220850  22.626  15.067   2.931  0.3784  0.0802 -0.2912
10426OCT     C120851   9.887  21.082   8.782 -0.0020  0.3361 -0.0538
10426OCT     C220852  10.076  20.995   9.159 -0.1543  0.0420 -0.4050
10427OCT     C120853  20.494   2.717  20.952  0.0810  0.1958  0.0890
10427OCT     C220854  20.737   3.092  20.989  0.0867  0.4457  0.3660
10428OCT     C120855  14.087  21.131  22.202  0.4000  0.3240 -0.0938
10428OCT     C220856  14.296  21.492  22.112  0.1718 -0.2846  0.0902
10429OCT     C120857   0.157  15.040  20.258 -0.1052  0.0604 -0.1141
10429OCT     C220858  23.494  15.134  20.448 -0.0678  0.0918  0.2064
10430OCT     C120859   0.346   9.566  19.398 -0.0422 -0.1842  0.0291
10430OCT     C220860   0.650   9.767  19.090 -0.2314  0.2558  0.0984
10431OCT     C120861  13.065  21.508  22.821  0.2992  0.2470 -0.0498
10431OCT     C220862  13.264  21.097  22.919  0.1799 -0.1841  0.0878
10432OCT     C120863  10.748   5.547   4.952  0.0880  0.3170  0.0102
10432OCT     C220864  10.923   5.828   5.255  0.1811  0.1158 -0.0295
10433OCT     C120865   1.339  16.527  15.043 -0.2125  0.0749 -0.0792
10433OCT     C220866   1.029  16.718  15.305 -0.0258 -0.1809 -0.2563
10434OCT     C120867  16.131   1.308   0.465  0.0756  0.0283 -0.0014
10434OCT     C220868  16.498   1.432   0.191  0.0322 -0.2730  0.0194
10435OCT     C120869  23.142   8.601   2.035 -0.2166  0.2122 -0.0506
10435OCT     C220870  23.429   8.365   1.804  0.0170 -0.0091  0.0310
10436OCT     C120871  12.218   1.124  14.716 -0.4315 -0.2719 -0.1769
10436OCT     C220872  12.311   0.770  14.993 -0.0438 -0.2851 -0.6171
10437OCT     C120873  17.000  11.959   9.305 -0.7294  0.0684 -0.1933
10437OCT     C220874  16.995  11.744   8.844 -0.2492  0.1850  0.0200
10438OCT     C120875   5.237   9.606  21.748  0.1479 -0.0123  0.4287
10438OCT     C220876   5.223   9.401  21.358 -0.2845 -0.1930  0.1856
10439OCT     C120877  11.574   9.181  10.258  0.3070  0.1074  0.4984
10439OCT     C220878  11.960   8.870  10.337  0.3593  0.1222  0.2378
10440OCT     C120879   0.154   9.277  11.622  0.6870  0.0717 -0.0679
10440OCT     C220880  23.638   9.095  11.997 -0.2468  0.1121 -0.1103
10441OCT     C120881   9.185  13.865   2.168  0.2478 -0.2743  0.2712
10441OCT     C220882   8.735  13.689   2.213  0.2677 -0.4109 -0.1019
10442OCT     C120883  21.691  11.211  14.298  0.2742 -0.0589  0.1505
10442OCT     C220884  21.818  10.955  13.966 -0.0166 -0.1044  0.0136
10443OCT     C120885  10.266  19.673   4.760  0.1792 -0.0858 -0.1056
10443OCT     C220886  10.584  19.424   4.593  0.2244  0.0758  0.0224
10444OCT     C120887  14.718   3.377  12.860 -0.1920  0.2455 -0.0035
10444OCT     C220888  15.168   3.599  12.948 -0.1037 -0.1779 -0.1946
10445OCT     C120889  20.937  18.927  12.003  0.0510  0.4081  0.1603
10445OCT     C220890  20.554  18.726  11.998 -0.1931 -0.0384 -0.0760
10446OCT     C120891  21.588   9.967   7.776 -0.0848  0.0596 -0.0175
10446OCT     C220892  21.788   9.638   8.006  0.0478 -0.1742 -0.0765
10447OCT     C120893  18.983  16.683   8.124 -0.1193 -0.0141 -0.4459
10447OCT     C220894  18.514  16.729   7.975 -0.1080 -0.1030 -0.0943
10448OCT     C120895  15.170  13.603   6.728 -0.5832  0.0752  0.3150
10448OCT     C220896  15.272  13.147   6.622  0.0491 -0.0414 -0.0631
10449OCT     C120897  17.027   5.322  15.409 -0.2520 -0.4308 -0.0619
10449OCT     C220898  17.128   5.448  15.834  0.3654 -0.1650  0.2034
10450OCT     C120899  10.462  23.399  22.312 -0.1080 -0.0418  0.1983
10450OCT     C220900   9.992  23.314  22.378 -0.2941  0.3828 -0.0379
10451OCT     C120901  12.403  14.485  23.464  0.0904 -0.2591 -0.3029
10451OCT     C220902  12.830  14.308  23.425  0.1199 -0.1512  0.0044
10452OCT     C120903   3.990   8.564  21.189  0.1381 -0.1400 -0.0348
10452OCT     C220904   4.197   8.427  20.792  0.1899 -0.4210  0.5036
10453OCT     C120905  18.781  14.992  23.296 -0.0223  0.1929  0.2608
10453OCT     C220906  18.932  14.605  23.453 -0.0344  0.1240  0.0751
10454OCT     C120907  18.347   6.562  17.180 -0.2155 -0.0330 -0.3137
10454OCT     C220908  17.945   6.838  17.071 -0.1172 -0.0300 -0.3024
10455OCT     C120909   1.177  14.024  16.786  0.0315  0.1078 -0.0361
10455OCT     C220910   0.926  13.921  16.424 -0.2815 -0.4248 -0.0752
10456OCT     C120911  13.438  14.776  12.332  0.2343  0.1278  0.1772
10456OCT     C220912  13.196  14.730  11.879  0.1213 -0.4076  0.1948
10457OCT     C120913   0.021   8.955  17.017  0.2107  0.0456  0.2503
10457OCT     C220914   0.312   8.597  17.068  0.3062 -0.0858 -0.1088
10458OCT     C120915  20.813  20.019  20.843 -0.0125  0.1113 -0.2354
10458OCT     C220916  20.362  20.075  20.777  0.0195  0.2990  0.4215
10459OCT     C120917  11.466   3.679   5.635 -0.1155 -0.0149 -0.5602
10459OCT     C220918  11.383   3.591   5.209  0.1919 -0.1175 -0.0210
10460OCT     C120919   4.546   4.894  23.557  0.2220 -0.1085 -0.1665
10460OCT     C220920   4.964   5.032  23.652  0.0211  0.1355 -0.0152
10461OCT     C120921  11.553  18.378  12.704 -0.1295 -0.2939  0.1995
10461OCT     C220922  11.962  18.076  12.769 -0.3286 -0.1178 -0.0310
10462OCT     C120923   4.734  10.302  13.214 -0.1239  0.1551  0.2645
10462OCT     C220924   4.513   9.942  13.320  0.1664 -0.3088 -0.1704
10463OCT     C120925   8.845   9.363   5.217 -0.3062 -0.5500  0.2662
10463OCT     C220926   9.217   9.145   5.043 -0.0847  0.2567  0.1308
10464OCT     C120927  11.317   3.162   1.233  0.1889 -0.0662 -0.0555
10464OCT     C220928  10.999   3.513   1.179 -0.2499 -0.0314  0.0220
10465OCT     C120929   2.052  19.646  20.360  0.0304 -0.1244  0.4523
10465OCT     C220930   2.114  19.448  19.980  0.3593 -0.0257 -0.2845
10466OCT     C120931   4.162  11.267   4.826 -0.0244 -0.3238  0.0055
10466OCT     C220932   4.210  11.730   4.884 -0.0237 -0.1093  0.1099
10467OCT     C120933  17.518   2.570   6.815  0.2042  0.2161 -0.0767
10467OCT     C220934  17.543   2.089   6.668  0.1430 -0.0989  0.3075
10468OCT     C120935   1.997  15.969  10.413 -0.3404  0.3078  0.1115
10468OCT     C220936   1.703  16.299  10.381  0.2041  0.2958 -0.0205
10469OCT     C120937   7.184  10.676   6.519  0.1156 -0.0477 -0.0134
10469OCT     C220938   7.249  10.616   6.047  0.3884  0.3440  0.2795
10470OCT     C120939  13.079  12.826   6.545 -0.1375  0.0009 -0.2302
10470OCT     C220940  12.963  12.350   6.572  0.0566 -0.4280 -0.0373
10471OCT     C120941   3.833   2.837  22.750  0.1634  0.2985 -0.1972
10471OCT     C220942   3.654   2.991  23.190 -0.2439  0.4163 -0.0856
10472OCT     C120943  10.120   5.811   3.277 -0.2009 -0.0456 -0.1156
10472OCT     C220944  10.038   5.628   3.650  0.0546  0.2661  0.1563
10473OCT     C120945  21.775  18.953   9.165  0.2021  0.2648  0.0334
10473OCT     C220946  21.866  19.004   9.632 -0.1170 -0.1235 -0.1271
10474OCT     C120947  18.057  14.008  22.663  0.2039 -0.1361 -0.0717
10474OCT     C220948  17.798  13.905  23.103  0.1606 -0.1784  0.1916
10475OCT     C120949  14.855  20.674   2.345 -0.1394 -0.0524  0.0042
10475OCT     C220950  15.246  20.840   2.191  0.3147 -0.0735  0.0615
10476OCT     C120951   2.829  14.834   3.243  0.0062  0.1973  0.3380
10476OCT     C220952   2.751  15.310   3.463 -0.0321 -0.1591  0.1283
10477OCT     C120953  11.042  16.222   9.352 -0.2140 -0.2610  0.0621
10477OCT     C220954  11.084  16.401   9.748  0.4558  0.0434  0.2946
10478OCT     C120955  15.975   7.316  18.960  0.2058 -0.0647  0.1682
10478OCT     C220956  16.254   7.231  18.581  0.0405 -0.2819 -0.1372
10479OCT     C120957   6.591   5.877  20.119 -0.1546 -0.2555  0.4842
10479OCT     C220958   6.210   6.174  20.155  0.4471  0.1272 -0.2357
10480OCT     C120959  10.521   6.135   3.472  0.2056 -0.0620  0.0910
10480OCT     C220960  10.457   5.837   3.820 -0.1835  0.2627  0.1295
10481OCT     C120961  17.026  16.880   8.871 -0.1666 -0.2672  0.1506
10481OCT     C220962  17.049  16.580   9.151 -0.0870  0.0174  0.2079
10482OCT     C120963   0.721  20.570  22.773 -0.2598 -0.3474 -0.0540
10482OCT     C220964   0.954  20.919  22.777  0.1214 -0.2194 -0.3243
10483OCT     C120965  13.605   9.648  12.159 -0.1577 -0.0253 -0.0090
10483OCT     C220966  13.577   9.291  12.409 -0.0570 -0.2729  0.2326
10484OCT     C120967  10.731   3.261  11.033 -0.1947 -0.0725  0.1701
10484OCT     C220968  10.621   3.460  11.505  0.0667 -0.0976 -0.0240
10485OCT     C120969   3.127  16.961   1.265  0.1562 -0.0121  0.3103
10485OCT     C220970   2.655  17.069   1.101  0.1544  0.0603  0.0752
10486OCT     C120971   5.417  11.702  15.201 -0.2993 -0.5192 -0.3770
10486OCT     C220972   5.220  11.439  15.555  0.1330  0.2483 -0.3746
10487OCT     C120973   6.137  15.954  11.007  0.0330  0.0613 -0.3625
10487OCT     C220974   6.139  15.909  10.535 -0.4614 -0.0836  0.0400
10488OCT     C120975   7.270   4.988  17.092 -0.2269 -0.0699  0.3816
10488OCT     C220976   7.021   4.809  17.393  0.2257 -0.4176  0.0042
10489OCT     C120977   1.412  21.194  16.252  0.3759 -0.0913  0.0619
10489OCT     C220978   1.456  21.612  16.488 -0.0696  0.2419  0.1733
10490OCT     C120979  20.453   5.788   1.444  0.0633 -0.1385  0.0410
10490OCT     C220980  20.798   5.787   1.762  0.1046 -0.0973 -0.0900
10491OCT     C120981  15.817  18.259  16.102  0.1647  0.2134 -0.0071
10491OCT     C220982  15.449  18.190  15.819 -0.1211  0.0855 -0.2664
10492OCT     C120983  12.549  16.741  14.305  0.3712 -0.0805  0.0626
10492OCT     C220984  12.628  17.106  13.942  0.2031  0.2039 -0.0134
10493OCT     C120985  20.203  12.948   6.642  0.1932 -0.2077 -0.0796
10493OCT     C220986  20.271  12.756   6.210 -0.1888 -0.2390  0.1526
10494OCT     C120987   2.642  10.547   3.793 -0.1811 -0.4302 -0.1076
10494OCT     C220988   2.637  10.652   3.335  0.0039  0.0187  0.1576
10495OCT     C120989   2.272  13.224  15.347 -0.1138  0.0372  0.1366
10495OCT     C220990   2.437  12.804  15.272  0.1375 -0.2649 -0.2139
10496OCT     C120991   7.746  21.485  18.750 -0.1102  0.2364 -0.0380
10496OCT     C220992   7.579  21.291  18.337 -0.1855  0.2193 -0.3593
10497OCT     C120993  18.158   8.051   5.075  0.2522  0.0663 -0.2793
10497OCT     C220994  17.922   7.772   4.769 -0.1587  0.0321  0.0641
10498OCT     C120995  14.115  10.988   1.893  0.2508 -0.0167  0.3725
10498OCT     C220996  13.990  11.415   1.765 -0.0218 -0.0540  0.2886
10499OCT     C120997   7.748  18.633   3.946 -0.2035 -0.1300  0.0371
10499OCT     C220998   7.620  18.988   3.673 -0.0378  0.1571  0.0319
10500OCT     C120999  21.136   7.825   4.168 -0.2333  0.2419  0.0067
10500OCT     C221000  21.237   7.914   4.589  0.1195  0.2366  0.1930
10501OCT     C121001   3.758   1.930   7.290 -0.0541 -0.1794  0.2318
10501OCT     C221002   3.384   1.969   6.964  0.0313 -0.0583  0.1342
10502OCT     C121003  14.514   5.024  21.430  0.2341 -0.4416  0.3034
10502OCT     C221004  14.138   4.912  21.131 -0.4946  0.1385  0.0821
10503OCT     C121005  23.041   9.030  13.402 -0.0083  0.1885 -0.0446
10503OCT     C221006  22.943   8.815  13.796  0.1030 -0.2099  0.2171
10504OCT     C121007  19.072   0.573   9.914  0.0115 -0.1010  0.0360
10504OCT     C221008  19.221   0.291  10.263 -0.0936  0.2463 -0.3499
10505OCT     C121009  15.606  19.177  17.811 -0.2438  0.2722 -0.1080
10505OCT     C221010  15.461  19.534  18.011 -0.0067 -0.0594  0.0925
10506OCT     C121011  20.304   7.340   7.934  0.0584  0.1405  0.1659
10506OCT     C221012  20.327   7.099   8.386  0.2302  0.1055 -0.2610
10507OCT     C121013  14.070  11.098   4.877  0.2410 -0.0285  0.2667
10507OCT     C221014  14.011  10.826   4.473 -0.4483 -0.2276 -0.4149
10508OCT     C121015  15.405  18.990   4.288  0.3874 -0.0121  0.1089
10508OCT     C221016  15.405  18.588   4.468 -0.3357  0.3226  0.1059
10509OCT     C121017  12.625   3.094  18.481 -0.2188  0.0931  0.3623
10509OCT     C221018  13.026   3.238  18.411  0.0718  0.0942  0.1269
10510OCT     C121019  21.257   0.320  23.469  0.0219  0.0789  0.2768
10510OCT     C221020  21.607   0.185   0.040 -0.0108  0.0438 -0.0476
10511OCT     C121021   5.038  22.861   3.858  0.2005 -0.0901 -0.1502
10511OCT     C221022   5.388  23.107   3.611  0.1919 -0.0618 -0.0310
10512OCT     C121023   9.396   6.407  20.366  0.1929  0.1170  0.1837
10512OCT     C221024   9.121   6.780  20.362  0.0763  0.0226 -0.0419
10513OCT     C121025  23.523  22.499  21.235  0.1369  0.1130  0.1883
10513OCT     C221026  23.662  22.126  21.544  0.2528 -0.4229 -0.1004
10514OCT     C121027   1.868   3.130  15.757 -0.0983  0.2926  0.0224
10514OCT     C221028   1.635   3.502  15.675 -0.3483  0.2623  0.2900
10515OCT     C121029  15.967  15.128   4.413  0.1562  0.0484  0.1160
10515OCT     C221030  16.265  14.777   4.311  0.4996 -0.3052 -0.2255
10516OCT     C121031  12.350  13.260   9.227  0.0945  0.0587 -0.0855
10516OCT     C221032  12.717  13.085   9.417  0.0171  0.2566 -0.2435
10517OCT     C121033  14.843  10.999  19.197  0.0323  0.1555  0.0479
10517OCT     C221034  14.537  11.338  19.275  0.0394 -0.1236  0.1085
10518OCT     C121035  22.919   5.433   2.381  0.0657 -0.3745 -0.1873
10518OCT     C221036  23.190   5.003   2.439  0.1395  0.2299  0.2184
10519OCT     C121037   1.344   0.727   5.344 -0.2683 -0.0177  0.1881
10519OCT     C221038   1.630   0.883   5.084 -0.1177  0.0990  0.1498
10520OCT     C121039  11.148  22.737  10.306  0.1526  0.2030 -0.0174
10520OCT     C221040  11.599  22.869  10.190 -0.1932  0.0150  0.1791
10521OCT     C121041  20.112   5.257   4.911  0.0733 -0.0892  0.0307
10521OCT     C221042  20.083   5.182   4.419  0.0654 -0.2016 -0.3463
10522OCT     C121043   7.822  14.792  16.515  0.4946 -0.1463  0.1995
10522OCT     C221044   7.938  14.763  16.056 -0.0229  0.1226 -0.1169
10523OCT     C121045   5.135   0.482  18.252 -0.1736 -0.0997 -0.0043
10523OCT     C221046   4.822   0.780  18.094 -0.3401  0.0175 -0.1318
10524OCT     C121047  21.008  19.139   6.961 -0.1744 -0.1537  0.1119
10524OCT     C221048  20.702  18.835   6.769 -0.1494 -0.0053  0.0214
10525OCT     C121049   5.780   3.014  13.896  0.1391  0.1578  0.1819
10525OCT     C221050   6.149   3.277  13.759  0.4059 -0.2058 -0.0179
10526OCT     C121051  21.118  22.800  22.879 -0.1188 -0.2595  0.2519
10526OCT     C221052  21.253  22.417  22.647 -0.0153  0.3376 -0.3369
10527OCT     C121053  15.186  21.245  23.396 -0.0359  0.2327 -0.0141
10527OCT     C221054  14.992  21.500  23.735 -0.2905  0.0029 -0.2225
10528OCT     C121055  12.320  21.503   3.411 -0.2166 -0.2999  0.0700
10528OCT     C221056  12.452  21.756   3.053  0.0394 -0.0193  0.1709
10529OCT     C121057  11.426   3.874  13.677  0.1505  0.1689  0.3040
10529OCT     C221058  11.862   4.027  13.731  0.0640 -0.1202 -0.0109
10530OCT     C121059   9.361  10.296  13.979 -0.1969 -0.3433  0.3579
10530OCT     C221060   9.163  10.687  13.772 -0.0897  0.3704  0.2079
10531OCT     C121061   1.482   2.282   9.486 -0.3063  0.2604 -0.2468
10531OCT     C221062   1.792   2.623   9.426  0.0584  0.0995  0.1943
10532OCT     C121063   7.897  14.568  10.312  0.1039 -0.2707  0.2003
10532OCT     C221064   7.827  14.850  10.653 -0.0568  0.1232 -0.2258
10533OCT     C121065  20.272   2.356   8.367  0.0719  0.1470 -0.0724
10533OCT     C221066  20.310   2.093   8.724 -0.1680 -0.3282 -0.0197
10534OCT     C121067  16.660   1.915  10.637  0.2390 -0.3820  0.1689
10534OCT     C221068  16.968   1.567  10.719  0.0894  0.1042 -0.2349
10535OCT     C121069  10.413  20.993   4.006 -0.1201  0.4208 -0.1216
10535OCT     C221070  10.232  20.568   4.186 -0.0288  0.5431  0.0378
10536OCT     C121071   3.204   8.537  12.991  0.1351  0.3439  0.1491
10536OCT     C221072   3.401   8.927  13.067  0.1701  0.1677 -0.0705
10537OCT     C121073  14.857   9.802  10.489  0.1402  0.2011 -0.1604
10537OCT     C221074  14.400   9.834  10.522  0.1155 -0.2532  0.0736
10538OCT     C121075  16.720   8.803  11.118  0.2425  0.0129 -0.0475
10538OCT     C221076  17.026   8.662  10.817 -0.1606 -0.1867  0.3688
10539OCT     C121077  14.118   4.769  20.244  0.1458 -0.1981  0.3745
10539OCT     C221078  13.866   4.870  19.870  0.3549 -0.0025  0.0290
10540OCT     C121079  21.569   2.260  10.397  0.2478 -0.2486 -0.3341
10540OCT     C221080  21.132   2.274  10.321 -0.3063 -0.0564 -0.0682
10541OCT     C121081  15.876  11.679   5.752 -0.1309 -0.1285 -0.1439
10541OCT     C221082  16.005  11.247   5.598 -0.2466 -0.1327  0.2013
10542OCT     C121083   7.681  23.269  16.036  0.0219  0.0717  0.3428
10542OCT     C221084   7.573  22.911  16.360  0.0041 -0.1826 -0.0818
10543OCT     C121085  15.833  22.480   5.016  0.0926  0.1587  0.3068
10543OCT     C221086  16.259  22.660   4.998 -0.1236 -0.1105 -0.1909
10544OCT     C121087  21.648  10.579   4.634 -0.0334 -0.0674  0.0167
10544OCT     C221088  22.037  10.596   4.854  0.1306 -0.1588  0.3909
10545OCT     C121089   1.056   3.593   0.397 -0.2442 -0.4314 -0.0820
10545OCT     C221090   1.189   4.072   0.306 -0.0191  0.1933  0.2247
10546OCT     C121091   8.489  15.679  11.023 -0.0982  0.0737  0.1701
10546OCT     C221092   8.769  15.980  10.848 -0.3582 -0.0191  0.3958
10547OCT     C121093  14.961  22.993  10.388  0.1543  0.2326  0.0556
10547OCT     C221094  15.261  23.367  10.300  0.1514  0.1554  0.1537
10548OCT     C121095  12.684  19.370  15.516 -0.0300 -0.2521  0.3350
10548OCT     C221096  13.086  19.156  15.612  0.1669 -0.0686 -0.2291
10549OCT     C121097   2.236   4.114   7.994  0.0008  0.0580 -0.2599
10549OCT     C221098   1.939   4.097   7.666 -0.3558  0.0993 -0.0460
10550OCT     C121099  20.255  18.782   7.075  0.5268  0.2710  0.0608
10550OCT     C221100  20.225  18.843   7.527 -0.1006  0.1025  0.2466
10551OCT     C121101   3.737   2.664   1.433  0.0627  0.0807  0.0710
10551OCT     C221102   3.398   2.398   1.651  0.2941  0.0033  0.1692
10552OCT     C121103  13.877  21.578   1.791 -0.0946  0.1608  0.2083
10552OCT     C221104  13.672  21.654   2.206 -0.0355  0.3057  0.1471
10553OCT     C121105  19.295   1.975  19.998  0.2797  0.0589  0.2226
10553OCT     C221106  18.994   1.637  20.021  0.0943  0.0403 -0.1925
10554OCT     C121107  12.534   6.732  19.438 -0.1418 -0.0181 -0.0595
10554OCT     C221108  12.196   6.957  19.175  0.0748 -0.1327  0.2308
10555OCT     C121109  21.071  17.834  14.968 -0.1041 -0.3170 -0.0785
10555OCT     C221110  20.942  17.381  15.009  0.1124 -0.0442  0.1111
10556OCT     C121111   1.350  18.008  14.102  0.1798  0.2578 -0.0985
10556OCT     C221112   1.231  17.801  13.688  0.4167  0.3332 -0.3144
10557OCT     C121113   3.859  12.468  22.975 -0.3299 -0.1901 -0.0617
10557OCT     C221114   3.542  12.484  23.357 -0.0292  0.5637 -0.1400
10558OCT     C121115  14.445  22.874  18.116  0.3595  0.2900  0.4606
10558OCT     C221116  14.329  22.507  17.856 -0.0147  0.0668 -0.0783
10559OCT     C121117  19.548   8.726  18.222  0.0951 -0.2155 -0.2909
10559OCT     C221118  19.255   8.611  17.935 -0.2701 -0.0527  0.0291
10560OCT     C121119  19.467   6.120   3.955 -0.1928 -0.2905 -0.2172
10560OCT     C221120  19.124   6.472   4.018  0.0219 -0.0708 -0.1007
10561OCT     C121121   7.092  11.234  14.928 -0.3464  0.2880  0.0242
10561OCT     C221122   7.513  11.031  15.061  0.1812 -0.1061  0.0943
10562OCT     C121123   1.875  22.268  11.808 -0.0789 -0.3402  0.3661
10562OCT     C221124   2.080  22.589  12.039 -0.1956 -0.1306  0.3098
10563OCT     C121125   3.677   5.895  19.682  0.2716 -0.0678 -0.1910
10563OCT     C221126   3.886   5.929  20.091 -0.2672 -0.0354 -0.0870
10564OCT     C121127  20.120  21.962  15.042 -0.1552  0.0021  0.1529
10564OCT     C221128  20.454  21.707  14.879 -0.0284 -0.1617 -0.0619
10565OCT     C121129   9.315  18.028   8.725  0.1113  0.0509 -0.3804
10565OCT     C221130   9.725  17.743   8.636  0.3266  0.3040 -0.3113
10566OCT     C121131   3.095  14.715  11.422 -0.1204 -0.2860 -0.1794
10566OCT     C221132   2.778  14.414  11.257 -0.0289 -0.0893  0.3153
10567OCT     C121133  15.035  23.238   5.504  0.1261 -0.0533  0.2743
10567OCT     C221134  14.767  23.422   5.176  0.2361  0.2313 -0.2458
10568OCT     C121135  15.519  14.703  21.653 -0.2292  0.1203  0.0800
10568OCT     C221136  15.503  14.969  21.262  0.1096 -0.1704  0.0806
10569OCT     C121137  20.272   6.433   7.152 -0.0808 -0.0771 -0.0004
10569OCT     C221138  20.592   6.749   7.023 -0.1200  0.0248 -0.0119
10570OCT     C121139  11.764   8.690   4.164  0.0026  0.1276  0.1250
10570OCT     C221140  11.506   9.020   4.414 -0.0341  0.1365  0.1635
10571OCT     C121141  13.869  14.326   4.827 -0.2113 -0.3037 -0.3336
10571OCT     C221142  13.867  13.871   4.934  0.2260  0.1840  0.3800
10572OCT     C121143   3.006  13.656   1.011  0.3323 -0.2913 -0.1052
10572OCT     C221144   3.135  13.537   1.437  0.0181 -0.0560 -0.1574
10573OCT     C121145   1.920   1.583  19.684 -0.0558  0.2965  0.0547
10573OCT     C221146   2.327   1.519  19.757  0.1182  0.1653  0.0357
10574OCT     C121147  17.270   9.448  14.479  0.3149  0.0039  0.0512
10574OCT     C221148  17.108   9.045  14.192  0.0896  0.0751  0.0558
10575OCT     C121149  17.170  20.027  10.330  0.1386 -0.0545 -0.1199
10575OCT     C221150  17.441  19.679  10.198 -0.1129 -0.1461  0.0018
10576OCT     C121151  17.933  13.476   9.769  0.0796 -0.1914  0.1680
10576OCT     C221152  18.231  13.159   9.953 -0.0585  0.4437  0.0982
10577OCT     C121153  18.121  10.390   1.983  0.0903  0.3550  0.1128
10577OCT     C221154  17.870  10.050   2.191  0.1623 -0.2724 -0.1308
10578OCT     C121155  22.254   7.802  13.212  0.1767 -0.4101 -0.0215
10578OCT     C221156  22.126   8.291  13.237  0.2701 -0.1434  0.1039
10579OCT     C121157  21.288  18.421  21.757 -0.0086 -0.4061  0.2769
10579OCT     C221158  21.392  18.008  21.651  0.0087 -0.1685 -0.1410
10580OCT     C121159  11.149  17.998   9.599 -0.0245  0.2908 -0.0751
10580OCT     C221160  11.435  18.407   9.722  0.1110 -0.1348  0.1494
10581OCT     C121161   7.227  16.623  18.520  0.0074 -0.0846  0.0835
10581OCT     C221162   6.779  16.607  18.636 -0.1868 -0.1130  0.1501
10582OCT     C121163   6.935   0.009  23.486  0.0506  0.1283 -0.1305
10582OCT     C221164   7.003  23.724   0.179 -0.0774  0.1793 -0.0563
10583OCT     C121165   0.703   7.772  15.524  0.1124  0.3801  0.0257
10583OCT     C221166   0.282   8.072  15.675  0.1775  0.1614  0.1533
10584OCT     C121167  11.407  19.078  14.700  0.1021 -0.0954 -0.0005
10584OCT     C221168  11.871  18.991  14.741  0.0710  0.0567 -0.2524
10585OCT     C121169   6.567   2.249   3.705 -0.0449 -0.2317  0.1580
10585OCT     C221170   6.390   2.105   3.325  0.1083  0.2665 -0.0649
10586OCT     C121171  17.921  18.063   0.313  0.0205 -0.1830  0.1815
10586OCT     C221172  18.091  18.423   0.495  0.2469 -0.1628 -0.5302
10587OCT     C121173  18.792  19.537   9.693  0.0289  0.1221 -0.0536
10587OCT     C221174  19.012  19.126   9.752 -0.1967  0.4228  0.0430
10588OCT     C121175  14.670  12.246  23.502  0.0719  0.3435  0.2482
10588OCT     C221176  14.298  11.990  23.533  0.0705 -0.0600 -0.2685
10589OCT     C121177  13.159   6.465  20.736  0.0900  0.2961  0.0855
10589OCT     C221178  13.247   6.539  21.173  0.0339 -0.4550 -0.0688
10590OCT     C121179  14.683  11.484  16.792 -0.0604  0.3864  0.0873
10590OCT     C221180  14.223  11.569  16.766  0.2973 -0.1455  0.4171
10591OCT     C121181  13.714  18.615  21.044 -0.1873 -0.0858  0.0026
10591OCT     C221182  14.161  18.454  20.931  0.2950  0.1460 -0.2011
10592OCT     C121183  23.605  21.931   5.112  0.2002 -0.0310 -0.0880
10592OCT     C221184  23.254  21.690   5.021 -0.0669  0.0470 -0.2577
10593OCT     C121185  12.859  21.058  18.922 -0.0172 -0.0882  0.4085
10593OCT     C221186  12.930  21.497  19.057  0.0035  0.1353 -0.0059
10594OCT     C121187  23.068   2.998   0.863 -0.1368  0.1286  0.3004
10594OCT     C221188  23.111   3.453   0.695  0.1655 -0.1107 -0.2222
10595OCT     C121189  16.381  12.329  17.333  0.3126 -0.1219 -0.0732
10595OCT     C221190  16.148  12.465  16.920  0.1293 -0.0158 -0.0616
10596OCT     C121191  23.714  13.915   5.338  0.0271 -0.2117 -0.1363
10596OCT     C221192  23.655  13.706   5.719 -0.1760 -0.0851  0.0897
10597OCT     C121193  11.338   7.053  12.812 -0.0132 -0.0623 -0.1344
10597OCT     C221194  11.546   7.427  12.632  0.1776  0.1305 -0.1238
10598OCT     C121195  23.301   9.778  13.573  0.2597  0.2651  0.2114
10598OCT     C221196  22.928   9.497  13.474 -0.0579  0.1599  0.0382
10599OCT     C121197   3.789  23.053  18.519 -0.1825  0.0459 -0.0488
10599OCT     C221198   3.923  23.147  18.084 -0.2830  0.2071 -0.1783
10600OCT     C121199  10.662  14.769  11.158 -0.0491 -0.1050  0.5311
10600OCT     C221200  11.069  14.929  11.324  0.0201 -0.2037 -0.1409
10601OCT     C121201   1.464  13.750  17.050 -0.0397 -0.0907  0.1666
10601OCT     C221202   1.231  13.371  17.259 -0.0487  0.2720  0.0083
10602OCT     C121203  11.827  11.971  15.865 -0.1747  0.1574  0.2008
10602OCT     C221204  11.810  12.316  15.568 -0.3772  0.0334 -0.0558
10603OCT     C121205   8.955   4.604  15.712  0.0667  0.1737  0.0017
10603OCT     C221206   8.804   4.888  16.057 -0.0543 -0.1424  0.2486
10604OCT     C121207   1.163  13.147  23.537  0.0309 -0.0681  0.1447
10604OCT     C221208   0.731  13.161  23.362  0.2237 -0.0626 -0.0664
10605OCT     C121209   1.355   1.567   8.967  0.0503 -0.1607  0.0116
10605OCT     C221210   1.534   1.904   9.107 -0.2434  0.1470 -0.1215
10606OCT     C121211  10.467  17.646  15.492 -0.1281  0.0863 -0.2085
10606OCT     C221212  10.240  17.607  15.956 -0.0294  0.0567 -0.3894
10607OCT     C121213   2.009  19.150  20.436  0.3992  0.1469 -0.2256
10607OCT     C221214   1.564  18.992  20.521 -0.3623 -0.0062 -0.2868
10608OCT     C121215  20.495  12.384   4.111  0.1125  0.2098 -0.1686
10608OCT     C221216  20.755  12.017   4.279  0.2518 -0.0048 -0.1080
10609OCT     C121217   4.628   0.128   0.121 -0.2446 -0.0642  0.3202
10609OCT     C221218   4.340  23.606  23.573 -0.0667 -0.1777  0.0027
10610OCT     C121219  23.146  16.962  23.660  0.1547  0.1209 -0.0108
10610OCT     C221220  23.554  16.987  23.700 -0.1862  0.2138 -0.0176
10611OCT     C121221   4.948  17.916   0.754 -0.0892 -0.1254  0.0054
10611OCT     C221222   4.754  17.779   0.364 -0.2646  0.1330 -0.0624
10612OCT     C121223  11.080   7.273   3.606  0.1095 -0.2565  0.1783
10612OCT     C221224  11.493   7.390   3.689  0.0441 -0.2105  0.2094
10613OCT     C121225   8.791   1.950  18.132 -0.3090 -0.0145  0.1560
10613OCT     C221226   8.682   1.632  17.860  0.0286 -0.1277 -0.1850
10614OCT     C121227  17.934  22.326   6.657 -0.3398  0.0867 -0.1027
10614OCT     C221228  18.100  22.646   6.326  0.1305  0.1132  0.0884
10615OCT     C121229   9.596  20.846   3.559 -0.0057  0.0253  0.0108
10615OCT     C221230   9.345  21.112   3.848 -0.1054  0.0109 -0.3379
10616OCT     C121231  20.676   6.730   1.881  0.2245  0.1755  0.4876
10616OCT     C221232  20.787   6.817   1.477  0.0716  0.3295  0.0212
10617OCT     C121233  16.494  16.452  11.264 -0.0050  0.1339  0.0772
10617OCT     C221234  16.436  16.743  10.966 -0.6299 -0.0467  0.2057
10618OCT     C121235   8.525   1.610  20.759 -0.0160 -0.1687 -0.0182
10618OCT     C221236   8.409   1.307  20.422  0.1175 -0.0157  0.0821
10619OCT     C121237   5.925  17.719   4.368 -0.3477  0.2265  0.0714
10619OCT     C221238   6.088  18.161   4.498 -0.1764  0.0562  0.0786
10620OCT     C121239  14.249  16.449   3.599  0.1805 -0.0777 -0.3510
10620OCT     C221240  14.290  16.550   3.170  0.0509  0.1640  0.3604
10621OCT     C121241   1.306  16.833  14.656  0.1230 -0.0572 -0.1697
10621OCT     C221242   1.107  17.207  14.502 -0.0122  0.2155 -0.1031
10622OCT     C121243  21.870   5.139   7.454  0.1705 -0.2788  0.1833
10622OCT     C221244  22.310   5.087   7.303 -0.0945 -0.0426  0.3573
10623OCT     C121245   1.498   4.235   4.390  0.3127 -0.3143  0.2322
10623OCT     C221246   1.210   4.417   4.049  0.3062  0.0817  0.3251
10624OCT     C121247   2.848  22.149   3.241 -0.3644 -0.1645  0.1496
10624OCT     C221248   2.927  22.494   3.508  0.1739 -0.0673  0.3325
10625OCT     C121249  10.298  12.891  22.545  0.1978 -0.1498 -0.0271
10625OCT     C221250  10.752  12.953  22.417  0.5201 -0.2356 -0.0200
10626OCT     C121251   5.385  20.650   4.160  0.3008 -0.1303  0.2083
10626OCT     C221252   5.184  20.351   4.430 -0.0588  0.2518 -0.3041
10627OCT     C121253  17.551  22.741   6.274 -0.1712 -0.0207 -0.0978
10627OCT     C221254  17.117  22.694   6.357 -0.2592 -0.3194 -0.2245
10628OCT     C121255  14.930   7.349  19.034  0.0088  0.0466  0.0724
10628OCT     C221256  14.572   7.130  18.827  0.1222 -0.2631 -0.1471
10629OCT     C121257  21.727   9.964  10.459 -0.2481  0.0733  0.0535
10629OCT     C221258  21.736  10.041  10.966 -0.3165  0.6620 -0.2749
10630OCT     C121259  12.805  18.145   1.873  0.2201  0.3069 -0.1247
10630OCT     C221260  12.449  18.310   1.659  0.2282 -0.1521  0.2777
10631OCT     C121261  21.026   5.941   3.838  0.0442 -0.0603 -0.2228
10631OCT     C221262  21.025   5.466   3.896 -0.3646  0.4266  0.0889
10632OCT     C121263  15.125   2.629   6.216 -0.2120  0.1930 -0.2745
10632OCT     C221264  15.268   2.924   6.586  0.1870  0.2685  0.1747
10633OCT     C121265  15.084  22.814   4.385 -0.3930  0.2356  0.0100
10633OCT     C221266  15.027  22.696   3.918  0.0025  0.0249 -0.0222
10634OCT     C121267   3.481   0.006  20.525 -0.1958  0.1215 -0.0924
10634OCT     C221268   3.730  23.528  20.888  0.0827 -0.1807  0.3349
10635OCT     C121269  12.273   0.051  11.325  0.2562 -0.1249  0.0252
10635OCT     C221270  12.063  23.378  11.447  0.0148 -0.2373 -0.1056
10636OCT     C121271   9.335  16.391  23.739 -0.1402 -0.3188  0.0542
10636OCT     C221272   9.661  16.198   0.208  0.0267 -0.0293 -0.3092
10637OCT     C121273  14.801   8.985   2.858  0.3400  0.3910  0.2107
10637OCT     C221274  14.498   9.349   2.990 -0.1686 -0.0143 -0.4004
10638OCT     C121275   8.919  22.118  17.764 -0.6605 -0.3163  0.3127
10638OCT     C221276   8.702  22.399  17.451 -0.1391  0.0364 -0.1555
10639OCT     C121277   3.256  14.606  18.639  0.0606  0.2798 -0.1611
10639OCT     C221278   3.706  14.350  18.664  0.2196 -0.4049  0.5360
10640OCT     C121279   5.927   4.239  22.381  0.2135  0.2135  0.1199
10640OCT     C221280   5.780   4.695  22.143 -0.1854  0.2095 -0.0129
10641OCT     C121281  23.152   3.731  13.816 -0.1678 -0.0615  0.1715
10641OCT     C221282  23.506   3.519  14.035  0.1186  0.0286  0.0721
10642OCT     C121283  23.273  20.993   1.798 -0.1669 -0.2017 -0.0200
10642OCT     C221284  23.480  21.441   1.715 -0.0436  0.1527  0.5356
10643OCT     C121285  18.753   6.781   4.907 -0.2537 -0.2212  0.0332
10643OCT     C221286  18.261   6.755   4.884  0.1186  0.0245  0.1730
10644OCT     C121287  12.978   3.835   0.154 -0.0713 -0.1559 -0.0656
10644OCT     C221288  12.542   3.944   0.157  0.4568  0.0641 -0.1351
10645OCT     C121289  14.248   7.283  10.619 -0.0768 -0.1518  0.0010
10645OCT     C221290  14.049   7.356  11.002 -0.3137  0.1537  0.0743
10646OCT     C121291  23.364  11.611  15.216  0.0278 -0.1694  0.1671
10646OCT     C221292  23.059  11.279  15.148 -0.2243 -0.2399  0.0766
10647OCT     C121293   3.805   2.278  13.805  0.3564  0.3697  0.0178
10647OCT     C221294   3.815   2.660  14.033 -0.0570  0.2543  0.1030
10648OCT     C121295  15.638   7.850  21.927  0.2887 -0.1445  0.0766
10648OCT     C221296  15.273   7.635  22.120  0.0343  0.1372 -0.1424
10649OCT     C121297   7.954  22.912  15.807  0.2442 -0.1363  0.4316
10649OCT     C221298   7.687  22.599  16.024  0.2922 -0.0989  0.0156
10650OCT     C121299  13.960   4.127   3.314  0.1002 -0.1579 -0.1926
10650OCT     C221300  14.148   4.077   3.732  0.0860  0.1385  0.0779
10651OCT     C121301  17.139   1.285  12.411 -0.0147  0.0057  0.3806
10651OCT     C221302  16.667   1.106  12.362 -0.3952 -0.3923 -0.2170
10652OCT     C121303   7.751   6.993  21.114  0.0834  0.1844 -0.2347
10652OCT     C221304   7.890   6.613  21.368  0.2273 -0.0886 -0.0484
10653OCT     C121305  18.843   1.533   2.637  0.0341 -0.0950  0.0489
10653OCT     C221306  18.978   1.376   3.098  0.1443  0.1844  0.3074
10654OCT     C121307  13.545  17.322   4.775 -0.0810  0.3010  0.3861
10654OCT     C221308  13.864  17.320   5.071 -0.1556 -0.3287 -0.0623
10655OCT     C121309  11.765  11.868  14.836  0.1505  0.2272 -0.1554
10655OCT     C221310  11.610  12.248  14.576 -0.0497  0.2242  0.1856
10656OCT     C121311  13.603  11.529   9.472  0.3057  0.1407  0.3829
10656OCT     C221312  13.234  11.348   9.802 -0.4813 -0.0340 -0.0584
10657OCT     C121313  22.147  17.558   5.072  0.0911 -0.0135 -0.0558
10657OCT     C221314  22.431  17.377   5.451  0.0661 -0.1827 -0.2224
10658OCT     C121315  22.624   5.846  22.470 -0.4269  0.3153 -0.1589
10658OCT     C221316  22.585   5.721  22.033  0.0940 -0.1921 -0.1624
10659OCT     C121317   7.656   1.650  12.267  0.0371 -0.3210  0.0139
10659OCT     C221318   7.933   1.464  11.912 -0.1355  0.0532 -0.0321
10660OCT     C121319  15.057   7.904  23.614  0.1458  0.0614  0.1691
10660OCT     C221320  15.286   8.136  23.276 -0.1111 -0.0095  0.0147
10661OCT     C121321  21.991   7.906  19.058  0.3488  0.0504 -0.6182
10661OCT     C221322  21.855   7.544  19.337  0.0081  0.2236  0.0670
10662OCT     C121323   5.352  14.200   9.788 -0.0390 -0.2138  0.2312
10662OCT     C221324   5.617  14.271   9.429  0.2552  0.0352  0.2090
10663OCT     C121325  21.403   4.226  22.717  0.0877  0.1488  0.1014
10663OCT     C221326  21.609   3.829  22.790  0.1870  0.0830  0.1178
10664OCT     C121327   1.456   6.006   4.924 -0.1021  0.2390  0.1229
10664OCT     C221328   1.290   5.657   5.197 -0.3458  0.0508  0.1873
10665OCT     C121329  16.017  20.918  11.716  0.0790 -0.0623 -0.2409
10665OCT     C221330  16.296  20.903  11.322 -0.1807 -0.2280  0.1516
10666OCT     C121331  13.575   5.713  21.454  0.0730  0.1604 -0.1225
10666OCT     C221332  13.876   6.050  21.574 -0.2544 -0.2027 -0.2427
10667OCT     C121333   4.657   9.790  21.529  0.0075  0.1111 -0.0300
10667OCT     C221334   4.289   9.801  21.307  0.0260 -0.0810  0.0184
10668OCT     C121335  22.397  13.400   7.335  0.2116  0.1749  0.1978
10668OCT     C221336  22.445  13.067   6.995 -0.1939  0.0809  0.4120
10669OCT     C121337   2.479  18.172   7.870 -0.0786  0.2096  0.1703
10669OCT     C221338   2.091  18.384   7.943  0.2563  0.2062 -0.0539
10670OCT     C121339   6.390  16.792   7.513  0.1013 -0.0303  0.3288
10670OCT     C221340   6.679  16.593   7.224 -0.2761 -0.0839  0.3953
10671OCT     C121341  22.363  11.345  20.971 -0.4002 -0.0577 -0.0758
10671OCT     C221342  22.657  11.544  21.234  0.0423  0.0145  0.1644
10672OCT     C121343   0.890  14.372   0.422  0.0241  0.1030  0.1063
10672OCT     C221344   1.278  14.108   0.425  0.0751  0.1890  0.0337
10673OCT     C121345   3.686   8.614   0.393 -0.0944 -0.1325 -0.0474
10673OCT     C221346   3.991   8.937   0.492  0.3607 -0.0084 -0.0935
10674OCT     C121347   7.766   2.483  18.628 -0.0560 -0.0396 -0.1902
10674OCT     C221348   7.628   2.896  18.721  0.3668  0.1826  0.2745
10675OCT     C121349  21.721   2.944   7.369  0.0781  0.4124  0.0004
10675OCT     C221350  21.756   2.706   7.762 -0.0712  0.2057  0.0543
10676OCT     C121351   0.605   9.718  11.617  0.0258  0.1698 -0.0161
10676OCT     C221352   0.174   9.806  11.802  0.0468 -0.0147  0.1948
10677OCT     C121353   2.836   5.144  14.406 -0.1898 -0.4235  0.2203
10677OCT     C221354   2.764   4.720  14.503  0.2815  0.1895  0.1885
10678OCT     C121355   0.565  11.413  20.008 -0.0755  0.2737  0.0464
10678OCT     C221356   0.808  11.743  19.685  0.0381  0.0612 -0.2255
10679OCT     C121357   3.936  15.903  17.247 -0.1975 -0.1895 -0.0213
10679OCT     C221358   4.174  15.539  17.262  0.2644 -0.0086  0.0691
10680OCT     C121359  17.851  16.401   8.606 -0.0944  0.3961  0.1292
10680OCT     C221360  17.447  16.179   8.625  0.1825  0.1326 -0.2904
10681OCT     C121361  18.523  12.529  13.829 -0.2757  0.5247 -0.1968
10681OCT     C221362  18.825  12.906  13.944 -0.0943  0.1145 -0.1397
10682OCT     C121363  23.536  14.085  21.447  0.1224 -0.0742 -0.2946
10682OCT     C221364  23.398  14.568  21.532 -0.2582  0.1031  0.3369
10683OCT     C121365  12.822  10.217  16.297 -0.1206  0.2866 -0.2972
10683OCT     C221366  12.815  10.001  16.693  0.0705  0.1910  0.1168
10684OCT     C121367  19.652  19.285   2.416  0.1001  0.2544 -0.3208
10684OCT     C221368  19.240  19.392   2.660 -0.0494  0.0310  0.2962
10685OCT     C121369  17.741  23.544   8.875 -0.3616  0.0953  0.1433
10685OCT     C221370  17.777  23.429   8.458  0.0299  0.1508 -0.0805
10686OCT     C121371  11.860  11.508   6.594 -0.2534 -0.1634 -0.0434
10686OCT     C221372  11.536  11.192   6.614  0.2602 -0.3490  0.0020
10687OCT     C121373  12.220   2.682   8.977  0.0194 -0.0934 -0.0886
10687OCT     C221374  12.164   3.122   9.203 -0.0482 -0.0435  0.0975
10688OCT     C121375  12.342  17.626   3.684  0.0002 -0.0434  0.0072
10688OCT     C221376  12.705  17.794   3.884 -0.0512  0.5870  0.4278
10689OCT     C121377  18.862  10.530  17.669 -0.2752  0.2436 -0.2412
10689OCT     C221378  18.842  10.410  17.210 -0.5023  0.4183 -0.0924
10690OCT     C121379  12.864  18.766  12.057  0.1700 -0.2789  0.1349
10690OCT     C221380  13.295  18.586  12.073 -0.1270 -0.0104  0.3410
10691OCT     C121381   1.824   9.870  18.335  0.0281  0.0163 -0.2074
10691OCT     C221382   2.147   9.558  18.214 -0.1007  0.0174  0.0001
10692OCT     C121383  14.083  12.289  21.149  0.3068 -0.0651 -0.1090
10692OCT     C221384  14.258  12.242  20.718 -0.0090 -0.1370  0.0404
10693OCT     C121385   7.302   0.309  11.831 -0.3509  0.2646  0.1642
10693OCT     C221386   7.754   0.356  11.869  0.0535 -0.0069  0.0729
10694OCT     C121387   9.359   5.016   2.599 -0.2374 -0.1065 -0.0693
10694OCT     C221388   9.134   4.647   2.766 -0.0886  0.1183  0.2153
10695OCT     C121389  13.800  14.309  12.211 -0.1246  0.1321 -0.0452
10695OCT     C221390  14.278  14.321  12.199 -0.1960 -0.4600  0.1397
10696OCT     C121391   4.045  23.631  11.997  0.0558 -0.1906 -0.4929
10696OCT     C221392   4.079   0.218  11.642 -0.1775  0.0293  0.2098
10697OCT     C121393   3.020  17.543   8.850  0.2261  0.0401 -0.0325
10697OCT     C221394   2.999  17.349   9.297 -0.3742 -0.0209  0.2982
10698OCT     C121395  11.764  13.076   9.957 -0.0090 -0.0625 -0.2078
10698OCT     C221396  11.593  12.666   9.792  0.0995 -0.0816  0.1698
10699OCT     C121397  22.762   9.285  23.356 -0.0726 -0.0297  0.1223
10699OCT     C221398  22.774   8.850  23.552 -0.3210 -0.0042 -0.5060
10700OCT     C121399  17.240   1.846  21.709  0.0410  0.4670 -0.0660
10700OCT     C221400  16.823   1.650  21.783 -0.0137 -0.4255  0.1843
10701OCT     C121401  21.989   0.180   1.767  0.4331  0.1344 -0.0691
10701OCT     C221402  22.019   0.566   1.466 -0.5450  0.2563  0.0473
10702OCT     C121403  12.827  21.253  19.487  0.1925  0.1368 -0.1145
10702OCT     C221404  12.552  21.441  19.807  0.1135  0.0746  0.1730
10703OCT     C121405  11.710  18.477   6.987  0.0364 -0.2229  0.4113
10703OCT     C221406  11.840  18.915   7.174 -0.0683 -0.0148  0.0189
10704OCT     C121407  10.555   5.751  23.285 -0.2658  0.1015 -0.2310
10704OCT     C221408  10.669   5.649   0.027  0.0513 -0.2240 -0.2564
10705OCT     C121409  16.604  11.129   7.582 -0.5930  0.3344  0.2534
10705OCT     C221410  16.750  11.284   7.140  0.4240  0.4655 -0.1240
10706OCT     C121411  18.204   5.201   3.113 -0.1689 -0.1499  0.0387
10706OCT     C221412  17.850   5.088   2.820 -0.2378  0.3383 -0.1259
10707OCT     C121413  15.062  17.895   4.195  0.0530  0.0458  0.1218
10707OCT     C221414  14.990  18.377   4.155 -0.3453 -0.1057 -0.2302
10708OCT     C121415  22.264   4.795   5.367  0.1427  0.2854 -0.1011
10708OCT     C221416  22.650   4.511   5.527  0.1807  0.1097 -0.0328
10709OCT     C121417  18.618   0.433   5.372  0.2890 -0.0886 -0.1278
10709OCT     C221418  18.412   0.788   5.540 -0.3760  0.2832  0.7162
10710OCT     C121419  23.386  12.294  16.902 -0.1279 -0.1958  0.2427
10710OCT     C221420  23.416  12.562  17.301 -0.1395  0.0280  0.2126
10711OCT     C121421   5.399   9.936   4.482 -0.2671  0.2726 -0.1128
10711OCT     C221422   5.106  10.287   4.495 -0.2000  0.1512 -0.2077
10712OCT     C121423   5.649   1.745  22.569 -0.1083 -0.0913 -0.1474
10712OCT     C221424   5.448   1.952  22.926 -0.1286  0.0101  0.0315
10713OCT     C121425   3.564  16.097  16.927 -0.0843  0.2323  0.0948
10713OCT     C221426   3.472  16.026  17.379  0.3741  0.4592  0.1186
10714OCT     C121427   1.539  18.342   6.219 -0.0831  0.0723 -0.3956
10714OCT     C221428   1.373  17.985   6.042 -0.1596  0.5230 -0.1783
10715OCT     C121429   1.946  15.247   8.466 -0.0239 -0.2775  0.0641
10715OCT     C221430   2.044  15.655   8.603 -0.0606 -0.1656  0.0561
10716OCT     C121431   6.613  22.419  19.961 -0.0231  0.2619 -0.2132
10716OCT     C221432   6.561  22.595  20.372 -0.2150 -0.0013  0.1542
10717OCT     C121433  19.252  17.323   6.462 -0.1403 -0.0733  0.0807
10717OCT     C221434  19.333  17.669   6.197 -0.2388  0.0966 -0.0209
10718OCT     C121435   9.924  22.691  23.146  0.0090 -0.1159  0.1618
10718OCT     C221436   9.707  22.601  22.783  0.2206  0.1354  0.0343
10719OCT     C121437   0.504  19.931  23.500  0.1777 -0.4301  0.4378
10719OCT     C221438   0.873  20.117  23.674  0.5162  0.4007 -0.0196
10720OCT     C121439   9.981  12.481  19.587 -0.0085 -0.0422 -0.0743
10720OCT     C221440   9.865  12.099  19.374 -0.0352  0.0702 -0.0639
10721OCT     C121441   9.153  20.849  18.764 -0.0764 -0.2521 -0.3072
10721OCT     C221442   8.669  20.918  18.842 -0.3887  0.4211  0.0613
10722OCT     C121443   7.211  17.317   4.812  0.3341 -0.1542 -0.2107
10722OCT     C221444   6.998  16.963   4.898  0.2374 -0.0625 -0.0154
10723OCT     C121445   9.776  17.685  21.517  0.0057  0.0458  0.4705
10723OCT     C221446   9.725  18.140  21.576  0.0960  0.0460  0.1830
10724OCT     C121447  19.850   0.490   4.338 -0.0199 -0.0965 -0.3724
10724OCT     C221448  20.082   0.268   3.986  0.2357 -0.0324 -0.3385
10725OCT     C121449  20.515  21.730  22.876 -0.1468  0.0804 -0.3359
10725OCT     C221450  20.667  21.277  22.954 -0.0073 -0.4130 -0.0980
10726OCT     C121451  16.011  16.103  19.992  0.1022  0.2403  0.4836
10726OCT     C221452  16.187  16.331  20.386  0.1240  0.3704 -0.3474
10727OCT     C121453  20.183  21.537   8.110  0.4353 -0.0168 -0.0023
10727OCT     C221454  20.401  21.091   8.071 -0.1008 -0.0959 -0.0613
10728OCT     C121455   5.444  11.664   9.631 -0.0807 -0.0063 -0.1297
10728OCT     C221456   5.270  11.477   9.231  0.1241 -0.1290  0.0212
10729OCT     C121457  17.467  19.109  12.294 -0.1327  0.0719 -0.0447
10729OCT     C221458  17.702  19.110  12.680 -0.0484 -0.0648 -0.1793
10730OCT     C121459  18.680   7.673   8.163  0.2737 -0.0762 -0.0465
10730OCT     C221460  18.957   7.373   7.910  0.1094 -0.0849  0.0444
10731OCT     C121461   6.461  22.129   1.820  0.0719  0.1782 -0.1724
10731OCT     C221462   6.966  22.101   1.797  0.1796  0.2096 -0.0077
10732OCT     C121463   9.929  16.948   0.647 -0.0065  0.0947  0.0309
10732OCT     C221464   9.945  17.285   0.259  0.4620  0.1637 -0.0692
10733OCT     C121465  14.933  17.357   6.148 -0.0541 -0.2688  0.6631
10733OCT     C221466  14.870  17.789   6.352 -0.0843  0.2676 -0.1972
10734OCT     C121467   3.956   9.210  14.789 -0.2804  0.2310  0.1891
10734OCT     C221468   4.213   8.868  14.890 -0.1733 -0.2770 -0.0230
10735OCT     C121469  16.633  20.084  19.748 -0.0878 -0.1434 -0.0890
10735OCT     C221470  16.193  20.211  19.593 -0.3132 -0.1491  0.1292
10736OCT     C121471  17.690  14.016   9.920 -0.1297  0.2126 -0.1390
10736OCT     C221472  17.922  13.934   9.559 -0.1766 -0.2279  0.3364
10737OCT     C121473   0.132   9.102  20.169 -0.2984  0.0651  0.0141
10737OCT     C221474  23.436   9.061  20.029  0.0097  0.3427  0.2742
10738OCT     C121475  21.146   7.619   0.895  0.0778  0.0056 -0.1988
10738OCT     C221476  21.482   7.263   0.990 -0.3027 -0.0226  0.0132
10739OCT     C121477  20.737  10.943  21.429  0.0344 -0.1948 -0.2706
10739OCT     C221478  20.854  10.515  21.513  0.4483  0.2048  0.0328
10740OCT     C121479  18.208   9.089  11.552  0.0056 -0.2964 -0.1210
10740OCT     C221480  18.172   9.128  12.000  0.2597 -0.2809  0.2082
10741OCT     C121481  14.108  21.404   2.155  0.0907  0.2192 -0.0297
10741OCT     C221482  14.416  21.470   2.454  0.1426  0.3562 -0.2239
10742OCT     C121483  10.192  18.294   6.771 -0.1787  0.0550 -0.1902
10742OCT     C221484  10.224  18.273   6.328 -0.0976 -0.0070  0.0866
10743OCT     C121485  12.030  20.619   3.142 -0.1616 -0.0104 -0.3478
10743OCT     C221486  12.366  21.007   3.319  0.1715 -0.5090  0.1020
10744OCT     C121487  23.603   9.811  13.138  0.0511  0.3805  0.0953
10744OCT     C221488  23.687  10.148  13.489  0.2013 -0.2291  0.3329
10745OCT     C121489  11.270   0.763  18.204 -0.0336 -0.0622  0.0530
10745OCT     C221490  11.136   0.743  17.764 -0.0236 -0.0800 -0.3641
10746OCT     C121491  17.298  10.484   4.617 -0.2070 -0.0334 -0.2198
10746OCT     C221492  17.695  10.260   4.827  0.0299 -0.3805  0.4157
10747OCT     C121493  18.460   7.517   8.571 -0.1472 -0.0491  0.1935
10747OCT     C221494  18.592   7.963   8.654 -0.4014 -0.0100 -0.0921
10748OCT     C121495  23.537  17.002   7.288  0.1052  0.0610  0.1859
10748OCT     C221496  23.108  16.907   7.365  0.3442  0.1329  0.2022
10749OCT     C121497  16.643  16.848   9.766 -0.1020 -0.0418  0.1353
10749OCT     C221498  16.202  16.899   9.697  0.0266 -0.2924  0.0098
10750OCT     C121499  20.881   4.310  22.486  0.1600  0.1153 -0.3563
10750OCT     C221500  20.500   4.471  22.272 -0.2697  0.0999 -0.2321
10751OCT     C121501   7.669  14.979   3.983  0.1362  0.4232 -0.3105
10751OCT     C221502   7.460  14.733   4.295 -0.2515  0.0852 -0.3938
10752OCT     C121503  14.769  23.417   2.586  0.2897 -0.2681 -0.0399
10752OCT     C221504  14.967  23.501   2.195  0.0484 -0.3197 -0.2616
10753OCT     C121505  15.201  16.484  22.435 -0.2888 -0.2641  0.1008
10753OCT     C221506  15.096  16.303  22.844  0.2412 -0.2262  0.1752
10754OCT     C121507   4.818  10.020  12.216  0.5017  0.2961  0.4210
10754OCT     C221508   5.057  10.413  12.312 -0.0349 -0.3383 -0.0869
10755OCT     C121509   2.362   3.252  19.943 -0.0002  0.2704  0.0842
10755OCT     C221510   2.406   3.681  19.785 -0.1575  0.1466  0.2412
10756OCT     C121511   8.800  21.556   3.286 -0.2161  0.0982  0.0050
10756OCT     C221512   8.869  21.692   2.844  0.1781  0.3758  0.0605
10757OCT     C121513   2.543  20.821   6.481  0.4471  0.2052  0.2604
10757OCT     C221514   2.341  20.740   6.041 -0.0811  0.0641  0.1182
10758OCT     C121515  21.101  17.976  19.107  0.0276 -0.0254  0.1167
10758OCT     C221516  20.691  17.974  19.280 -0.0352 -0.3710  0.3329
10759OCT     C121517  13.613   9.310   2.121  0.0451  0.4361  0.0803
10759OCT     C221518  13.285   9.611   1.893  0.1284  0.1782  0.1907
10760OCT     C121519   2.578   1.720  13.254  0.2369  0.0624 -0.1045
10760OCT     C221520   2.833   1.949  12.981  0.3016 -0.0074 -0.0069
10761OCT     C121521   0.934  14.977  19.440  0.2076  0.2275 -0.4335
10761OCT     C221522   0.532  15.070  19.488  0.0994 -0.0867 -0.4108
10762OCT     C121523  14.943  12.227   9.952  0.0157  0.0597 -0.0976
10762OCT     C221524  15.059  12.047   9.537 -0.0511  0.0909 -0.0058
10763OCT     C121525   1.525   1.743  15.124  0.1050 -0.1086 -0.0006
10763OCT     C221526   1.679   2.137  15.090  0.0756 -0.0786 -0.0995
10764OCT     C121527  18.462  19.953   7.907  0.1969 -0.1314 -0.2181
10764OCT     C221528  18.398  19.520   7.898  0.2526 -0.0078  0.4354
10765OCT     C121529  13.493   0.714  23.327  0.2649  0.1581 -0.0727
10765OCT     C221530  13.882   0.662  23.572  0.1611 -0.0023  0.1728
10766OCT     C121531   9.079  23.634  22.070 -0.0350 -0.0866 -0.1387
10766OCT     C221532   8.712   0.133  21.956 -0.0507 -0.0621  0.1205
10767OCT     C121533   0.196  19.830   6.595  0.2170 -0.1749  0.0074
10767OCT     C221534   0.621  20.111   6.610 -0.1342  0.0409 -0.0206
10768OCT     C121535  16.418  18.642  12.788 -0.4145  0.1347  0.0602
10768OCT     C221536  16.504  19.094  12.769  0.0519 -0.2801 -0.0108
10769OCT     C121537  14.332   2.840   7.030 -0.0797  0.1274 -0.2355
10769OCT     C221538  13.972   2.671   6.749 -0.0359  0.0758 -0.1595
10770OCT     C121539  20.416  18.273  18.869  0.2307  0.1173  0.0962
10770OCT     C221540  20.379  18.357  19.378 -0.0139 -0.2246  0.3484
10771OCT     C121541  17.564  14.433   1.626  0.2165  0.0974  0.1332
10771OCT     C221542  18.046  14.349   1.593 -0.1485 -0.1581  0.0768
10772OCT     C121543  20.836   4.854  22.213 -0.1810  0.1100  0.3848
10772OCT     C221544  20.448   5.028  22.358  0.0526  0.2153 -0.2556
10773OCT     C121545  22.616  22.806  12.042 -0.1982 -0.0542  0.1239
10773OCT     C221546  22.340  23.131  11.802  0.1577  0.0325  0.0285
10774OCT     C121547   9.610  16.667  22.085  0.0318  0.1591  0.2278
10774OCT     C221548   9.266  16.996  22.199 -0.0914  0.2552  0.1533
10775OCT     C121549  12.816  18.732  20.785 -0.4247 -0.0166 -0.1496
10775OCT     C221550  12.362  18.889  20.796  0.1665 -0.0239 -0.1436
10776OCT     C121551   5.254  14.833  11.469  0.3289 -0.2104 -0.1102
10776OCT     C221552   4.910  14.555  11.383 -0.0214  0.0991  0.2535
10777OCT     C121553   6.794  12.734  18.468  0.0278 -0.0435 -0.1031
10777OCT     C221554   7.260  12.919  18.531  0.2122 -0.1017  0.0513
10778OCT     C121555   3.113   4.638   6.710 -0.1922  0.5667  0.2113
10778OCT     C221556   3.491   4.430   6.479  0.5233  0.1613 -0.0477
10779OCT     C121557  13.707  18.578  22.330  0.2156 -0.0757  0.2290
10779OCT     C221558  13.726  18.405  21.929 -0.4192 -0.1016  0.1886
10780OCT     C121559   3.672  23.692  15.846 -0.2505  0.1840 -0.6022
10780OCT     C221560   3.256   0.046  15.703 -0.1989 -0.0567 -0.0374
10781OCT     C121561  16.021  22.769  19.445  0.2482  0.2007  0.1604
10781OCT     C221562  16.456  22.653  19.335  0.2193  0.0481 -0.0277
10782OCT     C121563  22.926   3.502   1.835 -0.1157  0.0321 -0.3121
10782OCT     C221564  22.770   3.889   1.642 -0.0573 -0.2351  0.2049
10783OCT     C121565   5.291  18.022  21.266 -0.0692 -0.2355 -0.1662
10783OCT     C221566   4.943  17.728  21.371  0.2354  0.0432  0.4101
10784OCT     C121567   0.447   5.760  10.180 -0.0062 -0.0724  0.0725
10784OCT     C221568   0.710   5.602   9.838 -0.2845  0.0367  0.1348
10785OCT     C121569  17.893   6.352  16.878 -0.1796  0.0735 -0.2851
10785OCT     C221570  18.286   6.453  16.671 -0.3001 -0.2518  0.1108
10786OCT     C121571   0.747   9.844   8.125  0.0158  0.6601 -0.3250
10786OCT     C221572   0.654  10.118   8.484  0.2410  0.0530  0.0847
10787OCT     C121573   5.252  10.834   6.524  0.3003  0.4196  0.0367
10787OCT     C221574   5.269  11.154   6.210 -0.1036 -0.2790  0.0067
10788OCT     C121575  18.792   5.126   4.660 -0.0614  0.1287  0.0934
10788OCT     C221576  18.508   5.470   4.499 -0.4618  0.0954  0.2395
10789OCT     C121577  13.757   6.098   9.736  0.3725  0.1617  0.2073
10789OCT     C221578  13.663   6.287  10.126  0.2222 -0.1945 -0.0704
10790OCT     C121579  17.467  19.159  15.529  0.0943  0.0692  0.0775
10790OCT     C221580  17.853  19.240  15.170 -0.1390 -0.2960 -0.1319
10791OCT     C121581   1.176  21.629   7.451  0.0429 -0.1197 -0.3010
10791OCT     C221582   1.595  21.796   7.496 -0.4008  0.4359 -0.4245
10792OCT     C121583  22.901   8.928  18.965  0.2370  0.2056  0.2154
10792OCT     C221584  22.630   8.585  18.833 -0.3205  0.1889 -0.0634
10793OCT     C121585  15.891  19.742  23.205 -0.3741  0.1974 -0.0433
10793OCT     C221586  16.404  19.782  23.194 -0.1536 -0.0440  0.2469
10794OCT     C121587  19.453  13.999  18.175 -0.0022 -0.1959 -0.0871
10794OCT     C221588  19.176  13.707  17.914 -0.0930  0.0906  0.1763
10795OCT     C121589  11.705   9.623  20.413  0.0516 -0.1631  0.2236
10795OCT     C221590  12.050   9.894  20.572  0.0118  0.0413  0.1709
10796OCT     C121591   8.300  18.680  18.986 -0.0400  0.2680 -0.0219
10796OCT     C221592   8.709  18.553  19.183 -0.2445  0.2557 -0.1934
10797OCT     C121593  15.332  19.602  13.895 -0.2450 -0.5831  0.0888
10797OCT     C221594  15.755  19.577  13.761 -0.0527 -0.4230 -0.3159
10798OCT     C121595   8.871  21.994   1.456 -0.1312  0.1668  0.1303
10798OCT     C221596   8.419  21.954   1.501  0.1680 -0.0651 -0.3943
10799OCT     C121597  12.059  21.094   8.123  0.0855  0.0786 -0.1332
10799OCT     C221598  11.842  21.460   8.042 -0.1123 -0.0139  0.2455
10800OCT     C121599  17.690   3.908   0.852  0.3340  0.4069  0.0284
10800OCT     C221600  17.758   3.980   0.365  0.0043 -0.0030  0.1342
10801OCT     C121601  17.720  13.236   3.548 -0.3754  0.3622 -0.0565
10801OCT     C221602  17.919  12.879   3.285  0.0450  0.0158  0.1016
10802OCT     C121603   7.865   7.952  19.976  0.3528 -0.0646  0.2109
10802OCT     C221604   7.412   8.127  19.926 -0.1839  0.0495  0.1869
10803OCT     C121605   5.838  22.251   0.554  0.0661 -0.1444  0.1037
10803OCT     C221606   6.008  22.637   0.690  0.0003 -0.3176 -0.0483
10804OCT     C121607  22.976  20.799  17.452  0.2546 -0.0133 -0.0450
10804OCT     C221608  23.026  20.321  17.494 -0.3462 -0.0166  0.0506
10805OCT     C121609   3.916  23.632   9.785  0.0470  0.2530  0.2397
10805OCT     C221610   4.083   0.281   9.579  0.1484  0.1569 -0.1306
10806OCT     C121611  22.687   0.781  21.039  0.1678  0.1000  0.0159
10806OCT     C221612  22.542   1.013  21.442  0.2794  0.0220  0.0580
10807OCT     C121613   7.547   5.688  20.617  0.3673  0.2499 -0.3105
10807OCT     C221614   7.542   5.249  20.466  0.0254 -0.2293 -0.1047
10808OCT     C121615   8.486   3.082  20.240 -0.0008  0.0359  0.0470
10808OCT     C221616   8.340   3.348  20.596  0.0043 -0.0070 -0.0865
10809OCT     C121617  12.325  16.979  12.129  0.1042  0.1478  0.3629
10809OCT     C221618  12.114  16.995  12.514 -0.2544  0.0522  0.1101
10810OCT     C121619  14.600  21.639   8.295  0.0491 -0.2290 -0.0693
10810OCT     C221620  14.497  22.048   8.479 -0.1383 -0.1054 -0.1997
10811OCT     C121621  11.580  14.450  21.354  0.3367 -0.1090  0.0095
10811OCT     C221622  11.708  14.775  20.989  0.0820  0.2613 -0.0714
10812OCT     C121623   0.352  18.577  11.311 -0.2384 -0.0475 -0.0842
10812OCT     C221624   0.460  19.000  11.525 -0.4647 -0.0873 -0.4792
10813OCT     C121625  14.936  14.364  14.224 -0.4233  0.1484 -0.1798
10813OCT     C221626  14.522  14.539  14.111 -0.1073  0.0919  0.2863
10814OCT     C121627   5.769   2.520  16.817 -0.2243  0.0612 -0.0840
10814OCT     C221628   5.620   2.602  17.242 -0.2617 -0.0152  0.0630
10815OCT     C121629  20.744  17.058  11.127  0.2118  0.2528  0.3089
10815OCT     C221630  20.921  16.684  11.296 -0.1349  0.0976  0.3737
10816OCT     C121631  21.219  19.123   7.420  0.0499  0.0104  0.0583
10816OCT     C221632  21.105  18.682   7.417 -0.0892  0.0457  0.1247
10817OCT     C121633   1.956  10.458  16.994 -0.0876 -0.1753  0.0546
10817OCT     C221634   2.333  10.814  16.974  0.3037  0.2240  0.4819
10818OCT     C121635  11.838   8.557  15.682  0.1365 -0.4748  0.3563
10818OCT     C221636  12.210   8.533  15.372  0.3895  0.1649  0.4052
10819OCT     C121637  13.649  17.334   6.711  0.1590  0.0682 -0.2209
10819OCT     C221638  13.782  17.181   7.119 -0.2337  0.0862  0.0587
10820OCT     C121639  19.986   5.241   8.912  0.0397 -0.0307  0.4572
10820OCT     C221640  20.314   5.235   9.223  0.1272 -0.1419 -0.2232
10821OCT     C121641  15.422  22.828  10.701  0.0142 -0.2387  0.3049
10821OCT     C221642  15.713  23.067  10.540  0.1410 -0.4794  0.2057
10822OCT     C121643  17.743   1.761   7.211 -0.0825 -0.1517 -0.0828
10822OCT     C221644  17.573   2.208   7.303  0.1967 -0.1138  0.1759
10823OCT     C121645  19.641   8.721  22.503  0.0907 -0.4132  0.3131
10823OCT     C221646  19.251   8.746  22.227  0.2120 -0.1176  0.1127
10824OCT     C121647   1.245  11.446   3.298 -0.1226  0.0349  0.1822
10824OCT     C221648   0.875  11.681   3.068 -0.1528  0.1469  0.0447
10825OCT     C121649   3.447  12.876   3.838 -0.2966 -0.0127  0.0892
10825OCT     C221650   3.803  12.818   4.086  0.2694  0.0020  0.0241
10826OCT     C121651   5.092  16.441  13.026  0.2711  0.2656  0.2317
10826OCT     C221652   5.365  16.116  13.246 -0.0988 -0.1811  0.1423
10827OCT     C121653   8.829  13.015   1.050 -0.0389  0.0080 -0.1071
10827OCT     C221654   9.262  13.131   1.003 -0.3183  0.6408 -0.1039
10828OCT     C121655   3.295   1.320   9.186 -0.1648 -0.1481 -0.0012
10828OCT     C221656   3.560   1.652   9.090  0.2107  0.2404 -0.1454
10829OCT     C121657  21.524   9.170   7.139 -0.3265  0.4333 -0.0091
10829OCT     C221658  21.685   9.101   6.668  0.2825  0.1896 -0.0114
10830OCT     C121659   5.312  13.549   0.997 -0.1146 -0.1068  0.0373
10830OCT     C221660   5.003  13.307   1.205 -0.1015 -0.0139 -0.1695
10831OCT     C121661  15.022   4.456   5.759 -0.4267  0.0719  0.1533
10831OCT     C221662  14.880   4.316   5.303  0.0190  0.0203  0.0771
10832OCT     C121663   2.167  18.548  17.298 -0.5589 -0.2528  0.0973
10832OCT     C221664   2.513  18.742  17.066 -0.2475 -0.1354 -0.2821
10833OCT     C121665  12.766  12.198  16.613 -0.0448  0.0330  0.0940
10833OCT     C221666  12.676  12.671  16.511  0.0181 -0.0755 -0.1937
10834OCT     C121667   7.158  14.252  13.500 -0.3900  0.0741  0.1249
10834OCT     C221668   7.217  14.643  13.288  0.0114  0.3234 -0.3806
10835OCT     C121669  11.503   2.509  16.862  0.2542 -0.1063  0.0609
10835OCT     C221670  11.371   2.141  16.556  0.2031 -0.2762 -0.1713
10836OCT     C121671  17.906  19.607  13.121  0.2972 -0.0154  0.0096
10836OCT     C221672  17.570  19.801  12.843 -0.2403 -0.0598 -0.2641
10837OCT     C121673   0.911  19.940  21.877  0.2597  0.1192 -0.0940
10837OCT     C221674   0.501  20.236  21.861 -0.2223  0.3682  0.0457
10838OCT     C121675   5.662   4.247  17.875  0.0448  0.2206 -0.1769
10838OCT     C221676   5.535   4.517  18.159 -0.1223  0.0418 -0.1081
10839OCT     C121677   5.479  12.569  21.992 -0.0859  0.0977 -0.1489
10839OCT     C221678   5.655  12.643  21.558  0.1483 -0.3638 -0.0108
10840OCT     C121679  19.228  15.731   7.523  0.0021  0.2759  0.3149
10840OCT     C221680  18.795  15.752   7.354  0.1326 -0.2785  0.1782
10841OCT     C121681   7.616  19.076  20.588  0.4581 -0.0346 -0.0440
10841OCT     C221682   7.808  18.685  20.754 -0.0411  0.1081 -0.1815
10842OCT     C121683   1.281   5.799  16.562 -0.2951 -0.1159  0.1023
10842OCT     C221684   1.659   5.462  16.474 -0.1294 -0.4161  0.3142
10843OCT     C121685  12.268   9.606   1.842  0.2715 -0.2836  0.0710
10843OCT     C221686  12.248   9.201   1.644  0.2137  0.2389  0.2005
10844OCT     C121687  18.033   8.367  22.509 -0.0067 -0.2055 -0.0526
10844OCT     C221688  18.009   7.919  22.638 -0.0868 -0.2203  0.1386
10845OCT     C121689  23.250  13.992   9.610  0.1546  0.0235 -0.1083
10845OCT     C221690  22.885  14.269   9.490 -0.1539 -0.1963 -0.0533
10846OCT     C121691  23.636  23.624  11.418  0.1581 -0.1709 -0.0445
10846OCT     C221692   0.107   0.086  11.073 -0.3087  0.1059  0.0030
10847OCT     C121693  13.805  12.630  15.883 -0.3542 -0.0771 -0.1175
10847OCT     C221694  13.460  12.899  16.013  0.1536  0.1733  0.0838
10848OCT     C121695  15.318  19.359   9.519 -0.1965  0.1086  0.2021
10848OCT     C221696  15.135  19.788   9.661 -0.2744  0.0475 -0.1641
10849OCT     C121697  19.550   0.165  19.783 -0.2788  0.0113 -0.1353
10849OCT     C221698  19.348  23.551  19.557 -0.2263 -0.1108 -0.0510
10850OCT     C121699   7.180   5.131  19.198  0.2579 -0.0225 -0.0552
10850OCT     C221700   7.424   5.341  19.513  0.0166 -0.3425 -0.0513
10851OCT     C121701  17.181  21.332   7.512 -0.1769  0.0098  0.5145
10851OCT     C221702  17.435  21.758   7.623  0.1423 -0.3333 -0.1065
10852OCT     C121703  21.507  15.968   8.696 -0.3208 -0.2666  0.1262
10852OCT     C221704  21.232  16.259   8.915  0.0129 -0.1258  0.1036
10853OCT     C121705  20.425  21.997   7.685  0.0663  0.0801 -0.2421
10853OCT     C221706  20.387  22.012   8.151  0.0886 -0.0355  0.1615
10854OCT     C121707  11.022  19.982  16.527 -0.0041 -0.5386  0.0261
10854OCT     C221708  11.037  19.612  16.245  0.2536 -0.2922  0.1635
10855OCT     C121709  19.118  13.334   8.783 -0.0247 -0.1434 -0.0266
10855OCT     C221710  18.831  13.438   9.191 -0.1608  0.5557 -0.0454
10856OCT     C121711   5.399  11.989  12.880 -0.0215 -0.2392  0.0633
10856OCT     C221712   5.229  12.244  12.554  0.2020  0.0540  0.3056
10857OCT     C121713  10.372   6.049   7.448  0.0922  0.3690  0.0701
10857OCT     C221714  10.432   5.988   7.025  0.1420  0.1477 -0.0045
10858OCT     C121715  15.358   7.355   0.142  0.0788  0.5566  0.0995
10858OCT     C221716  15.178   7.734   0.410  0.2660 -0.2578 -0.0879
10859OCT     C121717   6.243   9.175  10.139 -0.3260 -0.1725 -0.1734
10859OCT     C221718   6.087   8.786  10.018  0.0421 -0.0289 -0.0129
10860OCT     C121719   1.287   5.551   4.735 -0.3836  0.6008  0.1605
10860OCT     C221720   1.702   5.397   4.908 -0.3622 -0.1019  0.0344
10861OCT     C121721   2.217   1.426  19.278 -0.3410  0.0673  0.2630
10861OCT     C221722   2.001   1.235  18.884  0.0915  0.3889 -0.0264
10862OCT     C121723   9.531  13.412  20.697 -0.1611 -0.1635 -0.2750
10862OCT     C221724   9.129  13.628  20.747  0.1051 -0.2408  0.0819
10863OCT     C121725   1.743   7.254   9.826 -0.4767  0.2546  0.2573
10863OCT     C221726   1.865   7.093  10.215 -0.1256 -0.1666 -0.1916
10864OCT     C121727  16.487   8.989  22.594 -0.0554 -0.1076  0.0513
10864OCT     C221728  16.196   9.196  22.370 -0.2964 -0.1316 -0.2159
10865OCT     C121729   3.177  17.903  21.683  0.1864  0.1765  0.0485
10865OCT     C221730   3.589  18.111  21.832  0.0557  0.2414 -0.1716
10866OCT     C121731  18.417   5.853   7.444 -0.1522 -0.0297 -0.0726
10866OCT     C221732  18.802   5.977   7.702  0.2432 -0.1154  0.4452
10867OCT     C121733  10.231  15.929   9.902  0.1426 -0.2839 -0.2893
10867OCT     C221734   9.792  16.045  10.020 -0.0106 -0.1788 -0.0080
10868OCT     C121735  15.136   5.264   3.536  0.1082  0.0099 -0.2273
10868OCT     C221736  14.686   5.396   3.552 -0.0168  0.0397  0.2410
10869OCT     C121737  11.902  11.299   2.547  0.0181 -0.0999 -0.4057
10869OCT     C221738  12.175  10.928   2.637 -0.3198  0.0960 -0.1297
10870OCT     C121739  21.360   8.554  11.963 -0.0784  0.0688  0.0384
10870OCT     C221740  21.131   8.480  11.546  0.0050 -0.2700  0.0332
10871OCT     C121741  14.496  23.238  19.722 -0.1499  0.2866  0.3709
10871OCT     C221742  14.456  22.780  19.544  0.0225 -0.0416  0.0652
10872OCT     C121743  12.311   5.013  11.544 -0.1352  0.1988  0.1264
10872OCT     C221744  12.728   5.234  11.471  0.2020 -0.0702  0.0891
10873OCT     C121745   2.095  22.794  13.988 -0.1648  0.0911  0.1604
10873OCT     C221746   1.786  22.668  13.661 -0.1474  0.0665  0.0993
10874OCT     C121747   3.737   5.542  20.508 -0.3060 -0.1122 -0.2318
10874OCT     C221748   3.280   5.521  20.614  0.1504  0.1767 -0.0005
10875OCT     C121749  21.876  14.588  13.133 -0.1979  0.3086  0.4124
10875OCT     C221750  21.846  14.982  13.372  0.0665 -0.3790  0.1866
10876OCT     C121751  14.768   4.946  15.020 -0.1211 -0.2836  0.1537
10876OCT     C221752  14.418   5.234  15.125 -0.0415 -0.1326  0.0367
10877OCT     C121753  16.656  12.168   9.048  0.1958  0.0995 -0.0977
10877OCT     C221754  16.170  12.148   9.050 -0.3589  0.1753 -0.3553
10878OCT     C121755  16.668   7.129  21.003 -0.2336  0.1558  0.0249
10878OCT     C221756  17.140   7.053  20.983 -0.1185  0.0427 -0.3060
10879OCT     C121757  20.102  12.455   3.329  0.2425 -0.0114  0.0532
10879OCT     C221758  19.866  12.580   3.738 -0.3115 -0.0652  0.4054
10880OCT     C121759  14.355   5.510  10.860  0.1312 -0.2070  0.1684
10880OCT     C221760  14.408   5.930  10.953  0.0717  0.0136  0.0402
10881OCT     C121761  14.454   4.291  23.097  0.1222 -0.1288 -0.2079
10881OCT     C221762  14.812   4.168  23.383 -0.1360  0.0647 -0.1624
10882OCT     C121763  18.474   8.517   9.968  0.0587  0.2531 -0.2921
10882OCT     C221764  18.109   8.385   9.709 -0.2191  0.1062 -0.0232
10883OCT     C121765   9.359  10.203  17.235 -0.5046 -0.0480  0.1023
10883OCT     C221766   9.293  10.052  17.727 -0.2592 -0.3080  0.0247
10884OCT     C121767   2.677   3.682  22.295  0.0404  0.0532  0.2400
10884OCT     C221768   2.702   4.133  22.168  0.2781 -0.0794  0.0027
10885OCT     C121769  15.395  17.006   6.133 -0.1799 -0.0277 -0.0153
10885OCT     C221770  15.179  16.867   6.455  0.1391 -0.0269  0.2014
10886OCT     C121771  12.450   5.198  16.748  0.1972 -0.0484 -0.0184
10886OCT     C221772  12.153   4.872  17.036 -0.0471  0.0091  0.1394
10887OCT     C121773   3.864   8.459   7.742 -0.2092 -0.1284 -0.1345
10887OCT     C221774   3.809   8.240   7.369 -0.2048  0.2004  0.0644
10888OCT     C121775  22.594   2.678  23.151  0.3483  0.0099  0.1826
10888OCT     C221776  22.646   2.607  23.587  0.1547 -0.2297 -0.2868
10889OCT     C121777  14.270   2.786  14.998 -0.1167 -0.0061 -0.0270
10889OCT     C221778  14.243   3.179  15.225  0.3091 -0.4656  0.2001
10890OCT     C121779  14.660  15.488   9.055 -0.2129 -0.0771  0.1448
10890OCT     C221780  15.116  15.576   8.862 -0.0405 -0.0080 -0.1569
10891OCT     C121781   7.813  22.361   7.748  0.0609 -0.3139 -0.3586
10891OCT     C221782   8.134  22.618   7.989 -0.0025  0.0079  0.0691
10892OCT     C121783   9.842  17.874   3.203 -0.0117  0.5383 -0.0892
10892OCT     C221784   9.653  17.450   3.317 -0.0078 -0.1114 -0.1582
10893OCT     C121785  22.087   1.921  16.507 -0.2352 -0.0864  0.1626
10893OCT     C221786  21.911   2.038  16.152  0.1110  0.2109  0.1390
10894OCT     C121787   9.640   7.741   3.718 -0.0499  0.1310 -0.1997
10894OCT     C221788   9.804   7.329   3.975 -0.2140  0.0045 -0.1268
10895OCT     C121789   1.016   0.503  13.411 -0.0677 -0.0954  0.1089
10895OCT     C221790   0.909   0.035  13.563 -0.0774 -0.2453  0.0506
10896OCT     C121791   4.075  13.113  19.514 -0.0116 -0.1061  0.0759
10896OCT     C221792   4.065  12.878  19.156  0.0154  0.0766 -0.5119
10897OCT     C121793  19.184  15.293  19.460  0.1081 -0.3340  0.1416
10897OCT     C221794  19.592  15.462  19.571  0.1377  0.0390 -0.0615
10898OCT     C121795  11.561  20.433  18.716  0.0356  0.1832 -0.0195
10898OCT     C221796  11.427  20.629  19.123 -0.1659  0.0076  0.1063
10899OCT     C121797   8.637  14.067  22.037  0.2553 -0.3037  0.3286
10899OCT     C221798   8.815  13.880  21.646 -0.0821  0.3145 -0.2745
10900OCT     C121799   4.941  11.698   8.213 -0.2732  0.3125  0.6886
10900OCT     C221800   4.785  11.560   8.688  0.1729  0.1818  0.2841
10901OCT     C121801   7.335   2.627  17.747  0.0832 -0.1116  0.1868
10901OCT     C221802   7.318   2.471  17.305  0.1242  0.1585 -0.0881
10902OCT     C121803  20.665   5.420  11.376  0.0838 -0.0603 -0.0201
10902OCT     C221804  20.363   5.508  11.014  0.0803 -0.1201  0.3719
10903OCT     C121805  16.160  10.247   1.808  0.1687 -0.1734  0.1158
10903OCT     C221806  16.225  10.704   1.591 -0.1249  0.7041 -0.1469
10904OCT     C121807  23.291  23.621  21.958  0.0694 -0.3425  0.2812
10904OCT     C221808  22.975   0.126  21.690 -0.1218  0.4755 -0.0930
10905OCT     C121809  20.107   0.555  17.443  0.1840 -0.7275  0.1815
10905OCT     C221810  20.102   0.417  17.865 -0.0315  0.0870 -0.1989
10906OCT     C121811  12.141   1.520  20.302 -0.1924  0.0483 -0.0039
10906OCT     C221812  12.476   1.453  19.895  0.1758 -0.2776  0.2942
10907OCT     C121813  17.556  14.918  19.451 -0.0941  0.1205  0.1600
10907OCT     C221814  17.774  14.870  19.827 -0.0890 -0.1906  0.1170
10908OCT     C121815   4.297  12.545  22.616 -0.2216 -0.0947  0.1962
10908OCT     C221816   4.051  12.453  22.218 -0.0939 -0.1742 -0.2857
10909OCT     C121817  12.186  16.662   2.779 -0.2259  0.1817  0.0733
10909OCT     C221818  12.133  17.165   2.900 -0.2945 -0.4873 -0.0605
10910OCT     C121819  19.221  16.406  22.126  0.2347  0.1090 -0.0994
10910OCT     C221820  19.132  16.808  22.401 -0.1334 -0.1081 -0.1312
10911OCT     C121821   6.844   3.198  21.043 -0.3674  0.2717 -0.1235
10911OCT     C221822   7.295   3.332  21.082  0.2870  0.2814 -0.0633
10912OCT     C121823  12.284   3.309   1.672 -0.1097 -0.1179 -0.0134
10912OCT     C221824  12.182   3.594   1.293  0.3097  0.2163 -0.2191
10913OCT     C121825  17.999   9.254   2.756 -0.2158 -0.0251  0.0293
10913OCT     C221826  17.936   9.596   2.988 -0.0570 -0.1347 -0.3027
10914OCT     C121827   3.523  22.329  18.309 -0.0504 -0.2412 -0.0296
10914OCT     C221828   3.865  22.233  17.993 -0.1948  0.1542  0.0718
10915OCT     C121829  20.238  12.845   7.147 -0.5676 -0.2619  0.0061
10915OCT     C221830  19.778  12.885   7.233 -0.0920  0.0096  0.2625
10916OCT     C121831  13.695  17.210  22.773  0.0486 -0.0656 -0.1025
10916OCT     C221832  14.131  17.250  22.933 -0.0900 -0.2466 -0.1507
10917OCT     C121833   6.205  16.338  23.003  0.2802 -0.1208 -0.1271
10917OCT     C221834   6.397  15.924  23.045 -0.2413  0.0376 -0.0905
10918OCT     C121835  19.043  11.717   7.014 -0.1774 -0.1672  0.0241
10918OCT     C221836  19.016  12.009   6.683  0.0849 -0.1536  0.1324
10919OCT     C121837   3.488  18.673  13.199 -0.0741 -0.1713  0.0351
10919OCT     C221838   3.763  19.005  13.362 -0.2096  0.3146 -0.1435
10920OCT     C121839   5.610   3.933  19.286  0.2191  0.2664  0.1157
10920OCT     C221840   5.280   4.130  19.054 -0.1900 -0.0526  0.3438
10921OCT     C121841  19.658   9.811  12.061  0.3161 -0.0239  0.1207
10921OCT     C221842  19.911   9.888  12.450 -0.1533 -0.1402 -0.3814
10922OCT     C121843  17.992   8.735  14.748  0.1879  0.0502  0.0545
10922OCT     C221844  18.025   8.244  14.500 -0.0385  0.0614 -0.1978
10923OCT     C121845  16.591  21.828  10.770  0.1210 -0.1305  0.0345
10923OCT     C221846  16.424  21.952  10.383 -0.0069 -0.0125 -0.0322
10924OCT     C121847  19.167  13.324   5.023  0.4697 -0.0256 -0.2849
10924OCT     C221848  19.366  13.589   4.743  0.0087 -0.1960  0.2965
10925OCT     C121849   7.954   1.411  14.867 -0.1434  0.1902 -0.0046
10925OCT     C221850   8.092   1.541  15.319  0.1969 -0.2816  0.0691
10926OCT     C121851   2.999   9.705  17.488  0.4276  0.0672  0.4315
10926OCT     C221852   2.834   9.501  17.868 -0.3226  0.2907  0.0790
10927OCT     C121853   7.123   0.710   3.407  0.1043 -0.1050  0.1579
10927OCT     C221854   6.942   0.885   3.827 -0.0700 -0.4289 -0.2840
10928OCT     C121855   3.162   3.924  22.094 -0.2113  0.0068  0.1380
10928OCT     C221856   3.194   4.004  21.662 -0.0508  0.0339  0.0273
10929OCT     C121857  21.820   6.546   5.566  0.0085  0.2566 -0.0473
10929OCT     C221858  21.338   6.508   5.655 -0.0585 -0.2186 -0.2697
10930OCT     C121859   4.681   7.165  13.562  0.1104 -0.0712 -0.2769
10930OCT     C221860   4.960   7.049  13.296 -0.0779  0.1439 -0.1604
10931OCT     C121861   6.838   0.715  18.709  0.2891 -0.2137  0.0606
10931OCT     C221862   7.174   0.934  18.916  0.2557 -0.1272  0.3215
10932OCT     C121863  13.766  19.682   7.881  0.4476  0.3098  0.0170
10932OCT     C221864  13.841  19.929   7.464  0.1513 -0.3590 -0.1290
10933OCT     C121865  10.421  17.832  18.694  0.0856  0.0203  0.0525
10933OCT     C221866  10.845  17.632  18.575 -0.1418  0.0296 -0.5215
10934OCT     C121867  11.906  18.373  10.073 -0.0076 -0.1269  0.1601
10934OCT     C221868  11.966  17.879  10.108  0.3737  0.2834  0.1335
10935OCT     C121869   8.635  13.439   3.688 -0.1631  0.3873 -0.2527
10935OCT     C221870   8.717  13.110   3.290 -0.0095  0.1696 -0.1862
10936OCT     C121871  18.735   7.169  13.649  0.0945  0.5783  0.0129
10936OCT     C221872  19.136   7.069  13.818  0.0870 -0.0719  0.1466
10937OCT     C121873   8.441  16.164  10.434 -0.0703 -0.0419  0.2515
10937OCT     C221874   8.186  16.449  10.680  0.0616  0.0675 -0.1883
10938OCT     C121875  16.431  18.158   4.772  0.0288  0.0145  0.1137
10938OCT     C221876  16.655  18.592   4.684  0.1268  0.2267 -0.1508
10939OCT     C121877   6.777  21.347  19.558 -0.1140 -0.0650 -0.0562
10939OCT     C221878   7.084  20.950  19.494  0.3151 -0.1415 -0.3897
10940OCT     C121879  15.417  21.710  23.691  0.0155 -0.4703  0.2752
10940OCT     C221880  15.821  21.611  23.489  0.2415  0.1691 -0.1327
10941OCT     C121881  18.304   6.476  16.216  0.3516  0.0711 -0.0915
10941OCT     C221882  18.704   6.339  16.474 -0.0036 -0.0226 -0.2197
10942OCT     C121883  15.330   0.144   3.325  0.0121 -0.1236  0.1236
10942OCT     C221884  15.790   0.009   3.379  0.0382 -0.0872 -0.1138
10943OCT     C121885  21.025  23.469  18.800 -0.0633 -0.0662 -0.0423
10943OCT     C221886  20.976  23.012  18.902  0.0694  0.0703 -0.0839
10944OCT     C121887  19.014   9.179  11.891 -0.2179  0.2356  0.0133
10944OCT     C221888  18.668   9.036  12.199  0.0777 -0.0090 -0.1238
10945OCT     C121889  22.991  20.116  19.489  0.2170 -0.5824 -0.0269
10945OCT     C221890  22.594  20.389  19.654 -0.0575 -0.1694  0.0492
10946OCT     C121891  20.612   4.410   7.725 -0.1860  0.1852  0.1994
10946OCT     C221892  21.029   4.172   7.642  0.0853 -0.1482  0.0087
10947OCT     C121893  18.837  15.073  14.350  0.2169  0.1728  0.1208
10947OCT     C221894  18.635  14.685  14.441  0.2538  0.3660  0.1939
10948OCT     C121895   7.422  21.137  19.127  0.0113  0.0939 -0.2751
10948OCT     C221896   7.237  20.740  19.045  0.2741  0.0242  0.2363
10949OCT     C121897  12.158  11.459   5.855  0.0116  0.1153 -0.0562
10949OCT     C221898  12.210  10.940   5.905  0.0082 -0.0222 -0.2273
10950OCT     C121899  21.120   1.476   1.818 -0.0596 -0.2407 -0.0142
10950OCT     C221900  21.333   1.891   1.768  0.1317  0.3841 -0.1734
10951OCT     C121901   6.519   8.440  11.329  0.0766 -0.0099  0.1193
10951OCT     C221902   6.099   8.518  11.583  0.1584  0.0360 -0.3987
10952OCT     C121903  16.385   3.727  19.134  0.1707 -0.1779 -0.4182
10952OCT     C221904  16.093   3.547  19.420 -0.0249  0.0706  0.3013
10953OCT     C121905   3.670  10.501   2.919  0.0312 -0.0264  0.1585
10953OCT     C221906   3.225  10.381   2.941 -0.2008 -0.2997 -0.0348
10954OCT     C121907   6.438  14.568   2.961 -0.2638  0.0099  0.0346
10954OCT     C221908   6.024  14.556   3.137  0.2351 -0.0388  0.0102
10955OCT     C121909  19.450   2.071   8.046  0.1388  0.4835  0.0816
10955OCT     C221910  19.000   2.206   8.151 -0.0057  0.1494  0.0428
10956OCT     C121911  11.432  15.614  18.568  0.3776  0.1871  0.2244
10956OCT     C221912  11.775  15.846  18.712 -0.2972  0.0271  0.3016
10957OCT     C121913   4.507  11.512   1.071  0.0592  0.0442  0.5171
10957OCT     C221914   4.655  11.663   0.652  0.3850 -0.3178  0.0550
10958OCT     C121915  20.646  14.977  11.972 -0.0741  0.0014  0.2198
10958OCT     C221916  20.614  15.247  12.344 -0.2228  0.2807 -0.0361
10959OCT     C121917  15.206   1.324   5.744 -0.1187 -0.1345 -0.2475
10959OCT     C221918  15.061   1.441   6.152  0.4286  0.4790  0.2827
10960OCT     C121919  19.495  19.400  23.667 -0.0572 -0.1899 -0.0992
10960OCT     C221920  19.529  19.118   0.233  0.0206  0.1759 -0.0739
10961OCT     C121921   8.502  17.971   0.283 -0.3201 -0.1775 -0.2097
10961OCT     C221922   8.893  17.761   0.254 -0.0740 -0.1053 -0.1555
10962OCT     C121923   9.127  12.610   9.869  0.1995 -0.2523  0.2145
10962OCT     C221924   9.225  12.668   9.457 -0.0213  0.2299  0.0913
10963OCT     C121925   9.385   7.991   7.202 -0.2442 -0.1284 -0.0981
10963OCT     C221926   9.022   8.172   7.447 -0.0613  0.1152 -0.0506
10964OCT     C121927   9.121  13.703  17.222 -0.1789 -0.0273  0.0556
10964OCT     C221928   9.548  13.470  17.361  0.1210  0.1554 -0.2318
10965OCT     C121929   7.465  12.715  16.713 -0.2525  0.1879 -0.0928
10965OCT     C221930   7.136  12.436  16.966 -0.2169 -0.1135 -0.1383
10966OCT     C121931  11.228  14.641  22.446 -0.0110  0.3846  0.3755
10966OCT     C221932  11.067  14.844  22.014  0.1139  0.3665 -0.4134
10967OCT     C121933   3.732  22.152  17.017  0.1081  0.1075 -0.2114
10967OCT     C221934   3.740  22.315  16.613 -0.0851 -0.3360  0.1839
10968OCT     C121935   3.895  22.857  10.359  0.2956  0.1799 -0.1361
10968OCT     C221936   4.243  22.496  10.293 -0.0826  0.3516 -0.0764
10969OCT     C121937   4.028   5.462  14.731 -0.0619 -0.3061  0.3747
10969OCT     C221938   3.656   5.616  14.613  0.2031 -0.0706  0.1449
10970OCT     C121939  19.060  15.298  18.914  0.5087  0.1269  0.3055
10970OCT     C221940  18.582  15.359  18.682 -0.0648 -0.3966  0.2416
10971OCT     C121941   7.188  23.661   5.177  0.2125 -0.1337 -0.2962
10971OCT     C221942   7.277   0.116   5.597 -0.1310  0.2724 -0.0680
10972OCT     C121943   1.940   9.536  13.590  0.1661  0.2339 -0.0383
10972OCT     C221944   2.218   9.920  13.570  0.1633 -0.1353 -0.3490
10973OCT     C121945  13.334  14.392   0.537 -0.0430  0.2040 -0.1347
10973OCT     C221946  13.022  14.013   0.720  0.1135 -0.1201  0.3273
10974OCT     C121947  21.293   5.148   1.151  0.1863  0.1855 -0.0517
10974OCT     C221948  21.665   5.246   1.373 -0.2085 -0.1454  0.2248
10975OCT     C121949  10.702   8.800  14.071  0.0660  0.0708 -0.1408
10975OCT     C221950  10.607   8.384  14.217  0.4470 -0.0498  0.2776
10976OCT     C121951  13.822   1.710   8.062 -0.0796 -0.2758  0.0285
10976OCT     C221952  13.568   1.468   8.352 -0.0164  0.0919 -0.1241
10977OCT     C121953   4.468   9.013  20.986 -0.1362  0.3268  0.0133
10977OCT     C221954   4.144   9.371  21.151 -0.4701  0.1501  0.3944
10978OCT     C121955  18.341  17.018  19.393  0.0278  0.0639 -0.0092
10978OCT     C221956  18.682  17.035  19.736  0.1126 -0.0894 -0.2401
10979OCT     C121957   8.124  14.252  14.576 -0.1344 -0.1788 -0.0063
10979OCT     C221958   8.268  14.406  14.995  0.0578  0.0281 -0.0279
10980OCT     C121959  18.976   1.791   5.589 -0.3428 -0.0199  0.0693
10980OCT     C221960  18.997   1.648   6.020  0.2120  0.4415  0.0355
10981OCT     C121961  23.387  14.387   6.310 -0.0464  0.0399 -0.3160
10981OCT     C221962  23.423  14.020   6.034  0.0484  0.3050  0.1200
10982OCT     C121963  10.594  10.941   6.608  0.2552  0.1705  0.0821
10982OCT     C221964  11.045  11.084   6.492 -0.0742 -0.1402  0.0520
10983OCT     C121965   7.252   7.410   0.007 -0.2123 -0.1386  0.0394
10983OCT     C221966   7.228   7.831  23.655  0.1047  0.3942  0.0122
10984OCT     C121967  12.834   9.105   7.280 -0.6693  0.1764 -0.0443
10984OCT     C221968  12.365   9.122   7.296 -0.1409  0.1926 -0.2284
10985OCT     C121969  20.280  18.626   3.451 -0.0569  0.2678 -0.2236
10985OCT     C221970  20.478  18.577   3.914  0.0485  0.1613  0.1617
10986OCT     C121971   0.727   3.570   0.850 -0.0422 -0.0086  0.2412
10986OCT     C221972   0.365   3.858   0.805  0.0391  0.0295 -0.1591
10987OCT     C121973  16.139  18.601  18.459 -0.1886  0.1399  0.0335
10987OCT     C221974  15.662  18.615  18.359 -0.1321  0.1474  0.0112
10988OCT     C121975  20.781  10.119   1.201 -0.0423  0.2080  0.2205
10988OCT     C221976  21.026   9.705   1.135  0.0442 -0.3583 -0.0354
10989OCT     C121977  14.204  18.759   8.544  0.2273 -0.0584  0.0217
10989OCT     C221978  14.146  19.052   8.191 -0.1475 -0.0695 -0.0586
10990OCT     C121979  22.386  12.327  18.880  0.1520  0.1293  0.2338
10990OCT     C221980  22.272  12.569  18.526 -0.4040 -0.0950  0.1498
10991OCT     C121981  19.846   1.690  10.159 -0.0940 -0.0204  0.1361
10991OCT     C221982  20.085   1.408  10.392 -0.1184  0.2934  0.0976
10992OCT     C121983   6.394  21.178  21.017  0.2642  0.0891 -0.0303
10992OCT     C221984   6.821  21.118  21.025 -0.0421 -0.1145  0.1610
10993OCT     C121985  15.777  15.862  19.623 -0.0454 -0.0538 -0.2619
10993OCT     C221986  15.659  15.737  20.068 -0.3322  0.1215 -0.0705
10994OCT     C121987  20.972  15.062   2.973  0.0937  0.0690  0.0915
10994OCT     C221988  20.474  15.030   2.982 -0.0996  0.0457 -0.0018
10995OCT     C121989   9.891   2.675  19.399 -0.2749 -0.3098  0.2272
10995OCT     C221990   9.508   2.955  19.339 -0.0739 -0.1247  0.0311
10996OCT     C121991  19.270  16.961   5.731 -0.1853  0.1672  0.2327
10996OCT     C221992  19.279  16.790   5.348  0.3933  0.3504 -0.2279
10997OCT     C121993  22.057  18.126  13.518  0.5408  0.2594 -0.0840
10997OCT     C221994  21.854  17.916  13.199  0.2146 -0.2566 -0.0208
10998OCT     C121995  16.060  23.294  22.141 -0.1916  0.0924  0.1132
10998OCT     C221996  16.505  23.188  22.046  0.2512  0.0275  0.1672
10999OCT     C121997  10.068  18.752  10.511 -0.2904 -0.0318  0.0001
10999OCT     C221998  10.346  19.112  10.329  0.2925  0.0855 -0.0246
11000OCT     C121999   1.647  21.121   5.342  0.3468 -0.0273  0.0641
11000OCT     C222000   1.929  20.824   5.160  0.0035  0.2569 -0.1227
11001OCT     C122001   0.315  11.959  21.667 -0.2482  0.0437 -0.2972
11001OCT     C222002   0.677  12.137  21.453  0.2874 -0.4369 -0.0695
11002OCT     C122003  15.719  14.117   6.666 -0.1796 -0.3032 -0.1627
11002OCT     C222004  16.096  14.359   6.917 -0.1372 -0.0153  0.4752
11003OCT     C122005   6.380   6.443   0.224 -0.1465 -0.0014 -0.2355
11003OCT     C222006   6.163   6.532   0.607  0.2414  0.1835  0.1045
11004OCT     C122007  18.441   7.002  14.212 -0.2901 -0.3693  0.2260
11004OCT     C222008  18.090   6.748  14.411  0.4121 -0.2433  0.4435
11005OCT     C122009   6.307  18.192  17.822  0.0415  0.1078 -0.0057
11005OCT     C222010   6.264  17.692  17.879 -0.3315  0.0875 -0.1357
11006OCT     C122011  14.539   2.174   0.688 -0.0653 -0.1400  0.1525
11006OCT     C222012  14.099   2.457   0.659  0.3165 -0.0933 -0.1563
11007OCT     C122013  18.195  11.776  15.051  0.0988  0.2000 -0.2530
11007OCT     C222014  18.256  11.487  14.670  0.1054 -0.0722 -0.1662
11008OCT     C122015   9.411  23.643  17.271 -0.0014  0.2048 -0.2129
11008OCT     C222016   9.624  23.444  17.590  0.4074 -0.3572  0.0084
11009OCT     C122017  17.542  17.352   3.443  0.1046 -0.4346 -0.2853
11009OCT     C222018  17.078  17.156   3.399  0.0894 -0.0431  0.1843
11010OCT     C122019   5.446  20.369   7.249  0.2908 -0.0037 -0.2502
11010OCT     C222020   5.553  20.854   7.379  0.3739 -0.0087 -0.1960
11011OCT     C122021   5.098   4.130   6.185  0.4160  0.0938 -0.1105
11011OCT     C222022   4.655   4.191   6.312  0.0321 -0.0191 -0.0843
11012OCT     C122023  19.385  18.281  20.553 -0.2301  0.1321  0.0383
11012OCT     C222024  19.839  18.248  20.671  0.3047 -0.0060 -0.0121
11013OCT     C122025   2.068  22.679   2.388  0.1722 -0.1754 -0.0871
11013OCT     C222026   1.951  22.510   2.829 -0.1910  0.1329 -0.1801
11014OCT     C122027   1.411  21.145  12.136 -0.2497  0.4977 -0.3214
11014OCT     C222028   1.225  20.742  12.243  0.4087 -0.1509  0.1920
11015OCT     C122029   7.092  11.305   3.039 -0.1795 -0.2637 -0.2043
11015OCT     C222030   6.838  11.651   2.842  0.0924 -0.1480 -0.2379
11016OCT     C122031   6.153  18.124   7.445  0.1486  0.0615 -0.2358
11016OCT     C222032   6.492  18.357   7.657  0.2266  0.1267  0.1813
11017OCT     C122033   5.571  17.871  19.507 -0.1217 -0.3605 -0.0640
11017OCT     C222034   5.936  18.200  19.589  0.1198 -0.0291 -0.2282
11018OCT     C122035  10.119   8.678  11.511 -0.1126 -0.0717 -0.0161
11018OCT     C222036   9.871   8.987  11.242  0.1274 -0.1322 -0.0180
11019OCT     C122037  16.308  18.281  10.874 -0.2952  0.0319 -0.0344
11019OCT     C222038  16.711  18.120  11.090  0.0341  0.2333 -0.0057
11020OCT     C122039  20.455  11.427  11.807 -0.0482 -0.4119  0.0693
11020OCT     C222040  20.734  11.586  11.534 -0.0205  0.0302  0.1965
11021OCT     C122041  23.556   2.624  10.561  0.0291 -0.1594  0.1174
11021OCT     C222042   0.105   2.285  10.637 -0.2282  0.0551  0.1600
11022OCT     C122043   4.206  21.537  21.733 -0.5101  0.0789 -0.2285
11022OCT     C222044   4.498  21.175  21.852 -0.2718 -0.2478 -0.1819
11023OCT     C122045   7.120  21.489  10.556 -0.1264  0.0147  0.1014
11023OCT     C222046   6.784  21.770  10.581  0.0506  0.2398  0.0703
11024OCT     C122047   8.363  18.610   1.696  0.0355  0.1722 -0.0148
11024OCT     C222048   8.163  18.316   2.035 -0.1391 -0.0618 -0.0266
11025OCT     C122049   1.273  18.324   4.169  0.2449 -0.0589  0.1164
11025OCT     C222050   1.280  17.860   4.021  0.1288 -0.1948  0.2569
11026OCT     C122051  15.205   1.814   5.820  0.0682 -0.0172 -0.2049
11026OCT     C222052  14.804   1.862   6.108  0.3326  0.3531  0.0055
11027OCT     C122053   4.929   6.349   3.137 -0.4758  0.0936 -0.0123
11027OCT     C222054   5.281   6.652   3.192  0.1026  0.3542 -0.2286
11028OCT     C122055   3.603  19.020  15.756 -0.0590  0.0394 -0.0733
11028OCT     C222056   3.767  18.702  15.440 -0.1993  0.3194  0.3885
11029OCT     C122057   5.134  21.232  11.280  0.0047 -0.1197  0.2300
11029OCT     C222058   4.941  20.868  10.994 -0.0268 -0.1439  0.0522
11030OCT     C122059   8.184  21.519  15.235  0.1201 -0.2198  0.1459
11030OCT     C222060   8.328  21.593  15.669  0.1006 -0.1189  0.1155
11031OCT     C122061  20.534  15.962  14.711 -0.1410  0.0460  0.3141
11031OCT     C222062  20.276  15.648  14.833  0.2498  0.4400  0.3019
11032OCT     C122063   0.271  23.275   4.588 -0.2205  0.1794 -0.0177
11032OCT     C222064   0.554  22.979   4.428 -0.0398  0.0742  0.0089
11033OCT     C122065   2.355  18.292  14.606  0.2307  0.3259 -0.0515
11033OCT     C222066   1.984  18.291  14.892 -0.0440  0.1337  0.3753
11034OCT     C122067   0.195  20.582   2.164  0.0320 -0.1885 -0.1301
11034OCT     C222068  23.514  20.758   2.209  0.1427  0.1240 -0.0042
11035OCT     C122069  11.922  11.126  21.967  0.1683 -0.0267  0.0278
11035OCT     C222070  11.533  10.861  21.878 -0.3061  0.2579  0.0895
11036OCT     C122071  16.023  16.499  15.162 -0.0955  0.5110 -0.0082
11036OCT     C222072  15.728  16.451  14.774  0.0235  0.0551 -0.1380
11037OCT     C122073  17.609   9.097  12.790 -0.1482 -0.0652 -0.2761
11037OCT     C222074  17.237   8.863  12.792  0.3973 -0.1572  0.4970
11038OCT     C122075   9.247  13.864  10.162  0.1401  0.3066  0.3179
11038OCT     C222076   9.611  13.755   9.952 -0.4516  0.3795  0.0688
11039OCT     C122077   7.464  10.886   9.484  0.2050 -0.2187  0.2302
11039OCT     C222078   7.236  11.135   9.150  0.0105 -0.0402  0.1462
11040OCT     C122079  19.711   4.507   7.430  0.1130  0.4002  0.1121
11040OCT     C222080  19.316   4.814   7.342 -0.2383  0.2891 -0.1040
11041OCT     C122081  13.779   3.184  13.833 -0.3285  0.0730 -0.4467
11041OCT     C222082  13.644   3.510  14.180 -0.2976  0.1124  0.5191
11042OCT     C122083  19.032   2.165   4.083  0.1466  0.0344 -0.1777
11042OCT     C222084  19.204   1.738   3.914  0.0446 -0.0626 -0.0152
11043OCT     C122085   3.230   6.894   5.392 -0.0157  0.3793 -0.1393
11043OCT     C222086   3.161   6.449   5.247  0.0561 -0.0687 -0.1547
11044OCT     C122087  19.777   7.436  13.236 -0.2369  0.0942  0.2980
11044OCT     C222088  19.458   7.408  12.916 -0.1651  0.2089 -0.0954
11045OCT     C122089   5.017   9.274   3.189  0.5589 -0.0696 -0.1073
11045OCT     C222090   5.222   8.941   2.922 -0.1035 -0.1761  0.2004
11046OCT     C122091   6.359   0.379   4.136 -0.0947  0.2341  0.0467
11046OCT     C222092   6.378   0.787   4.054 -0.1041  0.0030 -0.1250
11047OCT     C122093   0.850   1.908   0.666  0.0448  0.0118 -0.2884
11047OCT     C222094   0.433   1.689   0.496 -0.0296  0.3088  0.1094
11048OCT     C122095   5.619   3.253   9.089  0.1260  0.1756  0.0620
11048OCT     C222096   5.552   3.643   9.362  0.3811 -0.0120 -0.1562
11049OCT     C122097  21.439   8.099  13.741 -0.0078  0.3689  0.3479
11049OCT     C222098  21.893   8.270  13.844  0.0317 -0.0825  0.2296
11050OCT     C122099   7.793  16.274   6.966 -0.2619 -0.0172 -0.2627
11050OCT     C222100   7.410  16.149   6.791 -0.2529  0.2789  0.4099
11051OCT     C122101   7.306   0.148   2.489 -0.1873  0.3015 -0.2029
11051OCT     C222102   6.878   0.351   2.476  0.0268  0.0262  0.0454
11052OCT     C122103   0.232  13.173   4.799 -0.2517 -0.0793 -0.0451
11052OCT     C222104  23.550  12.919   4.731 -0.1271 -0.2152  0.2243
11053OCT     C122105   3.801  18.918  10.485 -0.1954  0.0455 -0.0998
11053OCT     C222106   4.008  19.256  10.778  0.1057 -0.0377  0.0217
11054OCT     C122107  21.660   3.584   0.237  0.6227 -0.3042  0.0259
11054OCT     C222108  21.670   3.566   0.735  0.1830 -0.0774 -0.0272
11055OCT     C122109  18.928   3.222  12.964  0.3305 -0.0784  0.1948
11055OCT     C222110  18.822   2.905  13.232 -0.3337  0.3757 -0.0479
11056OCT     C122111  19.758  18.406   9.799  0.1258 -0.0284  0.2716
11056OCT     C222112  20.124  18.549  10.054 -0.3004  0.0277  0.1843
11057OCT     C122113   8.437  11.085  13.338 -0.2178 -0.0633  0.0248
11057OCT     C222114   8.034  11.030  13.232  0.1185  0.0611 -0.2871
11058OCT     C122115  11.304  17.730   4.573  0.0093 -0.1869  0.1478
11058OCT     C222116  11.624  17.454   4.769  0.2381 -0.0659  0.1459
11059OCT     C122117   8.791   8.085   5.816  0.0050 -0.1232  0.1225
11059OCT     C222118   8.387   7.969   5.799 -0.1050 -0.0739  0.1212
11060OCT     C122119  12.347   4.650   7.696  0.1201  0.1351 -0.1017
11060OCT     C222120  11.932   4.541   7.864 -0.2063 -0.0195  0.2174
11061OCT     C122121   0.391  12.952   2.574 -0.2327 -0.2707  0.2885
11061OCT     C222122   0.117  12.770   2.924  0.0461 -0.1388 -0.2033
11062OCT     C122123  22.387  20.459   1.318 -0.3349 -0.0508  0.2618
11062OCT     C222124  22.292  20.692   1.711  0.0940  0.2371 -0.0747
11063OCT     C122125  15.330  16.589  14.374  0.0284  0.0916 -0.1701
11063OCT     C222126  15.754  16.494  14.139  0.1502 -0.1266 -0.0803
11064OCT     C122127  21.170   5.624  10.280  0.0108 -0.2684 -0.0226
11064OCT     C222128  21.027   5.462   9.843  0.0150 -0.3449 -0.5553
11065OCT     C122129  23.449   9.302  13.165 -0.0811  0.1088 -0.2703
11065OCT     C222130  23.613   9.210  13.641 -0.1319 -0.1530  0.0915
11066OCT     C122131  18.328   0.059  15.469  0.0143  0.2084 -0.3427
11066OCT     C222132  18.034   0.415  15.420  0.1742 -0.6110  0.1319
11067OCT     C122133   2.196   6.270   4.174 -0.2732  0.0821 -0.2205
11067OCT     C222134   2.691   6.289   4.101  0.2136 -0.2310 -0.1244
11068OCT     C122135  18.262   2.739  23.145 -0.0882  0.4171 -0.1109
11068OCT     C222136  18.310   2.603  23.599  0.0126 -0.3713  0.1072
11069OCT     C122137   4.246   3.955   8.105 -0.2625 -0.0875  0.1751
11069OCT     C222138   4.558   3.956   8.425  0.1178  0.1577  0.0244
11070OCT     C122139   9.413  17.859  22.927  0.3483 -0.1780 -0.0223
11070OCT     C222140   9.437  17.814  23.404 -0.0907  0.1058 -0.0587
11071OCT     C122141  15.965  12.791  20.449  0.0338  0.0792  0.0571
11071OCT     C222142  15.544  13.019  20.501  0.0073  0.0189 -0.1786
11072OCT     C122143   3.802  17.119  11.015 -0.1025  0.0134 -0.2668
11072OCT     C222144   3.915  17.607  10.943  0.0537 -0.1969 -0.2349
11073OCT     C122145   5.556  12.652   3.268  0.0534 -0.0066 -0.1235
11073OCT     C222146   5.569  13.025   2.979 -0.2548 -0.1471  0.0842
11074OCT     C122147  14.879   2.465  19.279 -0.0606  0.1358 -0.2961
11074OCT     C222148  14.975   2.688  18.918  0.1047 -0.1437  0.2102
11075OCT     C122149  17.310   8.994  20.799  0.0543  0.1700  0.0663
11075OCT     C222150  17.101   8.714  20.415  0.0845 -0.1886  0.3883
11076OCT     C122151   6.069  10.732  13.092  0.1007 -0.0306 -0.0730
11076OCT     C222152   5.660  10.858  12.909 -0.2360 -0.3148  0.3873
11077OCT     C122153  18.337   7.698   3.386  0.0991 -0.0037  0.0808
11077OCT     C222154  18.761   7.846   3.549  0.3825 -0.1588 -0.3503
11078OCT     C122155  14.261  21.681  11.213 -0.0145 -0.3442  0.2065
11078OCT     C222156  14.763  21.725  11.292 -0.0509  0.3633  0.0730
11079OCT     C122157   1.817  23.079   8.662 -0.0058  0.2669  0.0266
11079OCT     C222158   1.808  22.951   8.191 -0.0165 -0.1967  0.2577
11080OCT     C122159   7.752   6.087  15.274 -0.1052  0.1756 -0.0433
11080OCT     C222160   8.152   6.165  15.206 -0.1996  0.4805 -0.1199
11081OCT     C122161  14.826  17.667   4.548 -0.2513 -0.0341 -0.0935
11081OCT     C222162  15.095  18.013   4.731 -0.0551 -0.3112 -0.1152
11082OCT     C122163  15.774  11.300  18.165  0.3741 -0.2483  0.0934
11082OCT     C222164  15.454  11.016  18.022  0.0235  0.1099  0.0313
11083OCT     C122165   6.577   2.772   3.448 -0.0276 -0.0417  0.3667
11083OCT     C222166   6.235   3.120   3.457  0.2311  0.1166  0.0254
11084OCT     C122167  10.308  20.642   1.435  0.3913 -0.2122 -0.3630
11084OCT     C222168  10.218  21.120   1.570 -0.3725 -0.1315 -0.0062
11085OCT     C122169  11.140  13.270   0.074  0.2340 -0.2417  0.2610
11085OCT     C222170  10.774  13.166   0.339 -0.0711  0.2493 -0.1347
11086OCT     C122171   1.036  10.144   5.470 -0.1868  0.0602  0.0698
11086OCT     C222172   1.106  10.327   5.018  0.1372 -0.0808 -0.1382
11087OCT     C122173  16.549   5.357  20.351 -0.0632  0.2769 -0.3607
11087OCT     C222174  16.330   5.790  20.459  0.0780 -0.1380  0.3474
11088OCT     C122175   8.148  11.948  12.958 -0.0141 -0.0680 -0.0969
11088OCT     C222176   7.677  12.163  13.067  0.0783  0.3490 -0.0333
11089OCT     C122177   5.631  14.608  23.266  0.0338 -0.3733  0.0837
11089OCT     C222178   5.951  14.439  22.992 -0.0773 -0.0316 -0.0901
11090OCT     C122179  14.515   5.144  18.268 -0.1457 -0.0271  0.3494
11090OCT     C222180  14.738   5.389  17.897  0.1943  0.0423 -0.1206
11091OCT     C122181  14.068  20.368   0.086 -0.0737 -0.2943 -0.0160
11091OCT     C222182  13.933  20.231   0.532 -0.0971  0.0322  0.0119
11092OCT     C122183   7.158   3.375  13.214  0.1409 -0.2251  0.0833
11092OCT     C222184   7.219   3.212  12.788 -0.0785  0.3205  0.1005
11093OCT     C122185   7.941  21.940  15.603  0.3703 -0.2028  0.1946
11093OCT     C222186   8.312  22.102  15.834 -0.2988  0.3785 -0.0202
11094OCT     C122187  20.041  20.295  14.258  0.1058 -0.1255 -0.0265
11094OCT     C222188  19.664  20.495  14.519 -0.1120 -0.0683 -0.0262
11095OCT     C122189   5.293  11.309  17.503  0.4081 -0.1557  0.0793
11095OCT     C222190   5.302  11.336  17.992 -0.3806  0.1318  0.1094
11096OCT     C122191   4.024  14.995  15.376  0.1143  0.0600 -0.2044
11096OCT     C222192   3.662  15.196  15.269  0.1728  0.2131  0.1717
11097OCT     C122193  19.734  20.044   7.951  0.1929 -0.1864  0.1034
11097OCT     C222194  19.832  19.874   7.544  0.4655  0.2554  0.0021
11098OCT     C122195  13.326  10.469  15.487  0.1201  0.5027  0.0653
11098OCT     C222196  13.785  10.457  15.480  0.1391 -0.0578 -0.3268
11099OCT     C122197   3.861  18.276  20.862  0.0209 -0.1140  0.0022
11099OCT     C222198   3.827  17.800  21.012  0.1826  0.0646  0.1543
11100OCT     C122199   3.906  16.642  20.299  0.0361  0.0945 -0.1600
11100OCT     C222200   4.095  16.921  20.681 -0.2105 -0.4326  0.1909
11101OCT     C122201  14.362   6.372   0.736  0.0496 -0.0224 -0.1510
11101OCT     C222202  14.357   6.738   1.053  0.0598 -0.0797  0.1089
11102OCT     C122203  18.795   3.865  18.640  0.0896  0.0784  0.0739
11102OCT     C222204  18.526   4.282  18.744  0.2067 -0.1541 -0.1893
11103OCT     C122205  15.981   5.094   3.915 -0.3686  0.0994 -0.1357
11103OCT     C222206  16.218   5.278   3.476 -0.1785 -0.1010  0.0969
11104OCT     C122207   6.551   8.577  20.605  0.1769 -0.1528 -0.3405
11104OCT     C222208   6.246   8.889  20.438 -0.1546  0.0202 -0.0775
11105OCT     C122209   8.700  16.647   4.850 -0.4442 -0.1143 -0.1267
11105OCT     C222210   9.106  16.520   4.698 -0.1834 -0.2079  0.2046
11106OCT     C122211   1.919  14.296   8.311 -0.1200  0.0394 -0.0082
11106OCT     C222212   2.152  13.920   8.390  0.5949 -0.2056 -0.1737
11107OCT     C122213   4.781  23.207  17.385 -0.0949 -0.4195 -0.0683
11107OCT     C222214   4.322  23.292  17.191  0.3159 -0.3067  0.2181
11108OCT     C122215   0.961  17.514  21.291 -0.1576 -0.1146  0.0772
11108OCT     C222216   0.816  17.091  21.222  0.1458 -0.0798  0.2310
11109OCT     C122217  19.462   1.462  17.194  0.1780  0.0169  0.2118
11109OCT     C222218  19.018   1.699  17.299 -0.3053 -0.0391 -0.0280
11110OCT     C122219  20.492   5.761   8.347 -0.1765  0.3146  0.2189
11110OCT     C222220  20.601   5.831   7.885  0.0978 -0.2523 -0.1772
11111OCT     C122221   4.242  17.488  17.870 -0.0950 -0.0191 -0.1803
11111OCT     C222222   4.240  17.082  17.668 -0.2738 -0.1834 -0.1301
11112OCT     C122223   0.936  19.358  21.190 -0.1387  0.1731  0.0281
11112OCT     C222224   1.384  19.191  21.281  0.0740 -0.1620  0.3953
11113OCT     C122225   7.175   1.261  13.726  0.0418 -0.1586 -0.0745
11113OCT     C222226   7.507   0.934  13.706  0.2759 -0.0633 -0.0825
11114OCT     C122227  13.706  19.055  13.785  0.2767 -0.0727  0.1344
11114OCT     C222228  13.758  18.728  14.108 -0.0050  0.0975 -0.0917
11115OCT     C122229  21.190  20.999  17.474 -0.0373  0.1831 -0.1380
11115OCT     C222230  21.522  21.047  17.138 -0.0462 -0.0812  0.2461
11116OCT     C122231  17.468  22.371  19.497  0.2436  0.3543  0.0362
11116OCT     C222232  17.384  22.803  19.426  0.0472  0.2746  0.0033
11117OCT     C122233   4.085   8.664  22.196 -0.0451 -0.0622  0.1122
11117OCT     C222234   4.408   8.885  21.908  0.0472 -0.1957  0.0834
11118OCT     C122235   8.944  14.490   5.854  0.1444  0.1409  0.1416
11118OCT     C222236   8.473  14.478   5.918 -0.1540  0.1350  0.1077
11119OCT     C122237  14.036  11.789   7.854  0.4639  0.4102  0.0181
11119OCT     C222238  14.345  11.710   7.535 -0.3748 -0.0421  0.0349
11120OCT     C122239  15.422   8.980   6.990  0.2422  0.3352 -0.0515
11120OCT     C222240  15.221   8.608   7.095 -0.0946  0.2032 -0.1899
11121OCT     C122241   5.452   7.044  14.205  0.0770 -0.0083 -0.2089
11121OCT     C222242   5.680   6.789  13.855  0.3433 -0.1871  0.3876
11122OCT     C122243  16.900  13.020  16.977  0.3566  0.3086 -0.0681
11122OCT     C222244  17.256  13.076  17.299 -0.0671 -0.0710 -0.2044
11123OCT     C122245  14.641   9.930  15.828 -0.2556 -0.1704 -0.0814
11123OCT     C222246  14.944  10.191  15.517  0.0107 -0.4034 -0.3129
11124OCT     C122247  10.511  21.701  20.461 -0.1928  0.1007  0.0113
11124OCT     C222248  10.267  21.547  20.114 -0.0294 -0.2518  0.5409
11125OCT     C122249  17.111  10.261   6.008  0.0819 -0.0456 -0.1100
11125OCT     C222250  17.099  10.593   6.335 -0.3681  0.0139 -0.4382
11126OCT     C122251  23.143   0.157  13.863  0.1671 -0.5270  0.1759
11126OCT     C222252  23.521   0.280  13.796 -0.2316  0.3622 -0.1146
11127OCT     C122253  17.105  12.422  15.329  0.0261 -0.4945 -0.2931
11127OCT     C222254  16.851  12.394  14.957 -0.0978  0.1045 -0.2217
11128OCT     C122255   1.154  15.818  15.750  0.1593  0.1192  0.2164
11128OCT     C222256   1.309  15.464  15.518  0.3313 -0.0017 -0.0119
11129OCT     C122257  13.021   8.242  21.249 -0.0404 -0.4330  0.2424
11129OCT     C222258  13.433   8.295  21.457 -0.2077  0.3113 -0.2643
11130OCT     C122259  12.192   6.618   3.922  0.0023 -0.1085 -0.1314
11130OCT     C222260  12.045   6.792   3.501  0.0490  0.1039 -0.1322
11131OCT     C122261  14.141   9.416  17.158 -0.2324  0.0290  0.1591
11131OCT     C222262  14.137   9.151  16.732  0.1239  0.1027 -0.2975
11132OCT     C122263   2.241   7.438   0.203  0.1390 -0.1086  0.0786
11132OCT     C222264   2.089   7.193  23.586 -0.2437  0.1708 -0.1190
11133OCT     C122265  22.212   2.328  13.760 -0.3009  0.2981  0.3569
11133OCT     C222266  21.869   2.297  14.042  0.1248  0.0640  0.0278
11134OCT     C122267   0.137  10.712  17.101  0.0262 -0.0515  0.1733
11134OCT     C222268  23.567  10.595  17.416 -0.1320  0.1722  0.1889
11135OCT     C122269   0.859   8.709   1.822 -0.3608  0.1813  0.3184
11135OCT     C222270   0.900   9.147   1.929 -0.1269 -0.3613  0.0521
11136OCT     C122271   8.072  13.823  14.400  0.2914  0.5393  0.1620
11136OCT     C222272   8.461  13.738  14.200  0.1436  0.0349  0.0765
11137OCT     C122273  20.476  14.359  13.926 -0.2435 -0.0409  0.0512
11137OCT     C222274  20.195  14.442  14.310  0.1506 -0.1706  0.1028
11138OCT     C122275  20.077   3.765  18.236  0.1343 -0.1006  0.1749
11138OCT     C222276  19.688   3.691  18.428  0.2540  0.3898 -0.0562
11139OCT     C122277  19.733   0.674   3.848  0.2749  0.1038 -0.2095
11139OCT     C222278  19.457   1.051   3.834  0.0358  0.2630  0.0023
11140OCT     C122279  12.638   5.437   7.894  0.2530 -0.2628 -0.1153
11140OCT     C222280  12.328   5.811   7.863 -0.2450  0.2452 -0.2610
11141OCT     C122281  11.192  14.863   8.419 -0.0759 -0.1836  0.4968
11141OCT     C222282  11.358  15.159   8.682  0.1550 -0.2027 -0.0823
11142OCT     C122283  11.117  13.501   6.592  0.4380 -0.0725 -0.1967
11142OCT     C222284  11.515  13.770   6.568  0.2164  0.0584  0.0418
11143OCT     C122285  21.491  18.100   2.247  0.2399 -0.0988  0.1943
11143OCT     C222286  21.464  17.668   2.477 -0.0832 -0.1884  0.0831
11144OCT     C122287   0.207  13.270   5.683 -0.1123  0.0035 -0.0397
11144OCT     C222288  23.660  13.337   6.059  0.0196 -0.0773  0.0319
11145OCT     C122289  16.085  12.696  21.891 -0.0484 -0.2076 -0.5976
11145OCT     C222290  15.999  12.698  21.430  0.1450 -0.3202  0.3976
11146OCT     C122291  22.640  13.029   4.963 -0.3076  0.0695  0.1808
11146OCT     C222292  23.032  13.131   4.811 -0.2595  0.1539  0.0995
11147OCT     C122293   5.439  13.883  19.050 -0.1703 -0.1735  0.2155
11147OCT     C222294   5.369  13.532  19.317  0.1906 -0.1314  0.3246
11148OCT     C122295  16.296   5.685  17.645 -0.3081 -0.2280  0.2221
11148OCT     C222296  16.683   5.772  17.319 -0.0487 -0.1085  0.4514
11149OCT     C122297  18.117  13.670  22.280  0.0888  0.3023  0.2337
11149OCT     C222298  17.823  13.524  22.629  0.1508 -0.1359  0.0055
11150OCT     C122299  13.854  15.715  11.821 -0.0552 -0.0274  0.1863
11150OCT     C222300  14.173  16.067  11.940  0.3587  0.1687 -0.0918
11151OCT     C122301   1.541  16.334  18.649  0.0973  0.0186  0.2804
11151OCT     C222302   1.503  16.397  18.176 -0.0876 -0.0025 -0.0544
11152OCT     C122303  10.817   7.459  13.520 -0.0055 -0.0416  0.0279
11152OCT     C222304  10.723   7.681  13.885 -0.1222  0.3978  0.2423
11153OCT     C122305  18.618   3.690  14.250 -0.2398  0.1754 -0.1235
11153OCT     C222306  18.755   4.151  14.232 -0.0354 -0.0873 -0.1341
11154OCT     C122307  20.835  21.891  21.194  0.0073 -0.0908  0.5498
11154OCT     C222308  20.854  21.480  20.916  0.0006 -0.2009  0.5340
11155OCT     C122309   2.508  11.729  10.202  0.1743  0.2489 -0.3983
11155OCT     C222310   2.923  11.598  10.283 -0.1055 -0.1457 -0.3272
11156OCT     C122311   2.573   9.345   4.741  0.0624  0.1435  0.1982
11156OCT     C222312   2.389   8.921   4.665  0.0295  0.0398 -0.1525
11157OCT     C122313  23.389  10.699  12.974 -0.0942  0.1467  0.2574
11157OCT     C222314  23.577  10.730  13.381 -0.2186  0.2303 -0.3467
11158OCT     C122315  15.566   3.267   1.770 -0.2144  0.0992 -0.0089
11158OCT     C222316  15.964   3.384   1.543  0.2423  0.1981  0.1186
11159OCT     C122317  16.305   4.606  11.342  0.5150  0.0390 -0.1321
11159OCT     C222318  16.531   5.053  11.354  0.0095  0.2497  0.3064
11160OCT     C122319  10.663  22.113   5.312  0.2258  0.1000  0.1808
11160OCT     C222320  10.216  22.248   5.381  0.1173 -0.2311 -0.0951
11161OCT     C122321  16.899   7.508  11.859  0.0050  0.0328  0.2072
11161OCT     C222322  16.674   7.160  11.631 -0.0355 -0.2242  0.2699
11162OCT     C122323  21.234  18.082  18.683 -0.2199 -0.5129 -0.0819
11162OCT     C222324  21.562  17.832  18.488 -0.3283  0.1988 -0.4125
11163OCT     C122325  19.552   4.784  13.850  0.0897  0.1435 -0.0805
11163OCT     C222326  19.560   4.543  14.266 -0.0249 -0.0840 -0.0431
11164OCT     C122327  21.025  14.502  22.331 -0.1537 -0.0809  0.1488
11164OCT     C222328  21.247  14.521  21.885  0.0455  0.2473 -0.3449
11165OCT     C122329   9.152   7.756  11.091 -0.1057 -0.1159 -0.1341
11165OCT     C222330   8.765   7.814  10.897  0.1241  0.2518 -0.0301
11166OCT     C122331   7.839   8.628  15.415  0.3392  0.1873  0.0223
11166OCT     C222332   7.968   9.043  15.650 -0.1026  0.0583 -0.1552
11167OCT     C122333   3.066  14.184   1.047  0.4550  0.0942  0.3074
11167OCT     C222334   3.081  14.632   0.896 -0.1125  0.2732 -0.0957
11168OCT     C122335   9.295  22.099   9.097  0.0978 -0.1605  0.1995
11168OCT     C222336   9.424  21.821   8.749 -0.0551 -0.4387 -0.1085
11169OCT     C122337  14.622   5.280  10.241  0.0706 -0.6566  0.0055
11169OCT     C222338  14.429   5.685  10.393  0.2107 -0.1694  0.0565
11170OCT     C122339  16.104   0.833  18.609 -0.3214  0.0604 -0.2186
11170OCT     C222340  15.957   0.461  18.370  0.1217 -0.2229 -0.0498
11171OCT     C122341   2.048  23.061  12.989  0.2393 -0.0080  0.0317
11171OCT     C222342   2.160  23.350  13.361 -0.1506 -0.3700 -0.2514
11172OCT     C122343  19.673   4.310   8.074 -0.0474  0.0825 -0.0558
11172OCT     C222344  19.760   4.020   7.682  0.1706  0.0657  0.1285
11173OCT     C122345   5.911  14.505  22.126  0.1080 -0.2395  0.0603
11173OCT     C222346   6.168  14.750  21.849 -0.1322  0.1671  0.0606
11174OCT     C122347  17.049  17.188   4.912 -0.3687 -0.0293 -0.1967
11174OCT     C222348  17.458  17.005   5.063 -0.4953  0.0415  0.1910
11175OCT     C122349  19.192   5.989  18.754 -0.0718  0.0936  0.5134
11175OCT     C222350  18.828   5.994  18.430 -0.2226  0.0658  0.0827
11176OCT     C122351   9.148   7.855   5.482 -0.2747 -0.0133 -0.1325
11176OCT     C222352   8.837   7.579   5.752 -0.0722 -0.2632 -0.5851
11177OCT     C122353  15.521   8.688   9.782  0.3504  0.3635  0.0398
11177OCT     C222354  15.449   8.231   9.901  0.0190  0.2586 -0.2009
11178OCT     C122355   1.595   8.489   4.666 -0.0231  0.1659 -0.2525
11178OCT     C222356   1.845   8.062   4.615  0.0638 -0.2900  0.1522
11179OCT     C122357  23.248  11.356   3.853 -0.0696 -0.1025  0.0381
11179OCT     C222358  23.079  11.198   3.392 -0.0403 -0.2183  0.1955
11180OCT     C122359  20.633  16.430  19.581 -0.2084 -0.1713 -0.2553
11180OCT     C222360  20.735  16.896  19.457  0.0326 -0.1587 -0.1584
11181OCT     C122361  22.131   1.418  10.256 -0.2189 -0.1099  0.1035
11181OCT     C222362  21.926   1.171   9.951  0.7170 -0.3205 -0.0386
11182OCT     C122363  16.161   6.566   7.325  0.2048 -0.0414 -0.0958
11182OCT     C222364  15.893   6.726   7.702 -0.4700  0.0530  0.0014
11183OCT     C122365  19.802   1.700  12.567  0.0781 -0.2842  0.0082
11183OCT     C222366  19.559   1.323  12.601  0.0475  0.0096  0.0384
11184OCT     C122367   6.788   7.195  18.527 -0.0558 -0.1036 -0.0736
11184OCT     C222368   6.413   6.945  18.386 -0.0031  0.1264  0.3410
11185OCT     C122369   9.821  17.259   8.380  0.2707 -0.0211 -0.1057
11185OCT     C222370  10.111  17.480   8.107  0.0389  0.1625 -0.6486
11186OCT     C122371  13.442  20.657  23.677 -0.0080  0.1889  0.2393
11186OCT     C222372  13.024  20.544  23.576  0.3211 -0.0150 -0.4032
11187OCT     C122373  22.061  15.200   3.519 -0.0322  0.0068 -0.0435
11187OCT     C222374  21.897  15.196   3.909  0.0867  0.2279 -0.3542
11188OCT     C122375  17.800   6.365   3.552 -0.0816 -0.0149 -0.0083
11188OCT     C222376  17.594   6.380   3.926 -0.1017 -0.7406 -0.2424
11189OCT     C122377  15.083   7.485   6.749 -0.0235 -0.0243  0.3888
11189OCT     C222378  15.080   7.192   7.155 -0.1850  0.0315  0.0087
11190OCT     C122379  14.812   8.198  10.778 -0.2616  0.0735  0.0648
11190OCT     C222380  15.253   8.260  10.633  0.1910 -0.2184  0.0738
11191OCT     C122381   1.966  12.673  15.305 -0.2587 -0.0322  0.1184
11191OCT     C222382   1.525  12.686  15.533 -0.2783 -0.2878 -0.4643
11192OCT     C122383   6.016  20.344  10.741 -0.3554  0.1567  0.1267
11192OCT     C222384   5.591  20.329  10.691  0.2495 -0.1441  0.0656
11193OCT     C122385  11.374   6.502   7.479 -0.1428 -0.0187  0.3305
11193OCT     C222386  11.837   6.460   7.618  0.1606  0.3117 -0.1214
11194OCT     C122387  13.240   3.242  12.922  0.1833  0.1442  0.0006
11194OCT     C222388  12.775   3.070  12.846  0.0789 -0.0315  0.2417
11195OCT     C122389   1.533   3.490  17.973  0.1262 -0.2886  0.0470
11195OCT     C222390   1.770   3.620  17.552 -0.1439 -0.2252 -0.5016
11196OCT     C122391   8.140  18.589   2.429  0.0948 -0.0631  0.3369
11196OCT     C222392   8.485  18.303   2.495  0.2617  0.0867 -0.1436
11197OCT     C122393  16.794   8.116  14.999 -0.2202 -0.0599 -0.1433
11197OCT     C222394  16.723   7.830  15.393  0.3622 -0.2167 -0.1642
11198OCT     C122395  19.266   7.664   5.290  0.3073 -0.2140  0.2868
11198OCT     C222396  18.911   7.942   5.109 -0.1170  0.4006 -0.1480
11199OCT     C122397   7.230  10.497   9.992 -0.0230 -0.4618 -0.1309
11199OCT     C222398   7.583  10.420   9.639 -0.1150  0.1098  0.1919
11200OCT     C122399   4.357  12.435   6.286  0.0426 -0.0149 -0.3812
11200OCT     C222400   4.125  12.151   5.915 -0.1557 -0.2486 -0.0562
11201OCT     C122401  21.842  20.618   6.803 -0.2875 -0.0981 -0.2502
11201OCT     C222402  22.044  20.204   6.689  0.2181 -0.1453 -0.0316
11202OCT     C122403  17.161  11.046   5.191  0.0074  0.2037  0.3039
11202OCT     C222404  17.218  10.719   5.549 -0.1360  0.0080  0.2349
11203OCT     C122405   1.912  10.471   4.060 -0.3972 -0.0073  0.0628
11203OCT     C222406   1.509  10.315   4.063  0.0281 -0.0612  0.0110
11204OCT     C122407  19.262  16.766   1.031  0.2444 -0.0449  0.2160
11204OCT     C222408  19.440  17.197   1.077 -0.4527 -0.2389 -0.0653
11205OCT     C122409  22.216   9.973  12.278  0.2409  0.0567  0.1968
11205OCT     C222410  21.938  10.335  12.387  0.1609 -0.0375  0.0378
11206OCT     C122411   9.419   1.285  16.556 -0.0427  0.1851 -0.0858
11206OCT     C222412   9.320   1.124  16.916 -0.0613 -0.2611  0.3139
11207OCT     C122413   6.854  23.697   6.476  0.0324 -0.2253 -0.1672
11207OCT     C222414   6.379  23.730   6.425 -0.0962 -0.2623 -0.2817
11208OCT     C122415  15.537  21.494  10.297 -0.3014  0.0948  0.0160
11208OCT     C222416  16.044  21.455  10.327 -0.2632  0.2397 -0.0367
11209OCT     C122417  22.401  13.266   5.979  0.0334 -0.0070  0.0377
11209OCT     C222418  22.587  12.921   6.233  0.3579 -0.1963  0.3403
11210OCT     C122419  17.593  11.815  12.626  0.0534  0.1099 -0.1540
11210OCT     C222420  17.720  12.157  12.333 -0.3039 -0.0825 -0.1050
11211OCT     C122421   4.595   0.377   9.434  0.2035  0.3340  0.1201
11211OCT     C222422   4.774   0.157   9.808  0.4710  0.1317  0.1249
11212OCT     C122423  19.656  19.020   4.541 -0.1007  0.0767 -0.1714
11212OCT     C222424  19.296  19.277   4.691 -0.0010 -0.2227  0.2984
11213OCT     C122425  12.814  13.995  22.792  0.2424  0.0916 -0.1585
11213OCT     C222426  13.089  14.393  22.836 -0.1048 -0.0035  0.0661
11214OCT     C122427  20.144   6.391  12.444 -0.1070 -0.5637  0.0111
11214OCT     C222428  20.348   6.724  12.165 -0.0370  0.1360 -0.1361
11215OCT     C122429   2.053   9.266  15.170  0.3154 -0.3206  0.0273
11215OCT     C222430   1.568   9.229  15.124 -0.1096 -0.0904  0.1748
11216OCT     C122431  20.012  22.004  10.263 -0.1848 -0.3869 -0.0153
11216OCT     C222432  20.498  21.841  10.296  0.1576 -0.3156 -0.0118
11217OCT     C122433   9.106   3.422  21.873 -0.0133 -0.3470  0.0221
11217OCT     C222434   8.869   3.172  21.584 -0.3479  0.0599 -0.0438
11218OCT     C122435  18.349   9.092   2.374 -0.0586  0.2602 -0.4603
11218OCT     C222436  18.441   8.650   2.273 -0.1498  0.0495  0.0988
11219OCT     C122437   3.619  18.151   3.115 -0.1496  0.3151 -0.0487
11219OCT     C222438   3.185  18.191   3.096  0.0216 -0.3401  0.2739
11220OCT     C122439   1.483  17.115  13.606 -0.1772  0.1077  0.1422
11220OCT     C222440   1.702  17.567  13.645  0.0755 -0.0125  0.4810
11221OCT     C122441  12.558  20.720   0.928  0.1256  0.1618 -0.1855
11221OCT     C222442  12.310  21.115   0.939 -0.4646 -0.1368 -0.3309
11222OCT     C122443  13.966   5.269  19.605 -0.2819  0.1953  0.1034
11222OCT     C222444  14.181   5.669  19.671 -0.3646  0.1441 -0.3279
11223OCT     C122445  12.745  11.823   1.625 -0.1594  0.5085 -0.1719
11223OCT     C222446  12.337  12.067   1.546  0.0409 -0.1262  0.0095
11224OCT     C122447  11.812  13.225  20.038  0.2721 -0.0195  0.2533
11224OCT     C222448  12.055  12.955  20.260  0.2524 -0.0023  0.4544
11225OCT     C122449  14.035   4.037  15.325  0.0564 -0.0718  0.2920
11225OCT     C222450  13.643   3.801  15.185  0.2591  0.1068 -0.0478
11226OCT     C122451  23.659  11.467  21.815 -0.0212 -0.1954 -0.2935
11226OCT     C222452  23.615  11.820  21.517 -0.4094 -0.0929  0.0295
11227OCT     C122453   0.143   1.850  16.022  0.1291  0.4487  0.1039
11227OCT     C222454  23.528   2.185  15.953 -0.2984  0.4651 -0.0460
11228OCT     C122455   9.330  12.263   1.298 -0.3292  0.0101 -0.3783
11228OCT     C222456   9.420  11.846   1.225 -0.3876  0.1136 -0.2253
11229OCT     C122457  19.354   8.596   2.529 -0.3030 -0.0538 -0.0573
11229OCT     C222458  19.689   8.925   2.386  0.3199  0.0437 -0.0583
11230OCT     C122459  15.683  21.554   5.368 -0.1085 -0.3030 -0.1303
11230OCT     C222460  15.801  21.117   5.443 -0.3197  0.0343 -0.3115
11231OCT     C122461   5.038  22.039   6.833 -0.5249  0.1832 -0.1109
11231OCT     C222462   5.248  21.723   6.577 -0.2007  0.1431 -0.0274
11232OCT     C122463  19.403   1.224  15.078 -0.1749 -0.5221  0.3700
11232OCT     C222464  19.296   1.081  15.500 -0.1323  0.2630  0.1608
11233OCT     C122465   3.532  18.578   5.956  0.2279 -0.1615 -0.2195
11233OCT     C222466   3.152  18.632   6.212  0.1601  0.1082  0.2607
11234OCT     C122467  11.785  11.457  20.312 -0.5155  0.1982  0.0868
11234OCT     C222468  11.653  11.041  20.080 -0.0826  0.0848  0.3681
11235OCT     C122469   4.363  22.928   0.261 -0.1790  0.1178  0.1859
11235OCT     C222470   4.444  22.590   0.584 -0.1048 -0.3643  0.2398
11236OCT     C122471  12.116   6.328  11.754  0.0285  0.2243 -0.2958
11236OCT     C222472  12.558   6.347  11.561 -0.0031 -0.0301 -0.3818
11237OCT     C122473   3.577  12.066  20.102 -0.2177 -0.2582  0.2873
11237OCT     C222474   3.582  12.518  20.175 -0.1027  0.2746 -0.0624
11238OCT     C122475  21.637   3.321  17.337 -0.2606  0.2790 -0.1092
11238OCT     C222476  21.320   3.243  17.643  0.1605 -0.0322  0.2664
11239OCT     C122477  16.574   4.283  17.332  0.1260  0.0032 -0.0786
11239OCT     C222478  16.154   4.220  17.389  0.0073 -0.0723 -0.0381
11240OCT     C122479  19.105  17.783   3.563  0.4303 -0.4473  0.0960
11240OCT     C222480  18.899  18.139   3.838  0.3430 -0.2122  0.1373
11241OCT     C122481  10.772   1.737   9.599 -0.1270  0.2650 -0.3788
11241OCT     C222482  10.590   1.332   9.757 -0.1790  0.2741 -0.0944
11242OCT     C122483  22.211  16.858  14.822  0.2384 -0.2907 -0.1544
11242OCT     C222484  22.183  16.474  15.105 -0.0090  0.1862 -0.0997
11243OCT     C122485   3.382  13.767  14.979 -0.0062 -0.1489  0.1127
11243OCT     C222486   3.266  13.835  15.446 -0.0340  0.2054  0.0822
11244OCT     C122487  19.374  16.719  22.961  0.0096  0.1497 -0.0604
11244OCT     C222488  19.297  17.131  22.769 -0.0294 -0.0344  0.4207
11245OCT     C122489   2.126  21.345  20.416 -0.2373 -0.0380  0.2903
11245OCT     C222490   2.561  21.435  20.662  0.1742  0.1666  0.0939
11246OCT     C122491  10.156  18.644   1.927  0.3172  0.0809  0.0076
11246OCT     C222492   9.949  19.069   2.048  0.0995  0.2900 -0.1521
11247OCT     C122493  12.027  18.138  14.283 -0.5461 -0.1741  0.2751
11247OCT     C222494  11.607  18.037  14.300  0.0063  0.1354  0.1715
11248OCT     C122495   1.502   8.454   6.571 -0.2381 -0.1469  0.0725
11248OCT     C222496   1.431   8.939   6.457  0.3166 -0.1087  0.2905
11249OCT     C122497   8.191  16.256  15.779 -0.0589  0.0953 -0.0261
11249OCT     C222498   8.114  16.187  16.226  0.3439 -0.2247  0.2154
11250OCT     C122499   5.041   1.335  20.373  0.0680 -0.0399 -0.0924
11250OCT     C222500   4.683   1.073  20.521 -0.0979 -0.3380 -0.4398
11251OCT     C122501  17.678   4.976  15.547 -0.1831 -0.0738 -0.0361
11251OCT     C222502  17.387   4.963  15.167  0.1544  0.1692  0.0002
11252OCT     C122503  23.172  11.772   2.269  0.0668 -0.1425 -0.1961
11252OCT     C222504  23.089  11.300   2.285  0.3652 -0.1483  0.1134
11253OCT     C122505  17.648   7.777   5.197 -0.3694 -0.0250  0.0860
11253OCT     C222506  17.461   7.835   4.769  0.4381  0.2514 -0.0864
11254OCT     C122507  13.002   5.865  10.875  0.1247  0.0507  0.0536
11254OCT     C222508  12.643   5.947  11.209 -0.2386  0.0766 -0.0874
11255OCT     C122509  16.262  16.515  18.724  0.2311  0.0617 -0.1564
11255OCT     C222510  16.566  16.330  19.061 -0.0107 -0.1081 -0.3929
11256OCT     C122511  10.299  11.626   7.416 -0.0038  0.0540  0.0085
11256OCT     C222512  10.168  11.967   7.709 -0.1212  0.0806 -0.4273
11257OCT     C122513  13.971   1.188  14.338 -0.0852 -0.2730  0.0480
11257OCT     C222514  13.939   1.440  14.668 -0.1561  0.1176  0.2380
11258OCT     C122515  17.139   5.213  10.856 -0.0994  0.0480  0.1403
11258OCT     C222516  17.314   5.356  11.276  0.1112 -0.3212 -0.1155
11259OCT     C122517  22.194  19.082   6.807  0.0772  0.1506 -0.0150
11259OCT     C222518  22.388  18.960   6.377  0.0003 -0.3024  0.0510
11260OCT     C122519   0.202  11.157  14.086 -0.0458  0.0752  0.3097
11260OCT     C222520   0.665  11.244  14.048  0.0956  0.0276 -0.0735
11261OCT     C122521  14.406  18.071   4.614  0.2642  0.1533 -0.1281
11261OCT     C222522  14.045  18.040   4.299 -0.1980  0.1114 -0.0440
11262OCT     C122523  13.980  13.775  11.638  0.0455 -0.2124 -0.0705
11262OCT     C222524  14.012  14.222  11.455  0.2174 -0.2078 -0.3438
11263OCT     C122525   0.702  21.544   7.596 -0.0952  0.0302 -0.3234
11263OCT     C222526   0.829  21.303   8.006  0.1473 -0.0415  0.0059
11264OCT     C122527  23.554  17.624   1.196 -0.4594 -0.4018  0.0932
11264OCT     C222528  23.178  17.478   1.033 -0.0433  0.1736  0.0472
11265OCT     C122529  17.891   8.990   6.015 -0.4649 -0.1573 -0.4513
11265OCT     C222530  17.696   9.249   5.700  0.0614 -0.0025 -0.1563
11266OCT     C122531   1.713  17.792  18.338 -0.3563  0.2137 -0.4367
11266OCT     C222532   1.735  17.693  17.921 -0.1496 -0.2434  0.1548
11267OCT     C122533   0.678  16.426   2.498 -0.2070  0.1648  0.1225
11267OCT     C222534   0.681  16.260   2.936 -0.2478  0.1368  0.4104
11268OCT     C122535  19.011   0.088  14.083 -0.1773  0.0070 -0.1982
11268OCT     C222536  18.862  23.474  13.797 -0.1283 -0.1686  0.0218
11269OCT     C122537  10.664  12.324   0.690  0.1431 -0.0391 -0.1063
11269OCT     C222538  10.269  12.238   0.354 -0.1215  0.0444  0.0755
11270OCT     C122539  22.474  15.200   3.971 -0.1101  0.0471  0.1044
11270OCT     C222540  22.820  14.954   3.987 -0.0409 -0.0127  0.0706
11271OCT     C122541  12.756   9.756  12.675 -0.0685  0.1852  0.0548
11271OCT     C222542  12.983  10.165  12.700  0.0822 -0.2592 -0.1776
11272OCT     C122543   1.172  15.978  19.666 -0.3970  0.3038  0.2011
11272OCT     C222544   1.484  16.220  19.988 -0.3141 -0.1008 -0.1577
11273OCT     C122545  21.683  15.551  11.150  0.1555  0.3026  0.1135
11273OCT     C222546  21.548  15.786  11.506 -0.2999 -0.1221 -0.0294
11274OCT     C122547  14.740  16.254  22.362  0.0330 -0.3985  0.1185
11274OCT     C222548  14.957  15.887  22.559  0.0412 -0.1366 -0.1171
11275OCT     C122549  16.521  18.905  16.966  0.0028 -0.1169 -0.2123
11275OCT     C222550  16.893  18.694  16.746  0.0227 -0.0135  0.3085
11276OCT     C122551  16.129   6.120   4.382 -0.2983 -0.1194 -0.1471
11276OCT     C222552  16.528   6.208   4.219  0.0987  0.0573  0.2415
11277OCT     C122553  16.176   5.860  12.320 -0.0163 -0.2387  0.1956
11277OCT     C222554  16.166   6.354  12.353 -0.2892 -0.1621 -0.4942
11278OCT     C122555  14.315  12.785  12.547  0.3244  0.0813  0.0673
11278OCT     C222556  13.891  12.945  12.766 -0.1074 -0.1109  0.4339
11279OCT     C122557   2.477  15.687   2.595  0.0262 -0.2300  0.0832
11279OCT     C222558   2.299  15.982   2.975 -0.1290  0.3071  0.3443
11280OCT     C122559   3.141   4.943  12.863 -0.3010  0.2772 -0.1387
11280OCT     C222560   3.394   4.822  13.267 -0.0598 -0.2153  0.0004
11281OCT     C122561   8.320  15.865  20.599 -0.0921 -0.1301 -0.1077
11281OCT     C222562   8.062  15.807  20.179  0.2653 -0.0325  0.1246
11282OCT     C122563  20.333   8.990   6.306  0.0887  0.0352 -0.0890
11282OCT     C222564  20.039   8.819   5.955  0.0546  0.1239 -0.1079
11283OCT     C122565  16.088   0.135  16.956 -0.1017 -0.1533  0.0441
11283OCT     C222566  16.069   0.216  16.485  0.4786 -0.0134 -0.2339
11284OCT     C122567   2.862   0.363  16.909 -0.1079 -0.1925  0.3107
11284OCT     C222568   3.149   0.668  16.991  0.2922  0.0998  0.0331
11285OCT     C122569   4.377  18.585  18.224 -0.1106 -0.3581  0.2209
11285OCT     C222570   4.442  19.053  18.323 -0.1149 -0.1091  0.1116
11286OCT     C122571  18.525   2.714  17.728 -0.1307 -0.2290 -0.1973
11286OCT     C222572  18.891   2.995  17.672 -0.1971  0.0298  0.0834
11287OCT     C122573   4.197  16.687  12.717 -0.2190  0.1590 -0.3175
11287OCT     C222574   3.910  17.029  12.634 -0.4089  0.1287 -0.1059
11288OCT     C122575  20.968   1.910   5.957  0.1859 -0.0159 -0.1348
11288OCT     C222576  20.548   1.924   5.723  0.2121 -0.7242 -0.0301
11289OCT     C122577   5.115  11.806  18.914  0.0717  0.0228  0.2143
11289OCT     C222578   4.949  11.974  18.477  0.1228  0.1579 -0.0610
11290OCT     C122579  20.281  19.394  23.391  0.0644  0.1148  0.2090
11290OCT     C222580  20.718  19.356  23.335 -0.0177  0.2046 -0.3101
11291OCT     C122581  11.086   9.051  13.515 -0.0897 -0.0694 -0.2303
11291OCT     C222582  11.317   9.477  13.594  0.2963  0.2883 -0.1775
11292OCT     C122583   9.557  14.996  23.109  0.2568  0.2713  0.2267
11292OCT     C222584   9.456  15.295  23.400  0.0639  0.2703 -0.1184
11293OCT     C122585   3.053  12.808   1.420  0.0454  0.4083 -0.2047
11293OCT     C222586   3.217  12.375   1.217  0.0978  0.2260  0.2942
11294OCT     C122587   6.705   6.860  16.847 -0.3226  0.1118 -0.0371
11294OCT     C222588   7.099   6.998  16.718  0.0836  0.1929 -0.1443
11295OCT     C122589   6.072   3.975   8.591  0.3133  0.0657  0.2089
11295OCT     C222590   6.142   4.425   8.603  0.1390  0.0885  0.3808
11296OCT     C122591   9.262   8.417   2.109  0.4664  0.1865 -0.1638
11296OCT     C222592   9.537   8.156   1.834 -0.2657 -0.0167  0.0216
11297OCT     C122593  15.566   3.648   0.762 -0.3341  0.1171 -0.1081
11297OCT     C222594  15.714   3.223   0.556  0.1581 -0.8468  0.1551
11298OCT     C122595  10.639   2.584   1.746  0.1596 -0.1968 -0.3192
11298OCT     C222596  10.878   2.202   1.674  0.4577  0.0872  0.0529
11299OCT     C122597  19.428  23.025  11.726 -0.0025 -0.0627  0.3847
11299OCT     C222598  19.231  23.259  12.142  0.1509 -0.1038  0.0761
11300OCT     C122599  17.688   6.919  20.321 -0.3739 -0.1643  0.1849
11300OCT     C222600  17.758   7.407  20.246  0.1177  0.0029  0.1647
11301OCT     C122601   0.151  20.017   7.512 -0.1569  0.1625 -0.0248
11301OCT     C222602   0.241  20.129   7.964 -0.0683 -0.1385  0.0656
11302OCT     C122603   1.419  18.708  14.347 -0.2266  0.0115  0.2620
11302OCT     C222604   1.220  19.036  14.092 -0.0034  0.3914 -0.0424
11303OCT     C122605  18.433   5.504  22.074 -0.0204 -0.1235  0.0929
11303OCT     C222606  18.276   5.451  21.635 -0.1082 -0.0610 -0.2944
11304OCT     C122607  12.843  16.456  12.861  0.3437 -0.2407 -0.0964
11304OCT     C222608  13.256  16.666  12.758  0.0285 -0.3323  0.2465
11305OCT     C122609   8.198   9.713   8.492  0.0576  0.3064 -0.6077
11305OCT     C222610   8.422   9.505   8.095  0.0475 -0.0281 -0.2250
11306OCT     C122611  18.833  20.691  13.490  0.0036  0.1681  0.1836
11306OCT     C222612  19.080  20.695  13.914 -0.0323 -0.1089 -0.1758
11307OCT     C122613  14.640  23.363  23.553  0.1939  0.1611 -0.2722
11307OCT     C222614  14.228  23.175  23.549  0.0280 -0.0832  0.2573
11308OCT     C122615   0.026   1.210  17.884 -0.0067 -0.0759  0.0051
11308OCT     C222616   0.009   1.536  17.562 -0.1800 -0.2530 -0.0735
11309OCT     C122617  12.346  11.985  16.784  0.0941 -0.1551 -0.1292
11309OCT     C222618  12.659  11.690  16.587 -0.0640  0.1603  0.0688
11310OCT     C122619  10.483  15.693  22.738 -0.2090  0.0548 -0.0111
11310OCT     C222620  10.171  15.373  22.679 -0.0626  0.0606  0.1437
11311OCT     C122621   1.513  13.527   5.737 -0.2103 -0.1152  0.1605
11311OCT     C222622   1.478  13.999   5.843 -0.1248  0.3025  0.3516
11312OCT     C122623   9.790  14.360  12.171 -0.1836 -0.1142 -0.2236
11312OCT     C222624  10.157  14.193  12.346  0.2975  0.0167 -0.0265
11313OCT     C122625   7.901   5.029  23.066  0.1260  0.0582  0.0080
11313OCT     C222626   7.698   5.214  22.685 -0.0654  0.0903 -0.0934
11314OCT     C122627   5.482   5.021   4.310  0.2692 -0.2535  0.3269
11314OCT     C222628   5.894   4.912   4.333 -0.0294  0.2552 -0.1973
11315OCT     C122629   7.615  16.206   5.407 -0.0870 -0.0624 -0.3550
11315OCT     C222630   7.757  15.778   5.352 -0.0426 -0.4513 -0.1031
11316OCT     C122631   8.517  13.647   8.049 -0.1479  0.0623  0.2369
11316OCT     C222632   8.294  13.295   8.255  0.0366  0.0520  0.1566
11317OCT     C122633  18.295  18.865   7.159  0.1425 -0.0446 -0.0754
11317OCT     C222634  18.358  19.080   6.706 -0.0850 -0.2972 -0.0658
11318OCT     C122635  15.428   2.080  15.675  0.2473  0.0747 -0.0685
11318OCT     C222636  15.006   2.017  15.922  0.2268  0.0745 -0.4853
11319OCT     C122637   1.212  16.592   0.402 -0.1260 -0.1506  0.3248
11319OCT     C222638   1.169  16.388   0.003  0.0881  0.0619  0.6753
11320OCT     C122639  21.806   3.777   5.427 -0.0397 -0.2548 -0.0545
11320OCT     C222640  21.716   3.358   5.488  0.2061  0.0564  0.0065
11321OCT     C122641  14.778   0.350  11.206  0.1062 -0.2612  0.0746
11321OCT     C222642  14.392   0.284  11.493  0.0744 -0.1840  0.0920
11322OCT     C122643   2.713   3.860   9.295  0.1883 -0.0505  0.0010
11322OCT     C222644   2.485   3.768   8.846  0.1632  0.1305 -0.0143
11323OCT     C122645  12.742   0.976   6.096 -0.0462  0.2180 -0.2582
11323OCT     C222646  13.254   1.010   6.116 -0.2292  0.1326 -0.2161
11324OCT     C122647   0.395   8.004   8.976  0.0235  0.1404 -0.2520
11324OCT     C222648   0.845   8.096   8.905  0.0347  0.0997 -0.3229
11325OCT     C122649   1.647  11.854  12.723  0.0654 -0.2653 -0.0431
11325OCT     C222650   2.001  11.562  12.921  0.1137  0.2186  0.1588
11326OCT     C122651   7.094   7.585  11.820 -0.0553  0.2791  0.1955
11326OCT     C222652   7.537   7.552  11.970  0.2980  0.2906 -0.1388
11327OCT     C122653   2.852   8.749   3.485  0.1545  0.0949 -0.1325
11327OCT     C222654   2.963   9.009   3.843 -0.2814  0.0896 -0.3780
11328OCT     C122655  21.201   4.964   2.608  0.2651 -0.1546  0.0300
11328OCT     C222656  21.563   4.893   2.314 -0.3371 -0.3472 -0.2014
11329OCT     C122657  21.201   2.416  11.841 -0.0239  0.1266  0.1745
11329OCT     C222658  21.040   2.752  11.559  0.0916  0.4063  0.0785
11330OCT     C122659  16.317   3.209  18.922  0.3119 -0.1410 -0.0637
11330OCT     C222660  16.161   2.836  19.191  0.0194  0.1195  0.3131
11331OCT     C122661  21.850   2.907  21.686 -0.0554  0.1052  0.0086
11331OCT     C222662  22.147   3.181  21.994 -0.1584  0.1860  0.1246
11332OCT     C122663   2.709  14.373  18.779 -0.4846  0.1316 -0.1966
11332OCT     C222664   2.784  14.031  19.081 -0.3550  0.2065 -0.2695
11333OCT     C122665  15.224  19.938   4.261  0.0766 -0.1911  0.2954
11333OCT     C222666  15.662  19.901   4.405 -0.1106 -0.0522 -0.1851
11334OCT     C122667  19.127   0.581  10.834  0.1195  0.2515  0.0726
11334OCT     C222668  19.096   0.930  10.485 -0.4699  0.2337  0.1454
11335OCT     C122669  13.374   0.354   5.269  0.0873 -0.0493  0.1725
11335OCT     C222670  13.080   0.020   5.168  0.0987  0.2719  0.0663
11336OCT     C122671  20.941  13.928  23.409 -0.2549 -0.4136  0.3471
11336OCT     C222672  20.747  13.514  23.494  0.0892 -0.2549 -0.1873
11337OCT     C122673   8.418  20.876   1.557 -0.0116  0.1165 -0.0478
11337OCT     C222674   8.694  21.049   1.275 -0.1205 -0.1217  0.1493
11338OCT     C122675   6.387  12.409  15.907  0.1858  0.2162  0.2681
11338OCT     C222676   6.366  11.974  15.663  0.0927  0.1925  0.3400
11339OCT     C122677  15.598   1.259  22.475  0.3438 -0.0095 -0.2451
11339OCT     C222678  15.911   1.470  22.199  0.3685 -0.1819 -0.0706
11340OCT     C122679   9.595  23.243   0.175  0.0172  0.0742  0.0627
11340OCT     C222680   9.651  23.084  23.442  0.1341 -0.0385  0.2950
11341OCT     C122681   9.945   4.798   4.141 -0.3152  0.2417 -0.1794
11341OCT     C222682  10.132   4.424   3.901  0.0481  0.0658  0.2920
11342OCT     C122683   9.362  11.869  18.528  0.0809  0.0719 -0.1584
11342OCT     C222684   9.767  11.838  18.768  0.0258 -0.2000 -0.0605
11343OCT     C122685  17.224  19.424   4.894  0.1840  0.0285 -0.0968
11343OCT     C222686  17.285  19.474   5.360 -0.0843 -0.0074  0.2355
11344OCT     C122687   1.357   1.593  19.580  0.0647 -0.1575 -0.0041
11344OCT     C222688   1.097   1.392  19.909  0.2115 -0.0500 -0.5471
11345OCT     C122689  15.793   4.972  21.438 -0.4946  0.1143 -0.0888
11345OCT     C222690  15.810   4.664  21.723  0.2277  0.3052  0.1171
11346OCT     C122691   1.222   2.978   2.210  0.1677  0.2339  0.1818
11346OCT     C222692   1.613   3.092   1.963  0.2986  0.3110 -0.1992
11347OCT     C122693  23.692   7.531   7.574 -0.1180  0.1969 -0.4681
11347OCT     C222694  23.686   7.372   8.010  0.2419  0.0526  0.1513
11348OCT     C122695   0.216   4.693  13.796 -0.1742  0.4592  0.1040
11348OCT     C222696   0.615   4.439  13.865  0.0543 -0.1460  0.4480
11349OCT     C122697  18.792  13.794  11.232 -0.0092 -0.0767 -0.3493
11349OCT     C222698  19.162  13.829  11.454 -0.1211 -0.1479 -0.3626
11350OCT     C122699  17.360  21.219   2.455  0.1027  0.3546 -0.2405
11350OCT     C222700  17.803  21.170   2.317  0.0312  0.0275  0.0199
11351OCT     C122701   3.815  21.015  22.457  0.0088 -0.0833 -0.1039
11351OCT     C222702   3.714  20.556  22.609 -0.1550 -0.0735 -0.1745
11352OCT     C122703   6.586  23.315  16.803 -0.0914 -0.1135 -0.2196
11352OCT     C222704   6.694  22.985  16.537 -0.3745 -0.0615  0.2421
11353OCT     C122705  20.927  12.280  10.074 -0.1527 -0.3023 -0.1216
11353OCT     C222706  21.023  12.685  10.255 -0.0373 -0.0180 -0.1195
11354OCT     C122707   2.409  16.173  10.134 -0.0922 -0.3208  0.0980
11354OCT     C222708   2.153  16.500  10.432 -0.0948  0.0048 -0.1010
11355OCT     C122709   9.022  16.441  15.457 -0.2739  0.0263 -0.0650
11355OCT     C222710   9.121  16.067  15.776 -0.2422 -0.1762 -0.2509
11356OCT     C122711  20.322  20.150   9.209 -0.3280 -0.2898  0.3353
11356OCT     C222712  20.585  19.879   9.001  0.1083  0.0389  0.1853
11357OCT     C122713  16.090  17.900   1.599 -0.1421  0.1936 -0.1415
11357OCT     C222714  16.468  18.066   1.373  0.0118 -0.0158  0.2739
11358OCT     C122715  22.027  22.883  23.464 -0.0315 -0.0583 -0.0155
11358OCT     C222716  22.028  22.503   0.020 -0.0257  0.0624 -0.1821
11359OCT     C122717   8.659  18.555  13.874  0.1367 -0.1058 -0.1376
11359OCT     C222718   8.314  18.311  13.820  0.1345 -0.2935  0.0187
11360OCT     C122719  20.734   8.162  10.572 -0.0808  0.1726 -0.0780
11360OCT     C222720  20.903   7.720  10.647  0.1404  0.0038 -0.2954
11361OCT     C122721   4.463  17.469  20.386 -0.2049 -0.1458  0.1013
11361OCT     C222722   4.761  17.198  20.111 -0.0331  0.0749 -0.0726
11362OCT     C122723  15.468  20.348  23.685 -0.3585 -0.0261  0.1501
11362OCT     C222724  15.117  20.128   0.216 -0.0056 -0.1831 -0.2354
11363OCT     C122725   5.283   0.625  17.547 -0.0302 -0.0335 -0.2873
11363OCT     C222726   5.532   0.709  17.163 -0.5186  0.0601  0.0050
11364OCT     C122727   5.943   1.192  18.784  0.1533  0.0190 -0.0179
11364OCT     C222728   5.637   0.901  19.093 -0.1488 -0.1302 -0.1478
11365OCT     C122729   7.506  17.821   7.544  0.0186  0.0578  0.6155
11365OCT     C222730   7.434  17.369   7.467 -0.2480 -0.2305 -0.2254
11366OCT     C122731   8.167   5.065   3.154 -0.5306 -0.2483  0.3363
11366OCT     C222732   8.510   5.088   3.363 -0.1785 -0.0034 -0.0164
11367OCT     C122733   6.358  12.855   2.549 -0.0332  0.1523 -0.1841
11367OCT     C222734   6.402  13.177   2.231 -0.2577  0.0095 -0.1675
11368OCT     C122735  17.481   0.200  16.558  0.0176 -0.0094 -0.1893
11368OCT     C222736  17.265   0.167  16.921  0.0759  0.2608 -0.1688
11369OCT     C122737  21.746   0.437  12.298 -0.1499 -0.0550  0.0459
11369OCT     C222738  21.825  23.741  12.414  0.1514  0.2677  0.0022
11370OCT     C122739  22.960   4.313   3.595 -0.0329 -0.3287  0.4245
11370OCT     C222740  22.717   4.380   4.004  0.0033  0.1095  0.0887
11371OCT     C122741   3.999  19.943   2.112 -0.1944 -0.2905  0.0309
11371OCT     C222742   3.950  20.086   2.582 -0.1494  0.2218  0.0692
11372OCT     C122743  15.120   5.014  22.057  0.2309  0.3453  0.3089
11372OCT     C222744  15.439   5.025  22.434 -0.1174  0.0646 -0.0515
11373OCT     C122745  20.649   9.492  17.411 -0.0423 -0.0359  0.2880
11373OCT     C222746  20.501   9.794  17.136 -0.4931  0.0195  0.1004
11374OCT     C122747  22.328   5.669   5.790 -0.1677  0.0182 -0.0477
11374OCT     C222748  22.107   5.770   5.418  0.0399 -0.0218  0.2864
11375OCT     C122749  19.714  19.651  12.601  0.3503  0.1519 -0.0818
11375OCT     C222750  20.046  19.317  12.406  0.3810  0.1397 -0.0372
11376OCT     C122751   3.450  13.848   3.513 -0.0080 -0.1126  0.2520
11376OCT     C222752   3.014  13.749   3.444  0.0264 -0.2747 -0.0354
11377OCT     C122753  23.367   1.586  12.665 -0.1729  0.3676 -0.2529
11377OCT     C222754  23.257   1.980  12.467 -0.2598 -0.0301  0.1895
11378OCT     C122755  22.091  21.367  22.206 -0.1734  0.4350 -0.3115
11378OCT     C222756  22.189  21.749  22.467  0.1776  0.1260  0.0474
11379OCT     C122757  10.960   0.165  20.496  0.0744  0.3281  0.1667
11379OCT     C222758  10.733   0.016  20.869 -0.0357 -0.0859  0.2973
11380OCT     C122759  22.075  13.073  11.844  0.1827  0.2176 -0.0969
11380OCT     C222760  21.792  12.924  12.185 -0.0427 -0.0788 -0.3179
11381OCT     C122761   3.716  21.990  10.927 -0.0414 -0.1806  0.0860
11381OCT     C222762   3.686  22.372  10.660 -0.2858 -0.1480  0.2638
11382OCT     C122763  22.208  22.819   9.933 -0.3061 -0.1027 -0.5381
11382OCT     C222764  22.635  22.964   9.729  0.1720  0.1019  0.0418
11383OCT     C122765   2.048  11.564  15.293  0.2207  0.2431 -0.1046
11383OCT     C222766   2.212  11.145  15.117 -0.1387 -0.2918  0.0800
11384OCT     C122767  12.049  18.639   8.749 -0.1045 -0.1637  0.0554
11384OCT     C222768  12.070  18.261   9.079  0.0207 -0.2546 -0.3624
11385OCT     C122769  17.145  13.208  19.926 -0.1749  0.2243  0.1749
11385OCT     C222770  16.871  12.834  20.010  0.0788  0.3090 -0.0331
11386OCT     C122771  22.247   1.680  16.126 -0.0702 -0.1292  0.3643
11386OCT     C222772  21.963   1.288  16.201  0.0963  0.0632  0.0278
11387OCT     C122773  17.006   7.978   1.444  0.3939 -0.0274 -0.2103
11387OCT     C222774  16.676   7.779   1.707  0.0824  0.2935 -0.1120
11388OCT     C122775   0.173   2.043  14.478 -0.0552  0.1071  0.1582
11388OCT     C222776   0.048   1.649  14.374  0.0990  0.1891  0.1124
11389OCT     C122777  20.105  15.702  19.713 -0.0418  0.1665  0.1615
11389OCT     C222778  20.002  15.448  19.294  0.0803 -0.4082  0.1347
11390OCT     C122779   2.356   9.874  10.911 -0.2993 -0.1087  0.2324
11390OCT     C222780   2.432  10.259  11.114 -0.1607  0.0681 -0.1572
11391OCT     C122781  14.768  12.421   6.637 -0.1709  0.1995 -0.1172
11391OCT     C222782  14.362  12.357   6.421 -0.0992 -0.0138  0.2159
11392OCT     C122783   3.665  23.533  15.086 -0.4407  0.1944  0.0965
11392OCT     C222784   3.561   0.244  15.225 -0.1352 -0.3421  0.2504
11393OCT     C122785  18.754  16.085  19.458  0.0785 -0.1867 -0.0800
11393OCT     C222786  18.799  16.531  19.623  0.1340 -0.1784  0.0803
11394OCT     C122787  23.199   1.044  15.539 -0.1600  0.1519  0.0580
11394OCT     C222788  22.918   0.674  15.567 -0.2191  0.0351 -0.2104
11395OCT     C122789  11.994   0.991   0.356 -0.2904  0.0428 -0.1334
11395OCT     C222790  11.877   1.485   0.362  0.2662 -0.0102  0.0390
11396OCT     C122791   7.588   1.406  19.419 -0.0491  0.0491  0.2700
11396OCT     C222792   7.598   1.300  19.910 -0.2089 -0.1090  0.1679
11397OCT     C122793  20.393   0.457   3.305 -0.0150 -0.4299 -0.0166
11397OCT     C222794  20.307   0.219   2.945 -0.2773 -0.3939  0.1078
11398OCT     C122795  12.121   4.349   2.983 -0.2070 -0.3114 -0.1133
11398OCT     C222796  12.314   4.812   2.905  0.1456  0.0794  0.0964
11399OCT     C122797   8.097   5.163   6.266 -0.4949 -0.2449 -0.0100
11399OCT     C222798   8.019   5.609   6.182  0.2226 -0.0462 -0.2902
11400OCT     C122799   2.005   7.081  18.532  0.1698 -0.2807  0.3350
11400OCT     C222800   1.728   7.444  18.401  0.4043 -0.2008  0.2015
11401OCT     C122801   2.953  18.237   1.781 -0.0718 -0.1477 -0.1969
11401OCT     C222802   3.190  18.228   2.168 -0.0133 -0.4002 -0.2917
11402OCT     C122803   7.143  14.545  15.145  0.4466  0.1706  0.0206
11402OCT     C222804   7.339  14.115  15.334  0.2209  0.0669  0.2830
11403OCT     C122805  12.875  12.751  20.807  0.0330 -0.0806  0.0668
11403OCT     C222806  13.140  12.958  21.127  0.0869  0.0625  0.1401
11404OCT     C122807  10.178  21.209  17.245  0.0215 -0.0314 -0.1656
11404OCT     C222808   9.731  21.268  17.039 -0.0066 -0.1851  0.1936
11405OCT     C122809   1.671   2.262  18.059  0.1831 -0.1512 -0.1609
11405OCT     C222810   1.831   1.874  17.921  0.3686  0.3594 -0.3016
11406OCT     C122811   9.519   8.766   3.510 -0.0273 -0.0639  0.3367
11406OCT     C222812   9.408   8.316   3.554 -0.0642 -0.0233  0.4033
11407OCT     C122813  10.820  22.281  10.513  0.3003  0.0983 -0.0786
11407OCT     C222814  10.845  22.570  10.892  0.0957 -0.2794 -0.2222
11408OCT     C122815   3.834   8.100  18.991  0.0895  0.1288 -0.1453
11408OCT     C222816   4.030   8.443  18.799  0.0290 -0.0077  0.5234
11409OCT     C122817   1.801  13.044   7.721  0.3041  0.1913  0.0265
11409OCT     C222818   1.701  12.595   7.657 -0.2795  0.1400  0.2556
11410OCT     C122819  12.710  14.482   5.383  0.1845 -0.0726  0.4298
11410OCT     C222820  12.415  14.348   4.988 -0.0674  0.0760 -0.2542
11411OCT     C122821   4.372   4.307   9.585 -0.0665 -0.0563  0.1885
11411OCT     C222822   3.930   4.541   9.516  0.4635  0.1558 -0.2368
11412OCT     C122823  11.695  15.155   4.447  0.0591 -0.1422  0.1011
11412OCT     C222824  11.235  15.214   4.655 -0.2335  0.2158 -0.0856
11413OCT     C122825   4.402  20.552  16.363 -0.3020  0.0278 -0.1460
11413OCT     C222826   4.038  20.855  16.446  0.0526  0.1623  0.0331
11414OCT     C122827  11.571  18.696  10.230 -0.1882  0.3108 -0.0097
11414OCT     C222828  11.670  19.175  10.200  0.2782 -0.0110 -0.2172
11415OCT     C122829  10.117   5.375   0.322 -0.0022  0.0045 -0.0483
11415OCT     C222830  10.413   5.018   0.320  0.0735 -0.1708 -0.0073
11416OCT     C122831   7.104   3.414  15.640 -0.2223 -0.0749 -0.5683
11416OCT     C222832   6.744   3.135  15.554 -0.0242 -0.1499 -0.2695
11417OCT     C122833  19.323   8.931   8.348 -0.2784  0.1138  0.1644
11417OCT     C222834  19.032   8.624   8.168  0.0818 -0.1199  0.3584
11418OCT     C122835   2.526  18.183   4.147  0.0107  0.0858 -0.2590
11418OCT     C222836   2.962  18.001   4.363  0.1910 -0.0602  0.0781
11419OCT     C122837  12.810   9.380  17.334  0.1151  0.2394  0.3670
11419OCT     C222838  12.730   8.984  17.133  0.2241 -0.2223 -0.1639
11420OCT     C122839  22.112  14.857  19.364 -0.2819 -0.3939 -0.1722
11420OCT     C222840  22.115  14.548  19.693  0.1843 -0.1491 -0.3650
11421OCT     C122841   2.406   9.452   8.138 -0.3131  0.1602  0.1012
11421OCT     C222842   2.106   9.510   8.455  0.1910  0.1605  0.1115
11422OCT     C122843  14.027   9.775   5.471 -0.2291 -0.3449  0.3336
11422OCT     C222844  13.898   9.637   5.054  0.5124  0.2246 -0.3446
11423OCT     C122845  18.010  17.478   9.492 -0.0845 -0.0318  0.2273
11423OCT     C222846  18.254  17.558   9.857  0.2757  0.1452 -0.0676
11424OCT     C122847  18.434   0.395  16.426  0.2425 -0.0656 -0.1310
11424OCT     C222848  18.432   0.649  16.065  0.1400 -0.2081  0.1257
11425OCT     C122849   7.759   4.315   4.798 -0.1760  0.0658  0.2345
11425OCT     C222850   8.038   4.408   5.166 -0.4126  0.0553 -0.1716
11426OCT     C122851  21.874   7.612  11.246  0.0879 -0.0505 -0.0219
11426OCT     C222852  21.912   7.685  10.777  0.0720  0.1869  0.2943
11427OCT     C122853  18.322  10.496  14.331 -0.1476 -0.1399  0.0667
11427OCT     C222854  17.942  10.720  14.333  0.3697  0.1482  0.3009
11428OCT     C122855  11.404   5.794  14.518  0.0524  0.0273  0.4913
11428OCT     C222856  11.639   5.579  14.872 -0.1862 -0.0168 -0.1317
11429OCT     C122857   8.274  12.301  15.853 -0.1185  0.1458  0.0601
11429OCT     C222858   8.371  12.197  16.313  0.1025  0.0969 -0.0497
11430OCT     C122859   6.445  13.316  19.397  0.0521  0.0919  0.5092
11430OCT     C222860   6.668  13.615  19.738  0.2300  0.2327 -0.0442
11431OCT     C122861   7.343   2.854   5.267 -0.0442 -0.2257  0.0210
11431OCT     C222862   7.643   3.117   4.968 -0.0512  0.1581  0.2333
11432OCT     C122863  13.411  14.239  12.699  0.0331  0.0023 -0.0481
11432OCT     C222864  13.383  14.656  12.841 -0.0355  0.4656 -0.2309
11433OCT     C122865  21.374  11.649   2.323  0.2563 -0.3754  0.0743
11433OCT     C222866  21.778  11.661   2.542  0.0455 -0.2296  0.4045
11434OCT     C122867  11.679   0.373  16.756 -0.0792 -0.1177  0.3688
11434OCT     C222868  11.779   0.828  16.612 -0.1442  0.3496  0.1399
11435OCT     C122869   5.791  22.005   5.501  0.0672  0.2176 -0.0875
11435OCT     C222870   6.232  21.869   5.558  0.3618 -0.1353 -0.0071
11436OCT     C122871  19.083  18.064  15.755 -0.0135  0.0853  0.2575
11436OCT     C222872  19.390  17.765  15.936  0.0705  0.0013 -0.1794
11437OCT     C122873  13.608   2.716  18.220 -0.1741 -0.1054  0.1758
11437OCT     C222874  13.186   2.758  18.232 -0.0354 -0.1436 -0.1169
11438OCT     C122875  22.055  17.064   6.641 -0.3320 -0.0071  0.0627
11438OCT     C222876  22.377  16.774   6.460  0.0341  0.0854 -0.0621
11439OCT     C122877   9.397  17.818   6.415 -0.1418 -0.0003  0.0139
11439OCT     C222878   9.831  17.885   6.195 -0.2621 -0.1179 -0.1054
11440OCT     C122879   5.516   1.308  23.727  0.5259 -0.3574  0.0779
11440OCT     C222880   5.498   1.308   0.431 -0.3750  0.1741  0.0078
11441OCT     C122881   3.431   1.910  14.213  0.0403 -0.0668 -0.0242
11441OCT     C222882   3.084   2.059  13.911 -0.2233  0.3914  0.3579
11442OCT     C122883  19.121  18.132  22.853 -0.2856  0.1967  0.0610
11442OCT     C222884  19.486  18.270  22.659 -0.0151  0.2394  0.2389
11443OCT     C122885   0.598   9.313  14.605  0.1559  0.1128  0.4162
11443OCT     C222886   0.521   9.702  14.866  0.0860  0.0686  0.0475
11444OCT     C122887   2.395  19.437   0.937 -0.5049  0.1845  0.3301
11444OCT     C222888   2.123  19.665   1.336 -0.2391  0.2388  0.1732
11445OCT     C122889   7.445   3.141   6.507  0.1850 -0.1961 -0.2016
11445OCT     C222890   7.195   3.088   6.104  0.0171  0.2633  0.1266
11446OCT     C122891  17.726  15.328  14.120 -0.3808 -0.1581 -0.2212
11446OCT     C222892  17.487  15.692  14.162 -0.0685  0.3118  0.0530
11447OCT     C122893  13.133   1.559   4.362 -0.1856 -0.3898  0.3133
11447OCT     C222894  13.527   1.386   4.350  0.0057  0.0005  0.3003
11448OCT     C122895  21.025  16.057  18.736 -0.1086  0.2670  0.0477
11448OCT     C222896  21.412  15.974  19.001  0.3022  0.3182  0.3706
11449OCT     C122897  17.258  15.133  14.966  0.0877  0.2765  0.3088
11449OCT     C222898  17.342  14.791  15.282  0.2092  0.2949  0.3357
11450OCT     C122899  13.229  10.008  21.748  0.1957 -0.0615  0.3630
11450OCT     C222900  13.156  10.417  21.631  0.0921  0.1288  0.1286
11451OCT     C122901   0.813   8.239  21.877  0.0968 -0.2999  0.1074
11451OCT     C222902   1.119   7.895  21.777 -0.1470 -0.1285 -0.1876
11452OCT     C122903  17.379  13.623   1.406  0.0566  0.1884 -0.1499
11452OCT     C222904  17.837  13.588   1.367  0.1447  0.0373 -0.0978
11453OCT     C122905   3.921  17.478   9.974  0.0458 -0.0156  0.1306
11453OCT     C222906   3.832  17.008   9.861  0.0739  0.2287 -0.2828
11454OCT     C122907  18.786  19.989  22.203 -0.0105  0.1548 -0.3783
11454OCT     C222908  18.961  20.086  22.639 -0.0529  0.0022 -0.0125
11455OCT     C122909  13.507   5.827  18.008 -0.0325 -0.3552  0.1435
11455OCT     C222910  13.586   6.298  17.912 -0.0199  0.2604  0.1105
11456OCT     C122911   1.931   1.714   1.483 -0.2441  0.0380  0.0326
11456OCT     C222912   1.803   2.042   1.801  0.2450 -0.2511 -0.1439
11457OCT     C122913  16.413  19.514   3.704  0.1229 -0.1373 -0.2111
11457OCT     C222914  16.043  19.271   3.882 -0.1745 -0.2803 -0.1730
11458OCT     C122915   2.269   1.895   4.146 -0.0481 -0.1717 -0.1965
11458OCT     C222916   2.299   1.437   4.063 -0.3715  0.1263  0.1325
11459OCT     C122917  16.105   1.224  12.244  0.2272 -0.1505 -0.1456
11459OCT     C222918  16.326   1.303  12.684 -0.0014  0.0425 -0.1076
11460OCT     C122919  11.292  23.033   0.077  0.1565  0.0228  0.1209
11460OCT     C222920  11.479  22.829  23.462  0.3755  0.1982  0.3008
11461OCT     C122921  17.105   7.147  18.927  0.2484 -0.0365  0.0441
11461OCT     C222922  16.991   6.749  18.652 -0.2694 -0.1588  0.0150
11462OCT     C122923   1.500   5.690   7.314  0.0912 -0.5380 -0.2520
11462OCT     C222924   1.642   5.835   7.756  0.1432 -0.0948 -0.0155
11463OCT     C122925  19.446  12.616  22.202  0.2258 -0.0782  0.4814
11463OCT     C222926  19.521  12.388  22.623  0.3548 -0.1026  0.0449
11464OCT     C122927  20.539  21.416  10.762  0.0341  0.2636  0.0821
11464OCT     C222928  20.939  21.219  10.896  0.0710  0.0276  0.3127
11465OCT     C122929  13.810  15.657   0.117 -0.3346  0.0086  0.1162
11465OCT     C222930  13.629  15.413  23.491  0.2234  0.2011 -0.2568
11466OCT     C122931  11.919  12.353   0.981 -0.0752 -0.0979 -0.0515
11466OCT     C222932  11.499  12.428   1.100  0.2109  0.1876 -0.1582
11467OCT     C122933  19.597   9.611  21.909  0.2455  0.2607  0.1102
11467OCT     C222934  19.151   9.673  21.927  0.1784  0.1772 -0.3293
11468OCT     C122935   5.278  12.105  22.911  0.1525  0.3124 -0.0380
11468OCT     C222936   5.578  11.814  22.640  0.1438  0.2883 -0.3346
11469OCT     C122937  14.454   1.073  20.277 -0.0435  0.1363  0.0729
11469OCT     C222938  14.211   1.455  20.184  0.0887 -0.0785 -0.1703
11470OCT     C122939   3.942  13.504  21.368 -0.1226 -0.2534 -0.1647
11470OCT     C222940   3.591  13.468  21.054  0.1271  0.0954  0.2771
11471OCT     C122941  19.104  17.082  16.690  0.1869  0.3635 -0.1452
11471OCT     C222942  19.489  16.879  16.512 -0.0971 -0.3513  0.1138
11472OCT     C122943   7.234  22.979  22.862  0.3219  0.3157  0.3230
11472OCT     C222944   7.277  22.517  23.016 -0.2352  0.1127 -0.0686
11473OCT     C122945  17.211  22.645  18.315  0.1025  0.2017 -0.1410
11473OCT     C222946  17.288  23.005  18.575  0.1966 -0.1372 -0.0451
11474OCT     C122947   8.230   1.725   9.852 -0.1883  0.0697  0.1724
11474OCT     C222948   8.484   1.681   9.539 -0.3051 -0.0375 -0.0601
11475OCT     C122949   9.386   9.836   2.645  0.1542  0.0219 -0.0904
11475OCT     C222950   9.725  10.158   2.565  0.1629  0.1069  0.1732
11476OCT     C122951   0.100   8.743   7.850  0.0771  0.1272  0.3465
11476OCT     C222952   0.012   9.216   7.655  0.2399 -0.0798 -0.2272
11477OCT     C122953   4.648  13.587   6.429  0.3864 -0.2208  0.1603
11477OCT     C222954   4.669  14.051   6.394  0.0754  0.1375  0.0661
11478OCT     C122955  12.313  14.564  10.397 -0.2972 -0.2667  0.3539
11478OCT     C222956  12.368  15.004  10.239  0.2137  0.1986  0.1684
11479OCT     C122957   7.372  21.481   2.800 -0.2941  0.2781  0.0949
11479OCT     C222958   6.967  21.449   2.518 -0.1228  0.1202  0.0693
11480OCT     C122959   6.214   1.547  12.538 -0.0130 -0.0926  0.2738
11480OCT     C222960   6.298   1.967  12.682  0.3160  0.0449  0.1869
11481OCT     C122961   2.000  12.481  21.638 -0.1029 -0.0919 -0.1992
11481OCT     C222962   1.931  12.264  22.044 -0.1443 -0.1112 -0.2006
11482OCT     C122963   7.615   2.896   9.904  0.1402 -0.0896 -0.0176
11482OCT     C222964   7.903   3.190   9.821 -0.1232  0.0528  0.1330
11483OCT     C122965  20.035  21.347   3.205  0.0599  0.0723 -0.0193
11483OCT     C222966  20.403  21.290   3.464 -0.1033  0.2224 -0.3061
11484OCT     C122967  14.476  18.504  20.576  0.4254  0.1547 -0.0045
11484OCT     C222968  14.559  18.843  20.872  0.3173  0.0826 -0.2395
11485OCT     C122969  16.392   4.186   6.605  0.3170 -0.4114  0.0339
11485OCT     C222970  16.494   3.877   6.356 -0.2050 -0.2360  0.0525
11486OCT     C122971  15.409   4.644  13.615  0.1156  0.0699  0.0690
11486OCT     C222972  15.780   5.015  13.668 -0.1097  0.0031 -0.1560
11487OCT     C122973  14.186  13.632   2.977 -0.0847 -0.0650 -0.3544
11487OCT     C222974  13.996  13.396   2.625 -0.1968  0.1909 -0.2302
11488OCT     C122975  10.885  11.649  14.177  0.2299  0.0543  0.5741
11488OCT     C222976  10.643  11.336  13.902 -0.3217  0.2805 -0.2416
11489OCT     C122977   6.409   6.350   2.401 -0.3061  0.2386  0.3625
11489OCT     C222978   6.211   6.614   2.726 -0.2528 -0.1207 -0.0417
11490OCT     C122979  22.214   7.354   3.417  0.0446 -0.1723 -0.4406
11490OCT     C222980  22.324   7.746   3.674 -0.0171 -0.3425 -0.0808
11491OCT     C122981  21.514  11.724   1.876  0.0720  0.0252  0.0912
11491OCT     C222982  21.440  12.153   1.680  0.1117  0.5241 -0.0146
11492OCT     C122983  13.534  14.659   3.394  0.4205 -0.0576 -0.0687
11492OCT     C222984  13.244  14.893   3.141 -0.0023 -0.0211 -0.0238
11493OCT     C122985   1.060  12.195   7.536  0.2338 -0.0861 -0.0600
11493OCT     C222986   1.510  12.130   7.392  0.0642 -0.4049 -0.4312
11494OCT     C122987   4.101   1.331   8.367  0.1493 -0.0021 -0.1029
11494OCT     C222988   4.015   1.543   8.816 -0.2039 -0.0917  0.0420
11495OCT     C122989   7.327  16.421  10.877  0.2324  0.0548 -0.3226
11495OCT     C222990   7.478  16.865  10.731 -0.1123 -0.2244  0.0099
11496OCT     C122991  18.401   6.458  15.684 -0.2214  0.0892 -0.0237
11496OCT     C222992  18.226   6.059  15.485  0.3049  0.0960  0.1551
11497OCT     C122993  20.971   2.899  17.658  0.1243  0.2052 -0.0227
11497OCT     C222994  20.578   3.174  17.584  0.0960  0.1748 -0.0245
11498OCT     C122995   5.352  19.332  20.925  0.1971 -0.3179 -0.1747
11498OCT     C222996   5.816  19.442  21.002  0.2823  0.1686 -0.5673
11499OCT     C122997  19.263  15.280  16.124 -0.0933 -0.2763  0.3845
11499OCT     C222998  18.930  14.991  16.107 -0.3410  0.3367 -0.1050
11500OCT     C122999  21.226   9.505  17.832 -0.0013 -0.6288  0.3366
11500OCT     C223000  20.803   9.799  17.714  0.1617 -0.1749  0.0830
11501OCT     C123001   2.962   2.547  17.685 -0.2216  0.0996  0.2936
11501OCT     C223002   3.311   2.869  17.549  0.0890  0.2306  0.2553
11502OCT     C123003   5.188  16.393   7.558 -0.0787 -0.0746 -0.0378
11502OCT     C223004   5.066  16.566   7.995 -0.0688 -0.0087 -0.2512
11503OCT     C123005  17.645  10.712   6.087  0.2401  0.1399 -0.2997
11503OCT     C223006  17.594  11.027   5.722 -0.1024 -0.0343  0.1484
11504OCT     C123007   6.654  15.576  21.278 -0.4998  0.1941  0.1751
11504OCT     C223008   7.135  15.600  21.201  0.1679  0.1644  0.0036
11505OCT     C123009   7.449  11.997  15.276 -0.0755 -0.0036  0.0177
11505OCT     C223010   7.686  11.981  14.845 -0.2043  0.1639  0.2471
11506OCT     C123011   1.454  15.476   1.179 -0.1015  0.0376  0.4381
11506OCT     C223012   1.092  15.248   1.398 -0.0853  0.1234 -0.0363
11507OCT     C123013  14.013   5.351  22.972 -0.4951 -0.1101  0.0312
11507OCT     C223014  13.958   4.952  22.988  0.1514  0.2816  0.3842
11508OCT     C123015   7.808  11.053  17.887 -0.1639  0.2307 -0.1920
11508OCT     C223016   7.388  10.849  18.039  0.3557 -0.2538  0.0264
11509OCT     C123017  22.005  12.801   7.493  0.0860  0.1471  0.2348
11509OCT     C223018  21.854  12.645   7.048 -0.0680 -0.0732 -0.0914
11510OCT     C123019  23.259  20.368   0.075 -0.1638  0.1717  0.2116
11510OCT     C223020  23.385  20.091   0.427 -0.2387 -0.1443 -0.0483
11511OCT     C123021  22.526   1.898  10.420 -0.1716  0.1170 -0.0358
11511OCT     C223022  22.888   2.143  10.225  0.0311 -0.0281 -0.0331
11512OCT     C123023  21.143   3.141  18.097 -0.2208  0.1318  0.1818
11512OCT     C223024  20.893   3.036  18.481 -0.1703  0.4307  0.1132
11513OCT     C123025  21.068   8.289  18.539 -0.0588  0.1928  0.2747
11513OCT     C223026  20.602   8.404  18.515 -0.3039  0.1141  0.1552
11514OCT     C123027   8.644  15.547   0.135 -0.0474 -0.3808  0.2367
11514OCT     C223028   8.559  15.647  23.409  0.3015  0.0938  0.3605
11515OCT     C123029  23.189  18.297   2.809 -0.2592  0.2442  0.2042
11515OCT     C223030  23.490  18.584   3.016 -0.5710 -0.2538  0.1961
11516OCT     C123031  10.194  15.873  11.632 -0.0269 -0.3232 -0.0359
11516OCT     C223032  10.531  16.099  11.410 -0.0775  0.0438 -0.1971
11517OCT     C123033   2.883  19.770  21.378 -0.5276 -0.0561 -0.2140
11517OCT     C223034   2.695  19.656  21.783 -0.4670 -0.1667 -0.1496
11518OCT     C123035   3.470   1.770   6.040  0.1918  0.0433  0.0487
11518OCT     C223036   3.595   2.059   6.363  0.5206  0.1927  0.1707
11519OCT     C123037  18.235   9.463  16.834  0.0655  0.2151 -0.4303
11519OCT     C223038  17.951   9.522  17.255  0.2338  0.8507 -0.4075
11520OCT     C123039  18.956  12.215  20.473 -0.0096  0.0580  0.3136
11520OCT     C223040  18.592  11.984  20.504 -0.3974  0.0648 -0.3104
11521OCT     C123041   7.444   4.619  20.032  0.0656 -0.3651 -0.0613
11521OCT     C223042   7.646   4.890  19.660  0.0887 -0.1876  0.0964
11522OCT     C123043  22.936   9.451   6.199 -0.0040  0.4619 -0.2032
11522OCT     C223044  22.645   9.625   6.445 -0.2492 -0.0216  0.2131
11523OCT     C123045   8.374   6.429   2.581 -0.1557 -0.2364 -0.3195
11523OCT     C223046   8.333   5.961   2.723 -0.4623 -0.6600  0.4454
11524OCT     C123047  13.546   2.915   7.367  0.1441  0.2741 -0.0552
11524OCT     C223048  13.535   2.851   6.897  0.0913  0.0423  0.4705
11525OCT     C123049   2.275  23.536  22.263  0.0919 -0.3352  0.0250
11525OCT     C223050   2.043  23.204  22.478 -0.1607  0.0200 -0.0204
11526OCT     C123051   8.090  16.282  12.499 -0.0729 -0.2589  0.2548
11526OCT     C223052   7.789  16.074  12.261  0.2799 -0.0279  0.0613
11527OCT     C123053  14.401  15.497   1.321  0.0596  0.5475 -0.2390
11527OCT     C223054  14.251  15.776   0.987  0.0481 -0.0037  0.2075
11528OCT     C123055  19.069  14.678  13.349  0.3355  0.1788  0.0584
11528OCT     C223056  18.657  14.580  13.576 -0.2702  0.0536 -0.0118
11529OCT     C123057  12.452   3.826  17.151  0.0920  0.1243 -0.2638
11529OCT     C223058  12.374   3.509  17.514 -0.2000  0.3440  0.2097
11530OCT     C123059   4.955   9.177  20.955  0.0593  0.2603 -0.0606
11530OCT     C223060   5.286   8.882  21.165  0.3752 -0.0304 -0.0258
11531OCT     C123061   9.111  19.228   8.696  0.3992  0.2031  0.0347
11531OCT     C223062   9.042  19.685   8.889  0.0514  0.0336  0.1963
11532OCT     C123063   8.115   1.343  20.823  0.5367  0.5374 -0.2495
11532OCT     C223064   8.411   0.991  20.892  0.1147  0.2990 -0.1709
11533OCT     C123065  19.201  17.912   1.616 -0.1008  0.0091 -0.1694
11533OCT     C223066  18.929  17.632   1.863 -0.1312  0.0540 -0.0450
11534OCT     C123067   5.169   3.762   1.203 -0.1103  0.4517  0.0817
11534OCT     C223068   4.998   4.155   1.320  0.2685  0.2894  0.1587
11535OCT     C123069  17.635   2.975   3.079 -0.2437  0.1506  0.0369
11535OCT     C223070  17.737   3.409   2.868  0.0995  0.2679  0.6721
11536OCT     C123071   3.426   2.039   1.247 -0.1149 -0.0775 -0.0675
11536OCT     C223072   3.510   1.831   1.671 -0.3650  0.0759 -0.0000
11537OCT     C123073   3.414  15.482  12.082  0.0335  0.2705  0.0656
11537OCT     C223074   3.512  15.715  11.655  0.3088 -0.2977 -0.3308
11538OCT     C123075  19.805   4.497   5.478  0.0182 -0.0905  0.0308
11538OCT     C223076  19.880   4.985   5.610  0.1325  0.0126  0.5119
11539OCT     C123077  15.797  17.858  18.801 -0.1950 -0.1110  0.0152
11539OCT     C223078  15.624  18.074  19.148  0.3305  0.1876  0.2234
11540OCT     C123079  23.458   5.158  13.717 -0.2125 -0.2726  0.0155
11540OCT     C223080  23.727   4.929  13.383 -0.3273 -0.2782  0.1940
11541OCT     C123081  15.541  14.432  18.576 -0.1923  0.1121 -0.1425
11541OCT     C223082  15.601  14.779  18.326 -0.0225  0.0488 -0.0567
11542OCT     C123083   4.613   1.997   0.584 -0.4330  0.0022  0.0559
11542OCT     C223084   5.016   2.102   0.414 -0.0421 -0.0693  0.0115
11543OCT     C123085   4.516  17.083  14.895 -0.2827 -0.1291 -0.4766
11543OCT     C223086   4.963  16.876  14.782  0.2798 -0.0333  0.2053
11544OCT     C123087  21.641  14.853  12.630 -0.2136 -0.0128  0.1083
11544OCT     C223088  21.602  15.280  12.801 -0.3264 -0.1532 -0.7317
11545OCT     C123089   8.304  14.455  10.566 -0.0103 -0.2120  0.3590
11545OCT     C223090   8.354  13.996  10.715 -0.4294  0.1603  0.0014
11546OCT     C123091  12.884   2.199   2.509 -0.1829 -0.0489  0.1535
11546OCT     C223092  12.794   1.752   2.567 -0.0927  0.1655  0.0039
11547OCT     C123093   8.185   9.492  21.993  0.0552  0.0871 -0.3462
11547OCT     C223094   8.383   9.151  21.730 -0.0131 -0.0367  0.0566
11548OCT     C123095   0.911   4.931  13.006 -0.1052 -0.1009 -0.1290
11548OCT     C223096   1.235   4.623  12.888 -0.2111  0.1978 -0.2760
11549OCT     C123097  23.460  20.141  19.074  0.1921 -0.2826  0.0683
11549OCT     C223098  23.662  20.351  18.685 -0.0043 -0.1467  0.2356
11550OCT     C123099   2.544  16.081  14.274  0.1618  0.0795  0.1270
11550OCT     C223100   2.869  15.991  14.628  0.2755  0.1721 -0.0154
11551OCT     C123101  19.451   1.959  16.038  0.0142  0.1349  0.1484
11551OCT     C223102  19.015   1.827  16.271 -0.1163 -0.0214  0.1403
11552OCT     C123103   1.012  12.466  10.320  0.3835  0.2267 -0.0769
11552OCT     C223104   1.402  12.493  10.022 -0.0372  0.0683 -0.4069
11553OCT     C123105   5.587   2.535  10.611  0.2113  0.0947 -0.4853
11553OCT     C223106   6.017   2.351  10.708  0.2240 -0.1649  0.1579
11554OCT     C123107   4.209  15.633  14.096 -0.3489 -0.0366 -0.1812
11554OCT     C223108   4.474  15.882  13.725 -0.0874 -0.1289  0.0482
11555OCT     C123109  20.728  22.325   8.039 -0.0344  0.2698 -0.0475
11555OCT     C223110  21.045  22.323   8.371  0.6349 -0.0198 -0.1140
11556OCT     C123111   4.978  22.806  14.054  0.3571  0.0077 -0.0864
11556OCT     C223112   4.535  22.811  13.992 -0.0863  0.4240  0.1122
11557OCT     C123113  20.196  14.282   4.146 -0.2127 -0.1397  0.1633
11557OCT     C223114  19.954  13.906   4.071  0.0404 -0.1624 -0.0109
11558OCT     C123115  16.626  16.887   9.259  0.0858 -0.1393 -0.0555
11558OCT     C223116  16.598  16.604   8.872  0.2848 -0.1467 -0.1728
11559OCT     C123117  21.160  13.322   8.038  0.4296  0.1849 -0.2545
11559OCT     C223118  20.769  13.498   7.787 -0.2127  0.2650 -0.1263
11560OCT     C123119   8.716   0.839  21.330 -0.0970  0.0200 -0.1585
11560OCT     C223120   8.304   1.034  21.376 -0.1662  0.3445  0.0565
11561OCT     C123121  18.438   8.133  20.187  0.0445 -0.2076 -0.2579
11561OCT     C223122  18.244   8.242  20.607  0.2870 -0.2071  0.3416
11562OCT     C123123  22.514   1.694  12.478 -0.1078  0.0270  0.0387
11562OCT     C223124  22.089   1.712  12.716 -0.1348 -0.2403  0.1725
11563OCT     C123125  11.189  18.675  14.804  0.0802  0.1966  0.0552
11563OCT     C223126  11.160  18.332  15.164  0.0142  0.1332 -0.0461
11564OCT     C123127  18.861  11.749  11.687 -0.0651  0.0397  0.1205
11564OCT     C223128  18.796  11.450  12.006  0.1583 -0.0404  0.0743
11565OCT     C123129   0.439   4.454  20.528  0.0259 -0.2402  0.3278
11565OCT     C223130   0.861   4.448  20.810  0.1589 -0.2991 -0.0405
11566OCT     C123131  16.307  22.310  17.939 -0.0485  0.2463  0.0027
11566OCT     C223132  16.557  22.389  18.327  0.0597 -0.1760 -0.1978
11567OCT     C123133  10.696   9.571  23.346 -0.0445  0.1062 -0.0385
11567OCT     C223134  11.019   9.218  23.284  0.0869  0.2203  0.1102
11568OCT     C123135  23.349  20.630  11.708  0.1454  0.4823 -0.0078
11568OCT     C223136  23.107  20.886  11.408 -0.2202  0.2262 -0.0310
11569OCT     C123137   4.319   4.322   1.731 -0.1351  0.0077 -0.2486
11569OCT     C223138   4.572   4.583   1.420 -0.1695 -0.2988 -0.0144
11570OCT     C123139   7.455   3.529  18.022 -0.0935 -0.2891 -0.2236
11570OCT     C223140   7.089   3.585  18.353  0.3564 -0.4229 -0.0364
11571OCT     C123141   2.412   8.403  16.278  0.1204 -0.1016  0.3569
11571OCT     C223142   2.152   8.048  16.382 -0.0686  0.0616 -0.0010
11572OCT     C123143  12.704   3.630   8.473  0.1554 -0.1957  0.0025
11572OCT     C223144  12.580   3.285   8.149  0.1827 -0.1079 -0.0961
11573OCT     C123145  18.977   8.487  13.573  0.5154  0.0169  0.1122
11573OCT     C223146  18.772   8.806  13.271 -0.0082 -0.2522 -0.3899
11574OCT     C123147   9.979  11.593   6.564  0.0987 -0.0653  0.2627
11574OCT     C223148  10.003  11.746   6.998  0.0438  0.0818  0.0391
11575OCT     C123149  12.260  22.274   9.483 -0.1716  0.3416 -0.0556
11575OCT     C223150  12.333  22.063   9.902 -0.4469  0.0601 -0.1870
11576OCT     C123151  17.019  21.341   5.170  0.1355 -0.5024 -0.0391
11576OCT     C223152  17.286  21.379   5.536 -0.2601  0.0818 -0.0327
11577OCT     C123153  23.263  18.517  11.951 -0.0112  0.0302  0.0845
11577OCT     C223154  23.097  18.376  11.576  0.1870  0.2906  0.4349
11578OCT     C123155  22.943  21.948   4.678 -0.0502  0.1395  0.2726
11578OCT     C223156  22.590  21.803   4.845 -0.0442 -0.2184  0.0202
11579OCT     C123157  20.331  10.463  11.530 -0.0077  0.2747 -0.1949
11579OCT     C223158  20.106  10.122  11.796 -0.2854  0.1191 -0.1058
11580OCT     C123159   9.761  16.838  19.228 -0.1399 -0.4930 -0.0978
11580OCT     C223160   9.841  17.235  19.055 -0.2040 -0.1525 -0.0819
11581OCT     C123161  15.271  10.612   8.441 -0.0480  0.0190  0.4277
11581OCT     C223162  15.321  10.179   8.364  0.0988 -0.2670 -0.5351
11582OCT     C123163  13.493   1.447  13.673 -0.2031 -0.2937 -0.1210
11582OCT     C223164  13.288   1.195  13.283 -0.0150  0.0257 -0.5300
11583OCT     C123165   6.190   9.331   9.649  0.1074 -0.3131 -0.0372
11583OCT     C223166   5.942   9.680   9.442  0.0428  0.0041 -0.1181
11584OCT     C123167   3.518  22.718  13.904 -0.1045  0.4053  0.1692
11584OCT     C223168   3.701  22.505  14.260 -0.2763  0.3645  0.0922
11585OCT     C123169  19.263  10.140  18.386 -0.1186 -0.0586 -0.3045
11585OCT     C223170  18.978  10.080  18.075  0.0219  0.2112  0.1183
11586OCT     C123171  15.843  19.417   5.277  0.0178 -0.2717 -0.0228
11586OCT     C223172  16.134  19.169   5.578 -0.0244 -0.0899  0.0291
11587OCT     C123173  10.883   1.977  18.044  0.2976  0.2483 -0.1151
11587OCT     C223174  10.580   2.338  17.954  0.0679 -0.0088 -0.1269
11588OCT     C123175   3.335  20.992  15.203 -0.0257 -0.0717  0.0973
11588OCT     C223176   3.725  20.894  14.943 -0.4391  0.0337 -0.4433
11589OCT     C123177   0.072   1.190   4.576 -0.1716 -0.3930  0.1852
11589OCT     C223178   0.473   0.977   4.506  0.1770 -0.0880  0.0920
11590OCT     C123179   2.559  21.382  19.424  0.3211 -0.2758  0.1513
11590OCT     C223180   2.366  21.374  18.948 -0.4105  0.2154 -0.0735
11591OCT     C123181   3.633  18.609   2.290  0.2775 -0.1058  0.1403
11591OCT     C223182   4.077  18.498   2.348 -0.0327 -0.0485 -0.3259
11592OCT     C123183  19.039   5.848   9.231  0.0819  0.1987  0.2015
11592OCT     C223184  18.791   5.432   9.079 -0.1067 -0.2781  0.0714
11593OCT     C123185   0.066   3.002  21.303 -0.2007 -0.2158  0.2160
11593OCT     C223186   0.019   2.881  21.754  0.0008 -0.2155 -0.2894
11594OCT     C123187  16.556  21.411   4.596 -0.0341  0.2345 -0.0289
11594OCT     C223188  16.114  21.333   4.472  0.1928  0.5182 -0.1242
11595OCT     C123189  19.244  22.071   2.904  0.2614 -0.4860 -0.2685
11595OCT     C223190  19.041  22.015   3.344 -0.0305  0.0429  0.0996
11596OCT     C123191   3.913  12.036  19.216  0.1270  0.0007  0.2012
11596OCT     C223192   3.725  12.083  19.626  0.0586  0.3965  0.0077
11597OCT     C123193   0.476  18.641   3.281  0.3081  0.2140  0.0931
11597OCT     C223194   0.143  18.304   3.268 -0.0143  0.2317 -0.0397
11598OCT     C123195  13.190  11.405  10.805 -0.0499  0.2667  0.1362
11598OCT     C223196  12.794  11.128  10.948 -0.2796  0.3305 -0.2869
11599OCT     C123197  21.602   0.629   3.720  0.1682 -0.1661  0.1976
11599OCT     C223198  21.811   1.031   3.781 -0.1423  0.3963 -0.2530
11600OCT     C123199  18.978  16.968   4.907 -0.0887  0.0779  0.0664
11600OCT     C223200  19.375  17.206   5.031  0.0819 -0.2042  0.0331
11601OCT     C123201   6.278  12.138  17.784  0.3675 -0.3343 -0.0954
11601OCT     C223202   6.347  12.334  17.374 -0.1393  0.1477 -0.0785
11602OCT     C123203  19.215   6.584  22.368  0.1874 -0.4935  0.0922
11602OCT     C223204  18.830   6.274  22.311 -0.2096  0.2112 -0.0607
11603OCT     C123205  13.556  13.188  23.597  0.2368  0.0383  0.1564
11603OCT     C223206  13.310  12.860   0.112 -0.0918 -0.5249  0.2218
11604OCT     C123207   6.342   5.395   1.257  0.0214 -0.2214 -0.0459
11604OCT     C223208   6.529   5.094   0.962 -0.0165 -0.0356  0.0056
11605OCT     C123209  16.848  19.754  14.336  0.1508  0.1864  0.3548
11605OCT     C223210  16.764  19.350  14.234 -0.1134 -0.0195  0.2640
11606OCT     C123211  16.406  12.042  20.028 -0.2809 -0.0299  0.2326
11606OCT     C223212  16.070  12.172  19.709 -0.3076 -0.0901  0.0471
11607OCT     C123213  10.692   6.267   1.980 -0.1992  0.0131 -0.1433
11607OCT     C223214  11.133   6.455   1.952  0.0261  0.0162 -0.1822
11608OCT     C123215   7.550  22.295  15.632  0.1026  0.2436 -0.3675
11608OCT     C223216   7.695  22.366  15.176  0.2072  0.1410 -0.3909
11609OCT     C123217   7.229  13.417   2.294  0.2939  0.0756  0.1086
11609OCT     C223218   6.895  13.568   2.004  0.2162 -0.2369  0.2376
11610OCT     C123219  15.149   4.517  23.522  0.0121  0.1663  0.3238
11610OCT     C223220  15.156   4.085  23.739  0.1132 -0.0329  0.0321
11611OCT     C123221  18.301  22.212   2.708 -0.2333 -0.0933  0.5524
11611OCT     C223222  18.644  21.934   2.744 -0.0327  0.1857  0.2645
11612OCT     C123223   4.359  10.311  19.666  0.1351  0.2326 -0.0107
11612OCT     C223224   4.315   9.986  19.311  0.2124 -0.0280 -0.1508
11613OCT     C123225   3.571  22.407  10.035  0.0032 -0.3058  0.0848
11613OCT     C223226   3.166  22.523   9.935 -0.0093 -0.0407 -0.2621
11614OCT     C123227  12.478  13.486  12.156  0.2516 -0.0554  0.5339
11614OCT     C223228  12.751  13.088  12.203 -0.0348  0.4474 -0.0783
11615OCT     C123229  20.570  19.667  22.521 -0.1687 -0.0933  0.1869
11615OCT     C223230  20.540  19.861  22.999 -0.2282 -0.2243  0.1767
11616OCT     C123231  22.181   0.838  18.960 -0.0165  0.0614  0.4687
11616OCT     C223232  22.343   0.422  18.867  0.0890 -0.0677 -0.1268
11617OCT     C123233   6.548  22.332   5.492  0.2059 -0.2848  0.1207
11617OCT     C223234   6.325  22.128   5.144  0.2724 -0.3092  0.2950
11618OCT     C123235  18.392   8.351  17.412 -0.3317 -0.0042  0.2905
11618OCT     C223236  18.014   8.655  17.509  0.1075  0.1749  0.0238
11619OCT     C123237  18.648  20.282  16.623  0.1124  0.2043 -0.1648
11619OCT     C223238  18.286  20.632  16.625  0.1524  0.1319 -0.0300
11620OCT     C123239  14.738  16.315   5.767 -0.0164 -0.1878  0.0448
11620OCT     C223240  15.042  16.575   5.960  0.1832  0.3112  0.3322
11621OCT     C123241  11.170  12.093  21.183  0.5380 -0.6010  0.1853
11621OCT     C223242  11.047  12.270  21.621  0.2067 -0.0257 -0.0691
11622OCT     C123243  10.591   8.070   2.371 -0.0625 -0.1849 -0.2231
11622OCT     C223244  10.158   7.952   2.428  0.0470  0.1263 -0.1217
11623OCT     C123245  20.513  12.366  11.041  0.0149  0.2725 -0.1902
11623OCT     C223246  20.904  12.136  11.244 -0.0125 -0.1923  0.4818
11624OCT     C123247  13.172  22.419   9.277 -0.3111  0.0931  0.1088
11624OCT     C223248  13.184  22.891   9.237  0.2771  0.0022  0.3165
11625OCT     C123249   9.116  14.111  17.609 -0.0107  0.0815  0.1977
11625OCT     C223250   9.225  14.345  17.225  0.0473 -0.0619 -0.2259
11626OCT     C123251  13.529  13.730  11.986  0.0771 -0.1642  0.0482
11626OCT     C223252  13.513  13.864  12.396  0.2019 -0.0584 -0.3772
11627OCT     C123253   2.854  10.130   0.039 -0.0139  0.0731  0.2502
11627OCT     C223254   2.473   9.885  23.656  0.0690  0.4962 -0.1010
11628OCT     C123255   4.321  17.156   2.725 -0.1776  0.0911 -0.0743
11628OCT     C223256   4.690  17.290   2.387 -0.2976  0.0222  0.0062
11629OCT     C123257   9.289   6.728   8.802 -0.0550 -0.0443 -0.1067
11629OCT     C223258   9.581   6.677   9.143  0.2172  0.1276  0.2194
11630OCT     C123259   8.786  10.274   3.795  0.1606 -0.4521 -0.0435
11630OCT     C223260   8.408  10.407   4.016 -0.0056  0.1032  0.0366
11631OCT     C123261  20.269  12.433  19.361  0.4283 -0.0609  0.2079
11631OCT     C223262  20.294  12.894  19.402  0.2437  0.1970 -0.1916
11632OCT     C123263  15.906  20.235  10.859 -0.2036  0.1298 -0.0322
11632OCT     C223264  15.891  20.613  10.558  0.2194 -0.0438 -0.3755
11633OCT     C123265  14.004   6.483   6.035  0.1441 -0.0621 -0.2143
11633OCT     C223266  13.727   6.059   5.930  0.2854 -0.0144  0.0919
11634OCT     C123267   9.208  17.668   8.323  0.0502  0.2785 -0.1412
11634OCT     C223268   9.612  17.650   8.143 -0.1198  0.1341 -0.0146
11635OCT     C123269   8.657  19.193   4.836  0.0471  0.0967 -0.3654
11635OCT     C223270   8.200  19.163   4.767 -0.1372  0.0945  0.0307
11636OCT     C123271   5.895   3.638   0.102  0.3397 -0.1648  0.4767
11636OCT     C223272   5.777   3.930  23.517 -0.1506 -0.0927  0.1570
11637OCT     C123273   2.384   3.947   4.512 -0.2720  0.0666 -0.0903
11637OCT     C223274   2.253   3.892   4.050  0.1636  0.0698  0.0218
11638OCT     C123275  14.403   8.960  20.864 -0.1594 -0.0410 -0.0298
11638OCT     C223276  14.750   9.274  20.968 -0.0923  0.2555 -0.3977
11639OCT     C123277  10.471   2.214   5.579  0.2810  0.0928  0.4093
11639OCT     C223278  10.142   1.973   5.818  0.1405 -0.1750 -0.1339
11640OCT     C123279  12.135   7.153  21.984 -0.0019 -0.0127  0.2991
11640OCT     C223280  12.421   6.791  21.961 -0.1303  0.1270  0.3727
11641OCT     C123281   5.473   6.061   5.886  0.1766 -0.0892  0.0737
11641OCT     C223282   5.544   5.720   6.133 -0.0607  0.1094  0.1994
11642OCT     C123283  21.256  16.530   3.467 -0.3150  0.0262  0.4348
11642OCT     C223284  21.464  16.852   3.265  0.1226 -0.3307  0.4739
11643OCT     C123285  12.860  15.781  15.968 -0.0364 -0.0700 -0.2758
11643OCT     C223286  12.441  15.518  15.980 -0.6919 -0.0485  0.1141
11644OCT     C123287  17.268   3.309  20.267  0.2326 -0.2781 -0.1116
11644OCT     C223288  17.680   3.429  20.396  0.1220 -0.3668  0.1398
11645OCT     C123289   0.230  18.915  14.211 -0.0701  0.0089  0.1781
11645OCT     C223290  23.670  19.122  14.498 -0.1413  0.3731  0.0882
11646OCT     C123291  10.981   1.744  23.443 -0.1421 -0.0812  0.0262
11646OCT     C223292  11.199   1.986  23.117  0.2498  0.0083  0.0618
11647OCT     C123293   6.123  12.469   9.394  0.0221  0.4222 -0.2331
11647OCT     C223294   6.375  12.148   9.325  0.0586  0.3585 -0.0864
11648OCT     C123295  11.302   1.177   7.902 -0.1270  0.0083 -0.4112
11648OCT     C223296  11.575   1.340   8.225  0.0533 -0.0612  0.0511
11649OCT     C123297   0.279  19.840   3.954  0.2261 -0.4650 -0.0900
11649OCT     C223298   0.076  20.039   3.569 -0.4034 -0.0283  0.1463
11650OCT     C123299  17.688  12.180  23.494  0.0201 -0.1058 -0.0102
11650OCT     C223300  18.086  12.223  23.445 -0.2802 -0.1032  0.0231
11651OCT     C123301   6.702   5.398  10.700 -0.0699 -0.3597  0.1471
11651OCT     C223302   7.186   5.486  10.737  0.2088 -0.3398  0.1276
11652OCT     C123303  13.266   6.278  11.032 -0.0442 -0.0979  0.0366
11652OCT     C223304  13.135   6.429  10.652  0.1206 -0.1893 -0.1651
11653OCT     C123305  17.712  23.367   9.599 -0.4376 -0.0442  0.1429
11653OCT     C223306  18.131  23.552   9.745  0.0052 -0.1023 -0.2577
11654OCT     C123307   5.914  10.586   4.147 -0.2281  0.0406 -0.2024
11654OCT     C223308   5.525  10.328   4.121  0.0441  0.3300 -0.1245
11655OCT     C123309  23.613  17.113  13.208 -0.1132  0.0905  0.1674
11655OCT     C223310  23.323  17.414  13.351  0.2875 -0.0472 -0.0334
11656OCT     C123311  18.742  14.681   0.994  0.2447 -0.0526  0.2060
11656OCT     C223312  18.632  14.277   0.754  0.1656 -0.0780 -0.3102
11657OCT     C123313  21.512  10.916  18.572  0.1018  0.1213  0.0274
11657OCT     C223314  21.631  11.218  18.244 -0.3995  0.0523 -0.1424
11658OCT     C123315   4.709  13.388  20.427 -0.0050 -0.1738 -0.2835
11658OCT     C223316   5.019  13.590  20.177 -0.1322 -0.6286 -0.1264
11659OCT     C123317   5.874  22.258  21.162 -0.0851  0.2296  0.2251
11659OCT     C223318   5.849  22.676  21.205  0.0500 -0.1089  0.3130
11660OCT     C123319  13.461   1.314   1.019 -0.2113  0.0359 -0.1533
11660OCT     C223320  13.908   1.515   1.015  0.1571  0.3932  0.1025
11661OCT     C123321  18.332  22.268   1.847  0.1178 -0.1663 -0.0962
11661OCT     C223322  17.878  22.295   1.901 -0.1423 -0.3613 -0.4029
11662OCT     C123323  22.002   4.549   8.663  0.3375 -0.4853  0.2371
11662OCT     C223324  21.925   4.999   8.918  0.2300  0.0263 -0.2059
11663OCT     C123325   9.527   5.570  20.357 -0.2496  0.0753 -0.0167
11663OCT     C223326   9.075   5.711  20.483 -0.0562 -0.2253  0.1186
11664OCT     C123327  12.343  18.850   0.086 -0.2733  0.3257 -0.1823
11664OCT     C223328  12.767  18.784   0.273  0.2733 -0.1594  0.0595
11665OCT     C123329  17.545  14.188   0.046 -0.1616  0.1715  0.1098
11665OCT     C223330  17.928  13.980  23.587 -0.0507  0.3322  0.0122
11666OCT     C123331  22.113   6.393  10.823 -0.0281 -0.0580  0.4846
11666OCT     C223332  22.218   6.614  10.445 -0.2331 -0.3195  0.0870
11667OCT     C123333   7.532  16.167  10.143 -0.1802  0.0192  0.5073
11667OCT     C223334   7.705  16.439  10.490 -0.1183  0.0921  0.0338
11668OCT     C123335   4.318   1.925  15.037 -0.5293  0.0914  0.0089
11668OCT     C223336   4.067   2.244  15.264  0.0969 -0.0684  0.1696
11669OCT     C123337  13.268  10.831  21.130 -0.0034  0.2607  0.0710
11669OCT     C223338  13.033  10.769  20.740  0.0507  0.3250  0.2755
11670OCT     C123339  10.702  10.599  11.271 -0.1557  0.0326  0.1099
11670OCT     C223340  10.904  11.042  11.201  0.2549  0.0441  0.0945
11671OCT     C123341   4.901   0.899  21.223  0.2235  0.0804 -0.4264
11671OCT     C223342   4.843   0.405  21.303  0.1544 -0.1595  0.1267
11672OCT     C123343   2.524   8.250  20.482 -0.2869 -0.1093  0.0559
11672OCT     C223344   2.407   7.787  20.455  0.4539  0.0250 -0.2747
11673OCT     C123345  14.229   7.503  23.708 -0.0472  0.2682  0.0203
11673OCT     C223346  14.611   7.669  23.552  0.0589  0.1634 -0.0715
11674OCT     C123347  15.096   1.232   9.794  0.0329 -0.0296 -0.2339
11674OCT     C223348  15.432   1.419   9.550 -0.0713 -0.0341  0.6788
11675OCT     C123349   6.793  10.263  17.969  0.2185 -0.3399  0.0605
11675OCT     C223350   6.919  10.693  18.069  0.1502  0.0456 -0.2689
11676OCT     C123351  21.129   6.800   4.798  0.3552  0.2181  0.3074
11676OCT     C223352  21.083   6.298   4.689  0.2702 -0.2273  0.2129
11677OCT     C123353  15.996   7.155   1.803 -0.0585 -0.1288 -0.4562
11677OCT     C223354  16.176   6.723   1.844 -0.0828 -0.1066 -0.1711
11678OCT     C123355   1.892  21.380   1.584  0.4059  0.2746 -0.1257
11678OCT     C223356   1.982  21.436   1.168  0.1258 -0.4056 -0.1484
11679OCT     C123357   1.712   7.089  19.166  0.0779  0.1914 -0.1571
11679OCT     C223358   1.601   7.483  19.491  0.0871 -0.1576  0.0659
11680OCT     C123359  16.493   6.302  11.962  0.0905  0.0871 -0.3149
11680OCT     C223360  16.944   6.294  11.904 -0.2740  0.0711 -0.2751
11681OCT     C123361   3.634   6.610  18.295 -0.0047 -0.2554 -0.1506
11681OCT     C223362   3.615   7.073  18.141 -0.2018  0.2104  0.4813
11682OCT     C123363   9.333  20.373  19.611  0.0308 -0.5679  0.2425
11682OCT     C223364   9.722  20.093  19.490  0.2626 -0.2352 -0.2038
11683OCT     C123365   4.213  14.348  11.831  0.2388  0.0809  0.1386
11683OCT     C223366   4.500  14.296  11.409 -0.0850 -0.3427 -0.2482
11684OCT     C123367  14.448  15.564  22.355  0.0145  0.1300  0.0599
11684OCT     C223368  14.268  15.949  22.421 -0.1433  0.4256 -0.0467
11685OCT     C123369  10.053   4.799  12.356 -0.1483  0.0674 -0.5243
11685OCT     C223370  10.514   4.696  12.141  0.0095 -0.1116  0.2622
11686OCT     C123371   0.589   0.097  23.736  0.0053  0.4301 -0.0880
11686OCT     C223372   0.822  23.725  23.341  0.2588  0.2461 -0.0447
11687OCT     C123373  20.161  22.143   2.930 -0.2689 -0.1533 -0.1807
11687OCT     C223374  19.699  22.210   3.090 -0.0137  0.3230 -0.0025
11688OCT     C123375  12.146  16.474  22.908  0.0868 -0.2666 -0.1196
11688OCT     C223376  11.723  16.625  23.032 -0.1385 -0.3086  0.0114
11689OCT     C123377   6.914  14.264   8.124 -0.2566 -0.2110 -0.1058
11689OCT     C223378   7.243  14.585   8.090  0.0607  0.1347  0.1037
11690OCT     C123379   7.429  11.922  14.097  0.1109 -0.2146 -0.1145
11690OCT     C223380   7.179  12.154  13.755 -0.1041 -0.1762  0.3230
11691OCT     C123381  17.865   3.078  13.157 -0.1745 -0.0870  0.2318
11691OCT     C223382  18.369   3.210  13.280  0.3193 -0.0965 -0.1069
11692OCT     C123383  16.828  18.235  22.353 -0.2966 -0.1856  0.4578
11692OCT     C223384  17.102  18.442  22.622 -0.3603  0.3286  0.0008
11693OCT     C123385  18.982   8.175  21.419 -0.1588 -0.1138 -0.1339
11693OCT     C223386  18.768   8.143  21.840  0.4581 -0.0760  0.1306
11694OCT     C123387   5.673   4.721   2.593  0.0155 -0.1775 -0.1873
11694OCT     C223388   5.743   4.270   2.502  0.5129  0.6688 -0.0855
11695OCT     C123389  15.445  17.935   1.006 -0.0101 -0.3537 -0.2900
11695OCT     C223390  15.557  17.643   0.661  0.0529 -0.1121 -0.1807
11696OCT     C123391  18.142  23.599  14.669  0.4452  0.1087 -0.0235
11696OCT     C223392  18.251   0.215  14.424  0.1316 -0.2594  0.2094
11697OCT     C123393   5.650   3.939  21.217  0.0476  0.0561 -0.3366
11697OCT     C223394   5.644   4.132  21.684 -0.0157  0.2309 -0.1880
11698OCT     C123395   2.869   9.462   2.064  0.1778  0.0574  0.0792
11698OCT     C223396   3.327   9.708   2.031  0.2455 -0.0856  0.3149
11699OCT     C123397  11.811   9.393   5.947 -0.0091 -0.2679  0.0943
11699OCT     C223398  11.818   9.249   5.501  0.0500 -0.0199  0.2357
11700OCT     C123399  16.286  10.768  20.311  0.2257  0.3686 -0.0946
11700OCT     C223400  16.040  10.644  20.676  0.2093  0.3820 -0.0519
11701OCT     C123401  11.042  21.510  17.763  0.0753 -0.0434 -0.5151
11701OCT     C223402  10.833  21.189  18.031 -0.1981  0.1138 -0.0496
11702OCT     C123403  15.192   7.639  11.475  0.0532  0.3251 -0.4114
11702OCT     C223404  15.287   7.356  11.833  0.0132  0.0543  0.1371
11703OCT     C123405  12.176  12.581  22.213  0.4203 -0.2823  0.0769
11703OCT     C223406  12.356  12.225  22.419 -0.2443 -0.1609  0.3226
11704OCT     C123407  13.374  18.451  11.599  0.0213  0.1829 -0.1035
11704OCT     C223408  12.877  18.468  11.628 -0.1629 -0.0382  0.3561
11705OCT     C123409  10.506  10.192  12.556  0.2239 -0.1155  0.1902
11705OCT     C223410  10.592   9.693  12.548  0.0752 -0.3274  0.1090
11706OCT     C123411  14.061   0.015   8.389 -0.3514 -0.2866  0.0463
11706OCT     C223412  14.590  23.732   8.461 -0.2172 -0.5745 -0.3199
11707OCT     C123413   2.865  20.573  19.347  0.1830  0.0897  0.2028
11707OCT     C223414   3.150  20.648  18.974 -0.3719 -0.0273 -0.0747
11708OCT     C123415   9.944  17.706  19.030  0.0693  0.0045  0.1302
11708OCT     C223416  10.024  17.568  18.559 -0.0385  0.3697 -0.0466
11709OCT     C123417  19.098  10.902  17.809 -0.0760  0.3053  0.3589
11709OCT     C223418  19.203  10.508  18.062 -0.1891  0.0887 -0.0548
11710OCT     C123419  12.187  12.953   5.840  0.3170 -0.0554  0.1721
11710OCT     C223420  11.859  12.809   6.197  0.1070 -0.4012  0.0214
11711OCT     C123421   2.014  19.741  10.410  0.0284  0.0166  0.2753
11711OCT     C223422   2.444  20.023  10.515  0.0529 -0.0408 -0.1785
11712OCT     C123423  16.729  22.744  22.212  0.0530  0.0757  0.1757
11712OCT     C223424  16.264  22.725  22.203 -0.3731 -0.0543 -0.1328
11713OCT     C123425  22.218   6.748   7.280 -0.1919  0.1277 -0.1246
11713OCT     C223426  22.512   7.100   7.260 -0.1113 -0.2902 -0.2210
11714OCT     C123427  17.979  12.996  15.405  0.0775 -0.2936 -0.2269
11714OCT     C223428  18.316  13.247  15.175  0.2611  0.1885 -0.1244
11715OCT     C123429  11.212  14.047   0.846 -0.0771 -0.3175 -0.2724
11715OCT     C223430  11.395  13.578   0.890  0.1848  0.0989 -0.2593
11716OCT     C123431   1.449  21.312   1.000  0.1370 -0.3775  0.1854
11716OCT     C223432   1.876  21.285   0.698  0.3828  0.0597  0.5055
11717OCT     C123433  15.344   3.206  15.470 -0.2108  0.0457  0.0687
11717OCT     C223434  15.582   2.804  15.634  0.1118 -0.1290 -0.0423
11718OCT     C123435  14.905   5.192  20.282 -0.2755  0.1068 -0.0687
11718OCT     C223436  14.865   5.165  20.761 -0.2100  0.0859  0.2964
11719OCT     C123437  20.046   8.412  16.627  0.1979  0.0495  0.1942
11719OCT     C223438  19.976   8.692  16.255 -0.1213 -0.3968 -0.1695
11720OCT     C123439   6.617  12.482  13.111 -0.3747  0.3529 -0.0193
11720OCT     C223440   6.927  12.878  13.133  0.1250 -0.0425  0.2509
11721OCT     C123441  14.266  22.054  11.789 -0.0467 -0.1124  0.1902
11721OCT     C223442  13.856  22.033  11.529  0.0039  0.0672 -0.0153
11722OCT     C123443  15.519   5.195   2.851 -0.2695 -0.3580  0.0921
11722OCT     C223444  15.841   5.555   3.055 -0.1949 -0.1697 -0.2598
11723OCT     C123445  14.202   2.269   1.548  0.0846  0.0354 -0.0012
11723OCT     C223446  14.014   1.979   1.852 -0.1551  0.3276 -0.2121
11724OCT     C123447   7.453  15.683   3.394  0.2155 -0.1134 -0.1845
11724OCT     C223448   7.445  15.841   2.950 -0.1426  0.2740 -0.0628
11725OCT     C123449  14.076  14.707  19.123  0.0442 -0.2312  0.4621
11725OCT     C223450  14.047  14.520  18.759  0.4584 -0.1221  0.1332
11726OCT     C123451  10.000   1.835  21.328 -0.4075 -0.0440  0.1425
11726OCT     C223452   9.860   1.633  21.723 -0.2295  0.0012 -0.1575
11727OCT     C123453   6.937   5.899  16.816 -0.0491  0.1234 -0.1234
11727OCT     C223454   7.039   5.429  16.885  0.1848 -0.0013  0.5327
11728OCT     C123455   2.962   1.230  18.242  0.1508  0.0266 -0.1396
11728OCT     C223456   2.756   1.501  18.564  0.0633 -0.1536 -0.0364
11729OCT     C123457   3.698  21.553   9.666  0.1002  0.2915 -0.1055
11729OCT     C223458   3.245  21.580   9.544  0.1105  0.2292 -0.0139
11730OCT     C123459  13.063  19.469  20.055  0.0901  0.2089  0.2072
11730OCT     C223460  13.464  19.598  20.226  0.0653 -0.0473 -0.2479
11731OCT     C123461  18.349   0.852  18.570 -0.0884  0.2421  0.1031
11731OCT     C223462  18.096   1.029  18.881 -0.0443 -0.0869  0.1125
11732OCT     C123463   3.161  10.928  15.131 -0.1525 -0.0154  0.1848
11732OCT     C223464   2.746  10.877  15.325 -0.1210 -0.1617 -0.0020
11733OCT     C123465   1.371  11.036  16.373 -0.0164  0.0328 -0.2488
11733OCT     C223466   1.713  10.906  16.599 -0.0736 -0.0071  0.0362
11734OCT     C123467  23.272  17.904  11.644  0.1314  0.3936  0.1306
11734OCT     C223468  23.161  18.066  12.077  0.2220  0.0931 -0.0343
11735OCT     C123469  23.696   6.934  10.762 -0.2615 -0.3629 -0.3493
11735OCT     C223470   0.430   7.012  10.621  0.1144 -0.2493 -0.1837
11736OCT     C123471  23.141  23.195   7.716 -0.0533 -0.0256  0.0568
11736OCT     C223472  23.127  23.009   8.163 -0.0818  0.1489 -0.1761
11737OCT     C123473  13.583   7.903   1.472  0.0506 -0.1146  0.0297
11737OCT     C223474  13.154   7.685   1.468 -0.3646  0.0779  0.2427
11738OCT     C123475   6.044   1.207  17.850 -0.2925 -0.0583 -0.1901
11738OCT     C223476   5.716   1.347  18.192 -0.2405  0.0984  0.4850
11739OCT     C123477   9.920  14.151   9.179  0.0578  0.3585  0.0745
11739OCT     C223478  10.193  13.964   8.853 -0.3440  0.0533  0.0834
11740OCT     C123479   6.387  23.073  18.502  0.2664  0.0570  0.0176
11740OCT     C223480   6.383  22.758  18.845 -0.2610  0.0425  0.1409
11741OCT     C123481   0.389  13.905  16.374 -0.2219 -0.2148 -0.0015
11741OCT     C223482   0.065  13.906  16.111  0.1363 -0.1488 -0.1020
11742OCT     C123483  10.795  20.675  17.347 -0.0655  0.1774  0.1875
11742OCT     C223484  10.371  20.534  17.415 -0.0027 -0.1191  0.1759
11743OCT     C123485   9.450   1.093  12.121 -0.0874  0.1581 -0.0910
11743OCT     C223486   9.481   0.700  11.787  0.0117  0.4199  0.0756
11744OCT     C123487   5.933  22.987   6.585 -0.3714  0.2026 -0.2022
11744OCT     C223488   5.779  23.222   6.265  0.2286 -0.2050 -0.2893
11745OCT     C123489  10.689  13.538  12.539  0.0119 -0.0889  0.1654
11745OCT     C223490  10.327  13.311  12.385 -0.4872  0.0140 -0.2532
11746OCT     C123491  18.107  20.473   4.240 -0.1764 -0.0407  0.0358
11746OCT     C223492  18.161  20.572   3.766  0.4270  0.1676  0.2815
11747OCT     C123493  17.032  17.065   0.248 -0.3641 -0.0804  0.1148
11747OCT     C223494  17.345  17.012  23.601  0.1323  0.1461 -0.0143
11748OCT     C123495   6.805   4.831  15.035 -0.0968 -0.1704 -0.0636
11748OCT     C223496   6.698   5.224  14.906  0.0469 -0.1592  0.1354
11749OCT     C123497   6.254   5.280  15.134  0.1125  0.0929 -0.1797
11749OCT     C223498   6.036   5.643  15.032  0.2817  0.2556  0.1055
11750OCT     C123499   4.002   5.984  12.549  0.2267 -0.1417 -0.3679
11750OCT     C223500   4.091   6.295  12.241 -0.3414  0.3496 -0.3814
11751OCT     C123501  23.470  13.154  12.370  0.1173  0.0754  0.1419
11751OCT     C223502  23.295  13.567  12.434 -0.0478 -0.1380  0.1099
11752OCT     C123503   7.221   3.379   1.612 -0.0687 -0.2148 -0.0806
11752OCT     C223504   7.087   3.496   2.001  0.0482 -0.0636 -0.1517
11753OCT     C123505  23.182   9.152  22.112  0.0322  0.0356 -0.1829
11753OCT     C223506  23.055   8.705  22.202 -0.2843  0.4913  0.0405
11754OCT     C123507  15.137  17.434   6.841 -0.1510 -0.2991  0.1451
11754OCT     C223508  15.335  17.538   6.454  0.0932  0.2573  0.0218
11755OCT     C123509   7.619  21.838   2.541 -0.0114  0.5377  0.1965
11755OCT     C223510   7.256  21.973   2.319 -0.1442  0.1922  0.1377
11756OCT     C123511  10.334  23.690  16.760 -0.1768  0.0155  0.1973
11756OCT     C223512  10.284  23.320  17.084  0.3105  0.0490 -0.0681
11757OCT     C123513  15.821  22.812   0.552  0.2180  0.0840  0.1260
11757OCT     C223514  16.063  23.042   0.216 -0.2689  0.4925  0.0028
11758OCT     C123515  17.071   4.245  10.244 -0.1495 -0.3063  0.0600
11758OCT     C223516  17.283   4.030  10.712  0.2037 -0.2092  0.1726
11759OCT     C123517  18.882   7.652   1.778 -0.0062 -0.0335  0.2481
11759OCT     C223518  18.798   7.260   2.033  0.1268 -0.4762  0.2199
11760OCT     C123519   7.796  20.788  10.181  0.0602 -0.1997  0.0807
11760OCT     C223520   8.188  20.887   9.981  0.1379 -0.2153 -0.1359
11761OCT     C123521  20.483  16.659  20.993  0.0294  0.0711  0.0424
11761OCT     C223522  20.611  17.027  21.205 -0.0146 -0.1302  0.2244
11762OCT     C123523  12.250   2.646  18.440 -0.1062  0.0483 -0.0224
11762OCT     C223524  12.335   2.269  18.216  0.1039 -0.0983  0.2297
11763OCT     C123525   4.237   7.457   0.796  0.0512  0.0954 -0.1161
11763OCT     C223526   3.775   7.558   0.729 -0.0092  0.0232  0.1522
11764OCT     C123527  16.310   0.114  10.322 -0.1986 -0.2223  0.0291
11764OCT     C223528  16.422   0.554  10.378 -0.2711 -0.1394  0.0217
11765OCT     C123529   9.039  17.525  10.971 -0.2073 -0.5396  0.1807
11765OCT     C223530   8.834  17.323  10.606  0.1432  0.0570  0.0471
11766OCT     C123531  22.519  18.224   0.922  0.0611 -0.0922  0.2656
11766OCT     C223532  22.350  18.638   0.791  0.3592  0.2891  0.0855
11767OCT     C123533   4.228  10.973  15.107  0.4879 -0.0938  0.2456
11767OCT     C223534   3.741  11.026  15.177  0.0714 -0.2430  0.3307
11768OCT     C123535  22.095  10.164  16.843  0.2136  0.1303  0.1310
11768OCT     C223536  21.671  10.119  16.690  0.2257  0.0138  0.0939
11769OCT     C123537   9.069   1.588   9.091 -0.1694 -0.1131  0.3486
11769OCT     C223538   9.359   1.612   9.405 -0.2689  0.0627 -0.5272
11770OCT     C123539  14.490   1.968  10.280  0.1135  0.2770  0.0945
11770OCT     C223540  14.952   1.945  10.284 -0.0647  0.0642  0.2985
11771OCT     C123541  22.033   7.289  17.434  0.2111  0.0255 -0.2091
11771OCT     C223542  22.169   6.965  17.119 -0.2691 -0.0218 -0.0189
11772OCT     C123543  19.539  15.028  19.760  0.0430  0.2620  0.0536
11772OCT     C223544  19.602  15.004  19.324  0.0176 -0.2346  0.0393
11773OCT     C123545  14.093  19.005  17.535 -0.0810  0.0824  0.0114
11773OCT     C223546  13.891  18.987  17.107  0.2676  0.1420  0.3101
11774OCT     C123547  19.571  15.255  21.171  0.1535  0.1878  0.1367
11774OCT     C223548  19.192  15.006  21.135 -0.0859 -0.1315  0.2803
11775OCT     C123549   8.548   0.328   3.808 -0.2387  0.0527  0.3912
11775OCT     C223550   8.438  23.594   3.822 -0.0528 -0.0006 -0.0764
11776OCT     C123551   2.169  21.135  14.131  0.2892 -0.1842 -0.1172
11776OCT     C223552   2.528  21.413  14.279  0.2014  0.1096 -0.0118
11777OCT     C123553   8.186  16.478  21.954 -0.1368  0.1457 -0.3219
11777OCT     C223554   8.338  16.346  21.557 -0.3843 -0.6890  0.1888
11778OCT     C123555  12.198  22.054   7.898  0.2311  0.3708 -0.0029
11778OCT     C223556  12.192  22.324   7.482  0.0613 -0.0149 -0.2765
11779OCT     C123557  22.544  19.584   6.931  0.2287  0.1334 -0.0914
11779OCT     C223558  22.123  19.547   7.170 -0.0389  0.3248 -0.0931
11780OCT     C123559  12.767  14.009  17.924  0.0984 -0.0572 -0.0422
11780OCT     C223560  12.647  14.178  18.343  0.1257  0.1894  0.0785
11781OCT     C123561  19.807  16.882   7.318 -0.1570  0.3967  0.1943
11781OCT     C223562  19.373  16.652   7.477  0.1903  0.1606  0.1011
11782OCT     C123563  21.697  19.817  14.212 -0.1667  0.1267 -0.6510
11782OCT     C223564  21.807  19.461  14.504 -0.1384  0.4754  0.4073
11783OCT     C123565  22.310  10.240  20.589 -0.2142  0.2315  0.0652
11783OCT     C223566  21.925   9.947  20.571  0.4528  0.0842 -0.2688
11784OCT     C123567  13.394  20.441   5.899  0.4607  0.0842  0.1131
11784OCT     C223568  13.003  20.204   5.819 -0.0252 -0.0362  0.5348
11785OCT     C123569   2.794  21.034  14.790  0.0223 -0.0431 -0.0487
11785OCT     C223570   2.814  20.777  15.209  0.3104  0.1580 -0.1369
11786OCT     C123571   4.090   8.868  13.651 -0.3148  0.1185  0.2592
11786OCT     C223572   4.262   8.496  13.871  0.0321  0.0224  0.1780
11787OCT     C123573  14.047   4.290  14.370  0.2204  0.1035  0.0730
11787OCT     C223574  13.704   4.630  14.430 -0.0066  0.2935  0.0448
11788OCT     C123575   4.738   2.975  18.678  0.3292  0.0724 -0.1356
11788OCT     C223576   4.503   3.371  18.723 -0.2281 -0.0886 -0.1292
11789OCT     C123577  14.365   9.667   0.843 -0.0280  0.2890  0.0889
11789OCT     C223578  14.382   9.831   0.408  0.4743  0.1101 -0.0073
11790OCT     C123579   5.275   3.741  14.574 -0.0735 -0.0109  0.3469
11790OCT     C223580   5.422   4.186  14.474  0.2374  0.5428  0.4602
11791OCT     C123581  22.866  13.327   7.047 -0.2510  0.0583  0.0681
11791OCT     C223582  23.132  13.620   6.707 -0.0468 -0.2310  0.3964
11792OCT     C123583  22.901  19.849   0.153 -0.1900  0.3298  0.2052
11792OCT     C223584  22.477  19.980   0.248 -0.1860 -0.0965  0.0202
11793OCT     C123585  14.849   0.625  12.223  0.3249 -0.1222  0.3132
11793OCT     C223586  14.997   0.968  11.903 -0.2645  0.1552  0.1464
11794OCT     C123587   8.431  15.188  23.557  0.1464  0.1909  0.1752
11794OCT     C223588   8.793  15.027   0.077  0.2428  0.2062 -0.2586
11795OCT     C123589  14.911   4.913  18.460 -0.5827  0.0333 -0.0420
11795OCT     C223590  14.651   5.218  18.755 -0.2532 -0.1735 -0.1543
11796OCT     C123591  16.238  14.935  16.628 -0.0601 -0.1589 -0.2185
11796OCT     C223592  16.483  14.577  16.432  0.5151  0.0797  0.3285
11797OCT     C123593  10.140   7.340   2.385 -0.2423 -0.0810 -0.4396
11797OCT     C223594  10.411   7.622   2.083  0.0314  0.3041 -0.2160
11798OCT     C123595  19.994   6.479   4.440  0.1721 -0.1121 -0.0211
11798OCT     C223596  19.481   6.486   4.344 -0.0913 -0.0572  0.1307
11799OCT     C123597  11.642   3.073   0.635 -0.0925 -0.1386 -0.3197
11799OCT     C223598  11.644   2.693   0.398 -0.1119  0.3993  0.1565
11800OCT     C123599   7.603  16.050  14.254 -0.0530 -0.2946 -0.1135
11800OCT     C223600   7.719  15.893  13.845 -0.2708 -0.1155 -0.0699
11801OCT     C123601  23.153   0.525   2.591  0.0152  0.0799  0.1675
11801OCT     C223602  22.794   0.417   2.265 -0.1851  0.0534  0.0428
11802OCT     C123603  12.559  14.106  12.340 -0.0045  0.1750 -0.0377
11802OCT     C223604  12.983  13.999  12.555  0.2858 -0.2196  0.1365
11803OCT     C123605  13.648  10.811  14.531 -0.0445 -0.2626 -0.0956
11803OCT     C223606  13.733  10.361  14.682 -0.0794  0.0430 -0.1066
11804OCT     C123607  17.023   1.494   0.525 -0.2947 -0.1473 -0.3160
11804OCT     C223608  17.213   1.914   0.715 -0.2132 -0.0714  0.1825
11805OCT     C123609  16.610   5.859  13.454 -0.1797 -0.0511 -0.0277
11805OCT     C223610  16.316   5.471  13.339 -0.1047  0.0103  0.0685
11806OCT     C123611   8.802  21.582   1.754  0.0624  0.2678 -0.1502
11806OCT     C223612   8.403  21.448   1.587  0.2098  0.0613 -0.1136
11807OCT     C123613  20.579  16.538   1.483 -0.2171 -0.5700 -0.4276
11807OCT     C223614  20.819  16.978   1.667 -0.2466 -0.3061 -0.2519
11808OCT     C123615   1.902   3.239  13.672  0.1728 -0.1712  0.3257
11808OCT     C223616   1.892   3.342  14.136  0.1223 -0.2508 -0.1270
11809OCT     C123617   8.248  22.729   1.429  0.0893  0.1438  0.0233
11809OCT     C223618   8.231  22.336   1.695  0.1031  0.3692 -0.2585
11810OCT     C123619   9.564   5.925  18.538  0.2104 -0.4454  0.1121
11810OCT     C223620   9.911   5.711  18.759  0.0599 -0.4686 -0.2264
11811OCT     C123621   8.155  12.401   3.242  0.0436  0.2170  0.1446
11811OCT     C223622   8.474  12.746   3.129  0.2252  0.0041 -0.4392
11812OCT     C123623  22.817   1.994  14.291  0.0145 -0.3606 -0.0225
11812OCT     C223624  23.047   2.402  14.248  0.0458  0.3208  0.0455
11813OCT     C123625   9.214   8.982  14.141  0.1433 -0.0418 -0.0125
11813OCT     C223626   9.292   8.781  14.565 -0.0509 -0.1802  0.1357
11814OCT     C123627  22.034  19.040   2.999  0.2905  0.0164  0.0274
11814OCT     C223628  21.875  19.458   2.797 -0.2824 -0.0400  0.1123
11815OCT     C123629  11.380   9.292  20.172 -0.1371  0.0733  0.0890
11815OCT     C223630  11.117   9.171  19.852  0.2818  0.2057  0.0658
11816OCT     C123631  21.153   7.414  23.169  0.1810 -0.1283 -0.2392
11816OCT     C223632  20.718   7.671  23.275 -0.2109  0.0285 -0.0957
11817OCT     C123633   8.661   1.964  12.189  0.3470 -0.6068  0.0405
11817OCT     C223634   8.507   1.629  11.989  0.4531 -0.2494 -0.0295
11818OCT     C123635  12.406  17.448  20.255 -0.0577 -0.1672  0.1687
11818OCT     C223636  12.316  17.217  20.608  0.0176  0.4418  0.0976
11819OCT     C123637  19.327   1.344   7.950  0.1359 -0.1859 -0.1447
11819OCT     C223638  19.462   1.647   8.302  0.0098 -0.2851 -0.1174
11820OCT     C123639   6.819   6.765  18.800 -0.3154  0.1923 -0.1822
11820OCT     C223640   6.523   6.384  18.929 -0.2958 -0.0454  0.1178
11821OCT     C123641  14.006  11.475   2.302  0.0695 -0.0099 -0.2912
11821OCT     C223642  14.430  11.350   2.151  0.2262 -0.3050  0.1438
11822OCT     C123643   6.110  20.271  19.311  0.1771 -0.0474  0.4578
11822OCT     C223644   6.430  20.241  19.640 -0.3021  0.1180 -0.0738
11823OCT     C123645   5.160  19.208   4.757 -0.1377  0.3035  0.0202
11823OCT     C223646   4.774  19.494   4.684  0.1829  0.0230  0.0232
11824OCT     C123647   5.917  14.417  13.917 -0.1263 -0.0634  0.2756
11824OCT     C223648   6.081  14.057  14.149 -0.0735  0.1333 -0.0398
11825OCT     C123649  16.377   8.699  13.071 -0.2139 -0.1034 -0.0641
11825OCT     C223650  16.272   9.166  13.119  0.0735 -0.1250 -0.1859
11826OCT     C123651  21.454   7.629   5.829  0.2144 -0.1501  0.1370
11826OCT     C223652  21.859   7.331   5.801 -0.1405 -0.0987 -0.0813
11827OCT     C123653  13.757  10.167   2.765  0.1379  0.3185 -0.3393
11827OCT     C223654  13.411  10.289   2.467 -0.1826 -0.3232  0.3884
11828OCT     C123655   1.637  23.536  15.543  0.0070  0.1249 -0.5518
11828OCT     C223656   1.442   0.145  15.871 -0.2876  0.2853  0.2559
11829OCT     C123657  12.290  20.183   2.288 -0.1628  0.1565 -0.1655
11829OCT     C223658  12.584  20.502   2.422 -0.2206 -0.0468 -0.0972
11830OCT     C123659   6.908   3.932   6.370  0.1147  0.0303  0.1430
11830OCT     C223660   6.989   3.518   6.156  0.0994  0.1952 -0.2347
11831OCT     C123661  11.430  12.970  14.520  0.0310  0.1724 -0.0542
11831OCT     C223662  11.341  13.180  14.957 -0.4055  0.1143 -0.0500
11832OCT     C123663  15.946   6.688  21.233 -0.2121 -0.0853  0.1685
11832OCT     C223664  16.044   6.278  21.042 -0.0432  0.3425 -0.1253
11833OCT     C123665  18.669  23.283  17.020  0.2215  0.1216 -0.2198
11833OCT     C223666  18.910  23.405  17.385 -0.2397  0.3876  0.0619
11834OCT     C123667  12.038  12.792   1.812 -0.1409 -0.1448  0.3553
11834OCT     C223668  12.257  12.758   2.169 -0.2284 -0.0006  0.1179
11835OCT     C123669  21.179   1.504  12.231 -0.0077 -0.2678 -0.0550
11835OCT     C223670  20.884   1.161  12.366 -0.0886  0.2883 -0.1008
11836OCT     C123671  23.633  19.555  23.099 -0.2321  0.1548  0.1636
11836OCT     C223672  23.226  19.575  23.266  0.1522  0.1919 -0.1835
11837OCT     C123673  20.520  11.235   0.298  0.1847  0.2454 -0.3964
11837OCT     C223674  20.703  11.478   0.653  0.3216  0.3152  0.0483
11838OCT     C123675   8.418   6.169  13.574 -0.1245  0.2873  0.1434
11838OCT     C223676   8.739   6.012  13.280 -0.1928 -0.2334 -0.1739
11839OCT     C123677   7.445   9.604  14.560 -0.4948 -0.1151 -0.2490
11839OCT     C223678   7.950   9.471  14.513  0.3312 -0.0221 -0.3774
11840OCT     C123679   5.128   9.727  19.435  0.1245  0.0722 -0.0497
11840OCT     C223680   5.451  10.055  19.538 -0.1454  0.4284 -0.1434
11841OCT     C123681   3.723   6.547  22.523  0.5939  0.0993 -0.1451
11841OCT     C223682   3.559   6.103  22.519 -0.1208 -0.0074 -0.0496
11842OCT     C123683  20.576  22.548   4.309  0.0117  0.1079  0.0066
11842OCT     C223684  20.397  22.955   4.338 -0.2320 -0.1348 -0.0968
11843OCT     C123685  20.113  11.147   4.823 -0.2778 -0.2954 -0.2939
11843OCT     C223686  20.346  11.441   5.114 -0.2197  0.0630  0.3472
11844OCT     C123687   2.115  16.207  11.295 -0.0389 -0.0729 -0.2075
11844OCT     C223688   2.005  16.250  10.834 -0.0782  0.1104 -0.1621
11845OCT     C123689   6.616   2.477  12.044  0.1930  0.3281  0.3243
11845OCT     C223690   6.771   2.202  12.433 -0.3162  0.2679  0.1105
11846OCT     C123691   0.676  18.054  14.351 -0.2611  0.1090 -0.1774
11846OCT     C223692   1.070  18.017  14.588 -0.0873  0.0446 -0.3028
11847OCT     C123693  15.724  18.897  22.021 -0.2627  0.2968  0.3235
11847OCT     C223694  15.280  18.707  21.969 -0.0078 -0.1865 -0.3427
11848OCT     C123695   3.047   7.656  12.834  0.0516 -0.0768 -0.1837
11848OCT     C223696   3.128   7.230  12.771  0.2352  0.2006 -0.0774
11849OCT     C123697   4.469  23.722  15.527  0.0596 -0.2860 -0.0588
11849OCT     C223698   4.156  23.570  15.843 -0.0621 -0.1319  0.3184
11850OCT     C123699  19.783   6.529  23.385 -0.2570 -0.0524 -0.1002
11850OCT     C223700  19.794   6.182  23.623 -0.1998 -0.2132 -0.2807
11851OCT     C123701  11.764   3.385   1.853  0.2262 -0.1636 -0.2927
11851OCT     C223702  11.737   3.282   2.371  0.2742  0.2430  0.1269
11852OCT     C123703   9.259  16.774  20.099  0.0665 -0.0723 -0.2319
11852OCT     C223704   9.177  16.471  20.451 -0.0206  0.1218 -0.0367
11853OCT     C123705  17.911   7.927   6.075  0.3094  0.1720 -0.4541
11853OCT     C223706  18.329   7.675   6.183 -0.0830  0.0286 -0.0788
11854OCT     C123707  12.073  19.533   9.204 -0.2155  0.2620  0.1322
11854OCT     C223708  12.018  19.129   9.398 -0.2451  0.2471  0.2850
11855OCT     C123709  22.857   6.047   2.669 -0.1849  0.1362  0.1684
11855OCT     C223710  22.722   5.644   2.868 -0.0529 -0.4040  0.1420
11856OCT     C123711   9.762   3.653   4.524  0.0267 -0.0958  0.1218
11856OCT     C223712  10.161   3.688   4.759  0.0179 -0.4425 -0.1381
11857OCT     C123713  21.426  18.314  19.406 -0.0090 -0.0786  0.3279
11857OCT     C223714  21.039  18.140  19.550 -0.0110 -0.2042 -0.1186
11858OCT     C123715  10.432  13.558  22.358 -0.1607 -0.2249 -0.0254
11858OCT     C223716  10.250  14.009  22.389  0.1376  0.0773  0.1441
11859OCT     C123717   2.583   7.285  15.377 -0.0556  0.1552 -0.1174
11859OCT     C223718   2.850   6.919  15.477 -0.1649 -0.2084 -0.0932
11860OCT     C123719   0.535  14.759   4.280 -0.0849  0.3705 -0.1936
11860OCT     C223720   0.211  14.968   4.036 -0.0551  0.2401  0.0542
11861OCT     C123721   7.619  20.997   8.165 -0.0270 -0.2067 -0.0174
11861OCT     C223722   7.988  21.208   8.389  0.1558 -0.1861  0.2229
11862OCT     C123723  11.015  17.044   6.293  0.0483  0.1167  0.0188
11862OCT     C223724  10.562  17.020   6.429 -0.0654 -0.0677 -0.0594
11863OCT     C123725   6.439   9.674  20.217  0.0920 -0.1919  0.2162
11863OCT     C223726   6.703   9.392  19.986  0.1723 -0.0122 -0.0466
11864OCT     C123727  15.456  22.924   5.273 -0.0123 -0.2821 -0.1153
11864OCT     C223728  15.088  22.909   4.927  0.1045 -0.0686 -0.4492
11865OCT     C123729   5.619  18.991   9.824 -0.1942  0.0834 -0.0415
11865OCT     C223730   5.598  19.471   9.956  0.2090 -0.0261 -0.0333
11866OCT     C123731   1.606  15.454  19.231  0.0131 -0.2385 -0.1380
11866OCT     C223732   1.503  15.292  19.718  0.0180 -0.2833  0.4296
11867OCT     C123733  17.487  13.363   4.702  0.1562 -0.1737 -0.0403
11867OCT     C223734  17.335  13.864   4.584  0.1756  0.3830 -0.2950
11868OCT     C123735   3.214   6.146   4.226 -0.3768 -0.0644 -0.0966
11868OCT     C223736   3.244   6.331   4.621 -0.0551 -0.1682  0.2022
11869OCT     C123737   9.994   7.669   4.891  0.1253 -0.1944 -0.0651
11869OCT     C223738  10.061   7.911   5.253  0.0473 -0.1100 -0.3066
11870OCT     C123739   1.395  18.427  10.739  0.3946  0.0152 -0.2177
11870OCT     C223740   1.644  18.783  10.879  0.0253  0.1699  0.0007
11871OCT     C123741  13.964  15.499  21.601  0.1165 -0.6237  0.2542
11871OCT     C223742  14.074  15.765  21.988 -0.4979 -0.1783  0.1613
11872OCT     C123743   5.946  16.168   7.534 -0.3726 -0.0423 -0.1242
11872OCT     C223744   5.750  15.801   7.367  0.1495 -0.2069 -0.1317
11873OCT     C123745   3.538  13.499  17.439  0.2569  0.1103 -0.2136
11873OCT     C223746   3.115  13.346  17.429  0.0353  0.1159 -0.1404
11874OCT     C123747  18.260  16.357   9.435  0.2499 -0.4340 -0.4048
11874OCT     C223748  18.179  16.791   9.681  0.0199  0.2188 -0.2234
11875OCT     C123749  11.228  11.374  23.441  0.2460  0.1295  0.3093
11875OCT     C223750  10.761  11.463  23.477  0.0309 -0.2211 -0.2343
11876OCT     C123751  20.998   4.472  19.060  0.3498  0.2624  0.2454
11876OCT     C223752  20.958   3.986  19.148 -0.2121 -0.0145 -0.0127
11877OCT     C123753  16.651  13.812  10.101 -0.0383  0.1328  0.0873
11877OCT     C223754  16.595  13.975   9.647 -0.0343  0.0766  0.0618
11878OCT     C123755   2.919  18.045   3.643 -0.1914 -0.1317  0.0357
11878OCT     C223756   2.959  17.558   3.665  0.0601 -0.1351  0.0336
11879OCT     C123757  18.814  20.583  14.442  0.0269  0.1368  0.2379
11879OCT     C223758  18.489  20.815  14.674 -0.1120  0.1975  0.1061
11880OCT     C123759   7.209  17.904   5.536  0.3255 -0.1212 -0.0814
11880OCT     C223760   7.317  17.945   5.967 -0.0577 -0.1766  0.0961
11881OCT     C123761   4.592  12.253  15.620 -0.2525 -0.2288  0.1863
11881OCT     C223762   4.777  12.716  15.525  0.1921  0.3926 -0.2206
11882OCT     C123763   1.848   0.202  13.349 -0.2250  0.0291 -0.2725
11882OCT     C223764   1.470   0.482  13.183 -0.2060  0.1008 -0.1326
11883OCT     C123765  14.761   3.590  21.887  0.3384 -0.1338  0.1654
11883OCT     C223766  14.826   3.618  21.458 -0.1666 -0.0313 -0.2114
11884OCT     C123767   0.372  17.239   6.577  0.2868  0.3458 -0.1245
11884OCT     C223768   0.445  17.180   6.132 -0.0217  0.2889 -0.1069
11885OCT     C123769  22.362   6.065  18.314  0.1375  0.1063  0.2564
11885OCT     C223770  22.373   5.820  17.947 -0.1886 -0.0871  0.0014
11886OCT     C123771  15.078  23.670  23.496 -0.5254  0.1201 -0.1364
11886OCT     C223772  14.761   0.058   0.088  0.0531  0.1130 -0.0889
11887OCT     C123773   0.491   7.459   8.543  0.3836 -0.3670 -0.1987
11887OCT     C223774   0.671   7.512   8.976 -0.0062  0.1543 -0.0660
11888OCT     C123775  22.813  20.779  14.395 -0.1806  0.0720  0.2894
11888OCT     C223776  22.546  20.447  14.617 -0.3596  0.0954  0.1248
11889OCT     C123777   2.722  20.178  15.392  0.1531  0.2196 -0.3450
11889OCT     C223778   2.915  20.332  15.012 -0.0278  0.2549  0.1784
11890OCT     C123779  11.150  13.572  13.002 -0.3537  0.3396  0.1260
11890OCT     C223780  11.411  13.405  13.368  0.0250 -0.2626 -0.0252
11891OCT     C123781   4.600  13.976  23.727 -0.0681  0.0249 -0.2745
11891OCT     C223782   4.214  13.889   0.256 -0.2079  0.1197  0.0807
11892OCT     C123783   9.751  21.936   1.696  0.3650  0.0653  0.2952
11892OCT     C223784   9.290  21.852   1.672  0.1358 -0.3682 -0.0501
11893OCT     C123785  17.054  12.317  17.144 -0.2041 -0.1796 -0.1825
11893OCT     C223786  17.140  11.872  17.226 -0.0828 -0.1127 -0.1660
11894OCT     C123787  11.440   4.162   9.791 -0.1085 -0.0674 -0.1212
11894OCT     C223788  11.196   3.838   9.617 -0.0422  0.1186 -0.0686
11895OCT     C123789  15.115   4.006   3.994 -0.1788 -0.0112 -0.2431
11895OCT     C223790  15.156   4.436   3.935 -0.1324 -0.1954  0.1685
11896OCT     C123791  12.872   1.630   8.522 -0.0309  0.2428 -0.3573
11896OCT     C223792  12.921   2.008   8.249 -0.1905 -0.0958 -0.1558
11897OCT     C123793   4.152   1.329   1.452 -0.0423 -0.0511 -0.2748
11897OCT     C223794   3.804   1.654   1.366 -0.2395 -0.1247 -0.1866
11898OCT     C123795  17.661  18.862  20.174 -0.0159  0.2064 -0.0571
11898OCT     C223796  17.738  18.408  20.297 -0.2278  0.1087 -0.1100
11899OCT     C123797  12.841  14.527  14.849 -0.2029  0.2767 -0.2407
11899OCT     C223798  13.189  14.327  14.586  0.3066  0.3301 -0.0984
11900OCT     C123799  16.970   3.416  16.510  0.3436 -0.4647  0.0255
11900OCT     C223800  16.811   3.833  16.623  0.0191 -0.1139 -0.0226
11901OCT     C123801   5.993  20.311  22.991 -0.0884 -0.0899 -0.5274
11901OCT     C223802   6.209  20.040  23.356  0.2220  0.3173 -0.3984
11902OCT     C123803   1.757  16.327   4.188 -0.1718 -0.3023 -0.2186
11902OCT     C223804   2.041  16.479   3.868 -0.1135  0.0236 -0.0124
11903OCT     C123805  22.158  20.066  14.443 -0.2781 -0.1162  0.1186
11903OCT     C223806  21.805  20.359  14.366  0.2589  0.0257  0.2632
11904OCT     C123807  21.297  16.926  21.508  0.0573 -0.0798 -0.3479
11904OCT     C223808  21.178  17.165  21.164 -0.0028  0.1197 -0.3580
11905OCT     C123809  11.329  10.918   9.299  0.2790 -0.0389  0.2720
11905OCT     C223810  11.510  10.510   9.223  0.0350 -0.0598 -0.1484
11906OCT     C123811  14.402  14.003   6.154  0.3475 -0.3312  0.3658
11906OCT     C223812  14.756  13.884   5.915 -0.3873  0.1408  0.1178
11907OCT     C123813   5.277  21.362  19.709 -0.0531  0.2236  0.0754
11907OCT     C223814   5.330  21.755  19.799 -0.3010 -0.0660  0.3705
11908OCT     C123815   8.219   5.014   6.800  0.4006 -0.0875  0.2401
11908OCT     C223816   8.634   5.038   7.027  0.0297 -0.0670 -0.0083
11909OCT     C123817  13.525  17.790  12.341 -0.2883  0.2529 -0.1479
11909OCT     C223818  13.423  18.096  11.968  0.0257  0.1201  0.0730
11910OCT     C123819   9.923  21.263  10.553 -0.1938 -0.0353 -0.0282
11910OCT     C223820  10.191  21.002  10.842 -0.1571 -0.0177 -0.1495
11911OCT     C123821   1.819  23.156   6.386 -0.1219 -0.0995 -0.1782
11911OCT     C223822   2.148  22.871   6.274 -0.3367  0.1896  0.2568
11912OCT     C123823  13.816   1.868   7.309  0.0137 -0.0853 -0.2541
11912OCT     C223824  13.708   2.089   7.693  0.1656 -0.1236  0.1591
11913OCT     C123825   0.187   7.645  15.352  0.1602  0.0578 -0.3230
11913OCT     C223826  23.571   7.847  14.982 -0.2254  0.2033 -0.2256
11914OCT     C123827  14.817  11.925   5.156  0.1740  0.3984 -0.0860
11914OCT     C223828  15.216  12.165   5.291 -0.1467 -0.0301  0.2366
11915OCT     C123829  23.682  11.171  20.785  0.1997  0.0445  0.0008
11915OCT     C223830  23.562  11.545  21.057 -0.1507 -0.1357  0.0243
11916OCT     C123831  17.036   1.061   5.686  0.0671  0.1028  0.0120
11916OCT     C223832  16.993   1.439   5.930 -0.2909  0.4141  0.1226
11917OCT     C123833   7.458  10.747   1.024 -0.1381 -0.0087 -0.3274
11917OCT     C223834   7.544  10.682   1.538  0.0443 -0.4985  0.0396
11918OCT     C123835   1.331   7.325   2.967  0.1528  0.0359 -0.0772
11918OCT     C223836   1.054   6.930   2.793 -0.2484  0.0176  0.0578
11919OCT     C123837  15.347  19.533   4.623  0.2480  0.0104 -0.0087
11919OCT     C223838  15.146  19.946   4.777  0.0895  0.2560  0.2581
11920OCT     C123839   3.657   6.110   7.730 -0.0386  0.0282 -0.0923
11920OCT     C223840   3.230   6.289   7.893 -0.2416 -0.1789 -0.0290
11921OCT     C123841   6.502  17.061  12.333 -0.0210 -0.0215 -0.2675
11921OCT     C223842   6.394  17.551  12.273  0.0297  0.2591  0.2199
11922OCT     C123843  10.410   4.938   1.328 -0.1021 -0.2365 -0.1805
11922OCT     C223844  10.220   4.564   1.539 -0.0379 -0.0117  0.1062
11923OCT     C123845   7.951  20.629   2.392 -0.1431  0.2235  0.0038
11923OCT     C223846   7.762  20.802   2.741  0.2582  0.1739  0.3302
11924OCT     C123847  13.653  13.692  15.758  0.0806 -0.0421 -0.0601
11924OCT     C223848  13.771  13.214  15.825 -0.2263 -0.2898 -0.2962
11925OCT     C123849  18.176   9.838  22.360  0.1977  0.1173  0.1454
11925OCT     C223850  18.018   9.531  22.687 -0.0710  0.2654 -0.0569
11926OCT     C123851  20.390   8.191   8.182  0.1387  0.0829 -0.0126
11926OCT     C223852  20.661   8.433   7.914  0.0206  0.1120  0.2641
11927OCT     C123853  19.525   0.078   7.551 -0.1625 -0.1986  0.1862
11927OCT     C223854  19.905   0.419   7.675 -0.0611  0.0229  0.2050
11928OCT     C123855   6.168  22.077   8.420 -0.3608 -0.3125  0.1330
11928OCT     C223856   5.904  21.711   8.543 -0.0251  0.2793  0.0268
11929OCT     C123857   6.650   1.445   9.115  0.0356  0.0337 -0.1666
11929OCT     C223858   6.231   1.307   8.923  0.0815  0.1959 -0.3702
11930OCT     C123859  15.152  20.361  14.496 -0.1287 -0.1081  0.0092
11930OCT     C223860  14.933  20.150  14.085 -0.3145  0.2323 -0.4097
11931OCT     C123861   0.564  11.386   8.133 -0.2321  0.0507 -0.0996
11931OCT     C223862   0.202  11.476   8.389 -0.1259 -0.2291  0.0105
11932OCT     C123863  19.249   5.056   6.834  0.0371 -0.0517 -0.0789
11932OCT     C223864  19.291   5.499   6.641 -0.0959 -0.2995 -0.3061
11933OCT     C123865   3.072  21.163  12.604 -0.3865  0.2002  0.2291
11933OCT     C223866   3.351  21.077  12.307 -0.0434  0.2249  0.1461
11934OCT     C123867  12.411  16.728  23.436 -0.0224  0.0981 -0.1392
11934OCT     C223868  12.059  16.446  23.391  0.2252  0.0696 -0.1154
11935OCT     C123869   7.524   6.350   3.016  0.4277 -0.0087 -0.1127
11935OCT     C223870   7.976   6.369   2.973  0.2556 -0.1592 -0.1611
11936OCT     C123871   4.524  23.382   4.687  0.0858  0.1415 -0.4077
11936OCT     C223872   4.590  22.981   4.861  0.2115 -0.1840  0.0223
11937OCT     C123873  18.304  20.208  22.467 -0.0900 -0.4104  0.0654
11937OCT     C223874  18.507  19.833  22.757  0.1513  0.0527  0.2233
11938OCT     C123875  21.663   7.368  16.147  0.3325 -0.0873 -0.0068
11938OCT     C223876  22.089   7.503  15.966 -0.4412  0.1309 -0.0645
11939OCT     C123877   7.583  18.418  23.387 -0.4308 -0.0174 -0.4102
11939OCT     C223878   7.537  18.275  22.950  0.3457  0.0216  0.2417
11940OCT     C123879  19.844   8.084   2.064 -0.0050 -0.2105  0.1852
11940OCT     C223880  19.863   8.455   2.431  0.2421  0.2431  0.2126
11941OCT     C123881  21.056   5.182  10.473  0.1748 -0.1830 -0.2598
11941OCT     C223882  21.504   5.166  10.646  0.0792  0.0372  0.0234
11942OCT     C123883   9.387   8.305  10.934 -0.1380 -0.1178  0.1161
11942OCT     C223884   9.749   8.634  10.816  0.3019 -0.1014 -0.2320
11943OCT     C123885  14.491  17.640  21.281 -0.1404 -0.2100  0.1207
11943OCT     C223886  14.036  17.674  21.387 -0.0986 -0.0873 -0.1746
11944OCT     C123887  14.950   3.233  19.021 -0.0315 -0.2023  0.1163
11944OCT     C223888  14.491   3.269  18.900  0.1896 -0.0078  0.1801
11945OCT     C123889  20.497   1.847   1.521  0.4311 -0.0649 -0.0997
11945OCT     C223890  20.922   1.941   1.343  0.2911  0.3372  0.1388
11946OCT     C123891   1.257  18.958   9.220 -0.3268 -0.1834 -0.0636
11946OCT     C223892   1.172  18.636   9.580 -0.1254  0.1222  0.0423
11947OCT     C123893   0.455   9.332   8.522  0.1679 -0.1957 -0.0997
11947OCT     C223894   0.279   9.701   8.300 -0.0550  0.0999  0.3148
11948OCT     C123895  22.707  19.412  23.417 -0.0265  0.0349 -0.1621
11948OCT     C223896  23.095  19.420  23.704  0.1663 -0.1259  0.3483
11949OCT     C123897  17.630  16.490   1.923  0.0172  0.0115  0.4469
11949OCT     C223898  17.187  16.209   1.918 -0.1396  0.0326 -0.1224
11950OCT     C123899   0.415   9.799  18.242  0.5425 -0.0215 -0.1080
11950OCT     C223900   0.363   9.760  17.839  0.0317  0.1908  0.3660
11951OCT     C123901  12.636   5.491  23.455  0.0775  0.0089 -0.1770
11951OCT     C223902  13.058   5.584  23.379  0.3827 -0.3486 -0.0399
11952OCT     C123903  15.408  21.439  12.006  0.1924 -0.2703  0.1477
11952OCT     C223904  15.470  21.802  11.712  0.2326 -0.3639  0.0376
11953OCT     C123905   6.533  20.660  14.647  0.3063  0.3876  0.1362
11953OCT     C223906   6.858  20.804  14.992  0.0454 -0.1416  0.0257
11954OCT     C123907   5.393   0.656  16.662  0.4728  0.0950 -0.3856
11954OCT     C223908   5.812   0.504  16.458  0.0908  0.0399  0.1598
11955OCT     C123909  19.851   0.863  18.508 -0.3503  0.0837  0.0633
11955OCT     C223910  19.433   0.792  18.652  0.0038  0.1258 -0.4375
11956OCT     C123911  18.662   8.676  10.577 -0.1503  0.1735  0.4945
11956OCT     C223912  18.298   8.551  10.867 -0.0633  0.0533  0.0915
11957OCT     C123913  15.953   9.340  18.963 -0.1760 -0.0619 -0.0507
11957OCT     C223914  16.220   9.050  18.724  0.1220  0.1113  0.0080
11958OCT     C123915  20.135  20.742   3.401 -0.0961  0.0639 -0.0697
11958OCT     C223916  19.829  20.919   3.059  0.1104 -0.0191 -0.0451
11959OCT     C123917  13.612  20.295  20.007  0.1060  0.2675  0.1520
11959OCT     C223918  13.802  20.686  19.985  0.0946  0.0283  0.0199
11960OCT     C123919  11.245  17.765  20.746  0.0464 -0.2204  0.0291
11960OCT     C223920  11.194  17.989  20.355  0.1932  0.1072  0.1392
11961OCT     C123921  14.365  11.434   0.489  0.1437 -0.3115  0.3373
11961OCT     C223922  14.447  11.007   0.707 -0.2674 -0.0268 -0.1075
11962OCT     C123923  21.552  14.881   2.238 -0.3522  0.1962 -0.1181
11962OCT     C223924  21.727  14.912   2.692 -0.1408 -0.1145  0.0887
11963OCT     C123925  14.480   4.754  10.816 -0.3298  0.0778  0.4740
11963OCT     C223926  14.270   5.108  10.560 -0.0522 -0.1888  0.1428
11964OCT     C123927   3.457  20.487  10.793  0.2472  0.3159 -0.1021
11964OCT     C223928   3.206  20.588  10.421  0.0209 -0.2501 -0.0354
11965OCT     C123929  20.776   8.595  14.979  0.0736 -0.1628 -0.1353
11965OCT     C223930  20.417   8.325  14.872 -0.1667 -0.4333 -0.5258
11966OCT     C123931   4.136  22.915  22.039  0.0600  0.1046  0.1587
11966OCT     C223932   4.042  22.851  22.496 -0.1329  0.4420  0.0764
11967OCT     C123933   1.663  10.182  20.374  0.3164  0.0178  0.0825
11967OCT     C223934   1.902   9.902  20.693  0.0554 -0.2357  0.2072
11968OCT     C123935   3.478   3.114   6.733  0.0133 -0.0855  0.2844
11968OCT     C223936   3.740   2.740   6.596 -0.0186 -0.1968  0.1418
11969OCT     C123937  20.729  15.485  21.610 -0.0114  0.3675 -0.0443
11969OCT     C223938  21.110  15.569  21.900 -0.0443 -0.1872  0.1780
11970OCT     C123939  20.720  12.142  19.822 -0.1710 -0.1527 -0.0548
11970OCT     C223940  20.430  11.783  19.761  0.0147 -0.1881  0.0191
11971OCT     C123941  13.632   7.832  20.334 -0.2552 -0.0202 -0.2650
11971OCT     C223942  13.577   8.274  20.448 -0.1924  0.0415  0.1012
11972OCT     C123943  14.197   9.903   8.122  0.1106  0.2081  0.1521
11972OCT     C223944  13.979  10.313   8.266  0.4198  0.2891 -0.3579
11973OCT     C123945   4.387   2.803  22.189  0.1212  0.1310 -0.1556
11973OCT     C223946   4.021   3.059  22.333 -0.1365  0.1371 -0.1221
11974OCT     C123947  18.649   8.968   6.796 -0.0559  0.2453 -0.2569
11974OCT     C223948  19.074   9.102   6.974  0.0382 -0.0442  0.2648
11975OCT     C123949  17.726   1.157  14.364  0.1928 -0.2064 -0.0954
11975OCT     C223950  17.928   0.768  14.148  0.1273 -0.0455 -0.1094
11976OCT     C123951  15.974   7.165  10.284  0.2239  0.0295 -0.0520
11976OCT     C223952  15.757   6.810  10.449 -0.2689  0.3736  0.0369
11977OCT     C123953   1.431  13.849  17.792 -0.3680 -0.2322 -0.0663
11977OCT     C223954   0.952  13.786  17.702 -0.1932 -0.0766 -0.2090
11978OCT     C123955   9.263   5.230   4.483  0.0820  0.1791  0.3609
11978OCT     C223956   9.724   5.042   4.537  0.2682 -0.2956  0.2101
11979OCT     C123957  22.192   1.206  20.392 -0.1718 -0.0245  0.1398
11979OCT     C223958  22.421   1.636  20.516  0.3953  0.2480 -0.1465
11980OCT     C123959  15.559   3.709  19.388 -0.2492  0.0457 -0.0722
11980OCT     C223960  15.435   4.123  19.475 -0.1009  0.1621  0.1910
11981OCT     C123961   8.553  16.252  14.836  0.1613 -0.1519  0.0732
11981OCT     C223962   8.108  15.973  14.809 -0.1901  0.2385 -0.2850
11982OCT     C123963   4.887   9.965   5.481  0.3080  0.0556  0.0985
11982OCT     C223964   4.472   9.795   5.368 -0.1787  0.4114  0.2708
11983OCT     C123965   6.618  18.599  11.151  0.3527  0.1090 -0.1216
11983OCT     C223966   6.372  18.985  10.996 -0.2185 -0.1755 -0.0456
11984OCT     C123967   6.506  22.163  17.857 -0.0826 -0.1778  0.1996
11984OCT     C223968   6.173  22.459  17.714  0.3918 -0.1691  0.0823
11985OCT     C123969  14.850  18.395   6.057  0.0441  0.1119 -0.4545
11985OCT     C223970  15.168  18.526   5.691 -0.2006  0.4440 -0.0676
11986OCT     C123971  13.239  15.212  11.781  0.0062  0.1199  0.1891
11986OCT     C223972  13.472  15.313  12.227 -0.5027  0.3117 -0.1262
11987OCT     C123973   8.707  13.172   0.455  0.0523  0.0094  0.0050
11987OCT     C223974   9.085  13.029   0.549 -0.2368 -0.2154 -0.1343
11988OCT     C123975  11.710  17.284  11.501 -0.0046 -0.3673 -0.0607
11988OCT     C223976  12.014  16.989  11.577 -0.1547  0.0724 -0.0279
11989OCT     C123977   0.648  22.456  18.243  0.2969 -0.1171 -0.1675
11989OCT     C223978   0.659  22.876  18.482  0.1076 -0.0107  0.0901
11990OCT     C123979  13.795  12.534   0.233 -0.0952  0.3199 -0.2539
11990OCT     C223980  14.123  12.819   0.028 -0.2061  0.1095  0.1735
11991OCT     C123981  21.735   4.954  11.988  0.2069  0.0276 -0.2526
11991OCT     C223982  21.692   5.075  11.554 -0.0809 -0.0778 -0.0469
11992OCT     C123983  11.818  21.361   5.832 -0.0763 -0.1884  0.0949
11992OCT     C223984  11.491  21.619   6.013 -0.2878 -0.4367 -0.1236
11993OCT     C123985  16.728   1.075  11.548  0.2234  0.3105  0.4011
11993OCT     C223986  16.397   0.790  11.490 -0.1580 -0.0717  0.2284
11994OCT     C123987  11.085  19.537  20.635 -0.1962  0.0943 -0.0695
11994OCT     C223988  11.405  19.582  21.031  0.0150 -0.2980 -0.1236
11995OCT     C123989  10.914   0.815  18.994  0.2100 -0.5165  0.0453
11995OCT     C223990  11.330   0.692  18.974 -0.2452  0.1082 -0.1212
11996OCT     C123991  13.311   2.785  16.610  0.0930  0.1433 -0.0107
11996OCT     C223992  12.862   2.678  16.466 -0.1147  0.0664 -0.1771
11997OCT     C123993  17.515  10.381   1.384  0.0242  0.2174  0.1055
11997OCT     C223994  17.621  10.302   1.819  0.3337 -0.3556  0.2830
11998OCT     C123995  19.408   2.301   3.778  0.0513  0.0043 -0.4122
11998OCT     C223996  19.514   2.736   3.811 -0.0835 -0.6367  0.3223
11999OCT     C123997  17.196  21.074   6.951  0.2649 -0.1244 -0.0206
11999OCT     C223998  16.959  20.737   7.195  0.1380 -0.2271 -0.2097
12000OCT     C123999  18.376  11.040  20.145 -0.0632  0.0889 -0.1531
12000OCT     C224000  18.812  11.060  20.288  0.2597  0.0791 -0.3101
12001OCT     C124001  20.798  14.079  20.203 -0.1498 -0.0843  0.0222
12001OCT     C224002  20.411  14.276  19.936 -0.1067  0.1670  0.1531
12002OCT     C124003   6.139  10.843   6.571  0.0465 -0.3260  0.0621
12002OCT     C224004   6.190  10.367   6.657 -0.2450  0.3683  0.3113
12003OCT     C124005  20.608   9.108   9.236 -0.0731  0.0286  0.0674
12003OCT     C224006  20.539   9.567   9.302 -0.0995  0.2621 -0.2305
12004OCT     C124007  14.664  14.854   3.590 -0.1854 -0.3261  0.2845
12004OCT     C224008  15.119  15.037   3.570  0.0293 -0.3665  0.3905
12005OCT     C124009  11.244  21.811  10.494  0.0793 -0.2960 -0.2121
12005OCT     C224010  11.074  21.896  10.066 -0.1169  0.6279  0.2046
12006OCT     C124011  13.712  10.631  18.438  0.1446 -0.2651 -0.0938
12006OCT     C224012  13.986  10.998  18.679 -0.0026 -0.0971  0.6613
12007OCT     C124013  17.036   3.164   5.385 -0.0042 -0.4705  0.0861
12007OCT     C224014  17.020   3.083   4.924  0.1559  0.1732  0.2011
12008OCT     C124015  15.176   9.880  16.607  0.0229 -0.0067 -0.1063
12008OCT     C224016  14.790  10.013  16.839  0.3102  0.1452  0.0051
12009OCT     C124017  22.467   2.056  15.194 -0.0763 -0.3576 -0.0537
12009OCT     C224018  22.971   2.031  15.104  0.0211  0.1613 -0.3350
12010OCT     C124019  18.312   9.610   8.837  0.1848 -0.3117  0.4737
12010OCT     C224020  18.211   9.449   9.247  0.0882 -0.0421 -0.0528
12011OCT     C124021  14.597  23.413   7.180  0.1024 -0.0419  0.2137
12011OCT     C224022  14.549   0.117   7.293 -0.0438  0.1079  0.4122
12012OCT     C124023  18.151   5.794   6.429 -0.0523 -0.0134 -0.0266
12012OCT     C224024  18.570   5.916   6.353 -0.1201  0.0196  0.1428
12013OCT     C124025  15.213  20.793  21.901 -0.2500  0.0979  0.1120
12013OCT     C224026  15.424  21.231  21.887 -0.1342  0.2039 -0.0172
12014OCT     C124027  10.610  19.725  14.928 -0.3608  0.0411  0.1818
12014OCT     C224028  10.956  20.039  14.918 -0.0789  0.0751 -0.0864
12015OCT     C124029  19.329  12.461  20.307 -0.1173  0.1859 -0.2422
12015OCT     C224030  19.667  12.600  20.623  0.0947  0.2339 -0.1431
12016OCT     C124031  16.647  11.961  12.781 -0.3717  0.1281 -0.2427
12016OCT     C224032  16.712  12.364  12.568  0.1394 -0.4141 -0.2778
12017OCT     C124033  14.112   4.227   6.114 -0.0214 -0.2350  0.0317
12017OCT     C224034  14.211   4.645   5.989  0.2614  0.0052  0.0957
12018OCT     C124035   0.632  13.066   3.008 -0.0074  0.1805 -0.1840
12018OCT     C224036   0.913  13.015   3.391  0.1558 -0.1486  0.1543
12019OCT     C124037   4.716   2.620  14.075  0.2006 -0.0547  0.2370
12019OCT     C224038   4.593   2.799  13.626 -0.0747 -0.3654 -0.3975
12020OCT     C124039   2.670   1.165   9.291  0.3682  0.3683  0.0760
12020OCT     C224040   2.695   1.615   9.471 -0.1108 -0.0758  0.0027
12021OCT     C124041  18.441  19.520   3.115 -0.2947  0.1219 -0.1088
12021OCT     C224042  18.793  19.264   2.866  0.0821  0.2363  0.1408
12022OCT     C124043  13.790  15.232  15.445 -0.3592  0.1621  0.0563
12022OCT     C224044  14.088  15.646  15.327 -0.0743  0.0562 -0.1656
12023OCT     C124045  10.472   8.518  19.603 -0.3357  0.0273 -0.3271
12023OCT     C224046  10.923   8.349  19.597  0.2305 -0.1675  0.1053
12024OCT     C124047  14.002  19.175  15.952  0.0889 -0.1006 -0.3255
12024OCT     C224048  13.814  19.119  15.551  0.0503  0.2878  0.3013
12025OCT     C124049   9.726  22.535  22.315  0.2748  0.4359 -0.1088
12025OCT     C224050   9.970  22.793  22.072  0.0450 -0.3772 -0.2324
12026OCT     C124051   8.367   2.188  22.930  0.3965 -0.3719 -0.3001
12026OCT     C224052   7.947   2.037  22.888  0.3757 -0.2304 -0.3636
12027OCT     C124053   1.254   8.354  23.249 -0.1736 -0.1187 -0.2312
12027OCT     C224054   1.088   8.163  23.670  0.0076  0.0503  0.0295
12028OCT     C124055  20.588   0.281  18.029  0.3095 -0.3324 -0.0376
12028OCT     C224056  21.016   0.216  17.800 -0.1433  0.0063  0.2658
12029OCT     C124057  15.212  16.125  15.475 -0.0330  0.2698  0.1028
12029OCT     C224058  15.676  16.135  15.539 -0.1187 -0.0589 -0.1089
12030OCT     C124059  15.858  15.804  22.074 -0.0573  0.1221 -0.2539
12030OCT     C224060  16.064  15.817  21.656  0.1016 -0.1089 -0.4616
12031OCT     C124061  23.519  14.909   6.646 -0.5354 -0.0713  0.1311
12031OCT     C224062   0.082  14.757   6.995 -0.2293  0.5414  0.0637
12032OCT     C124063   4.235   4.215  17.835  0.1835  0.4501 -0.0194
12032OCT     C224064   4.011   4.598  17.978  0.2757  0.1710  0.4706
12033OCT     C124065  15.111   5.827  18.226  0.1931  0.0019 -0.1520
12033OCT     C224066  14.908   5.412  18.410 -0.1745 -0.4661 -0.1645
12034OCT     C124067  13.832   4.497  13.919 -0.1237  0.0554  0.0676
12034OCT     C224068  13.884   4.046  13.950  0.0354  0.1499 -0.0817
12035OCT     C124069   4.726  23.014  22.904  0.0671  0.2248 -0.2196
12035OCT     C224070   5.054  22.676  23.096 -0.0065 -0.0780 -0.3029
12036OCT     C124071   8.256  15.971   9.959 -0.1881  0.2759 -0.0128
12036OCT     C224072   7.984  15.657  10.145  0.2884 -0.1600  0.1645
12037OCT     C124073   3.499  17.032  16.561  0.1206 -0.1173 -0.2497
12037OCT     C224074   3.467  17.414  16.927 -0.0950 -0.3095  0.6097
12038OCT     C124075   7.947  21.802  19.904  0.1007  0.4266  0.0061
12038OCT     C224076   8.221  21.490  19.712  0.0949 -0.0609 -0.3402
12039OCT     C124077   1.654   7.241   2.057  0.1324 -0.2953 -0.2522
12039OCT     C224078   1.397   7.190   1.665 -0.0906  0.3419 -0.0703
12040OCT     C124079  18.195  11.955  12.644 -0.2757 -0.3132  0.0143
12040OCT     C224080  18.623  11.737  12.524 -0.0222  0.1394  0.0518
12041OCT     C124081   1.561  12.531  22.384 -0.0216 -0.0162 -0.0116
12041OCT     C224082   1.776  12.917  22.606  0.2779 -0.1439 -0.1536
12042OCT     C124083  18.223  22.346   4.004 -0.1001  0.3904 -0.3885
12042OCT     C224084  17.847  22.097   3.823 -0.0829  0.2127 -0.0928
12043OCT     C124085  17.935  16.485  11.990 -0.0567 -0.0094 -0.2018
12043OCT     C224086  18.011  16.939  12.210  0.2625  0.4148  0.0995
12044OCT     C124087  20.892  18.828   3.127  0.0214  0.1173 -0.0843
12044OCT     C224088  21.252  18.536   3.174  0.2615 -0.2992 -0.2648
12045OCT     C124089  15.954  14.170  21.632  0.2715 -0.3186  0.3355
12045OCT     C224090  15.538  14.276  21.463  0.5570 -0.1484  0.1610
12046OCT     C124091  20.450   4.065  11.093 -0.0514 -0.2800 -0.0317
12046OCT     C224092  20.526   4.446  11.312 -0.0470  0.1195 -0.3625
12047OCT     C124093  23.372   7.558   4.597 -0.0199 -0.1979  0.2978
12047OCT     C224094  23.161   7.154   4.518  0.2059 -0.2291  0.4649
12048OCT     C124095  11.724  13.919   3.791  0.5030 -0.2560 -0.2739
12048OCT     C224096  11.658  14.106   4.238  0.2693  0.0100 -0.0213
12049OCT     C124097  18.601  15.204  19.126  0.0118  0.0196 -0.3581
12049OCT     C224098  18.801  14.845  18.893 -0.2480 -0.0440 -0.1875
12050OCT     C124099  14.066  11.945  13.492  0.4949  0.1102 -0.0819
12050OCT     C224100  14.219  12.389  13.446  0.2279  0.1004 -0.3398
12051OCT     C124101  13.073  10.955   8.034  0.3044  0.2315  0.2470
12051OCT     C224102  12.752  10.697   8.194  0.1865 -0.3230  0.1869
12052OCT     C124103   0.397   4.390  23.397 -0.0267  0.4017 -0.1563
12052OCT     C224104   0.488   4.059  23.107  0.3006 -0.0859  0.0930
12053OCT     C124105  18.857  14.864   3.371  0.0496 -0.2554  0.1241
12053OCT     C224106  19.020  14.940   3.761 -0.0726 -0.1153 -0.2274
12054OCT     C124107  13.112  10.954   0.795  0.1243  0.1603 -0.1452
12054OCT     C224108  12.638  10.719   0.899 -0.2344  0.0892  0.4221
12055OCT     C124109   7.189  22.656  19.231  0.1759 -0.1636  0.0500
12055OCT     C224110   7.569  22.360  19.316 -0.1605  0.1186  0.0438
12056OCT     C124111   5.287  12.236  14.855 -0.0801  0.1797 -0.1143
12056OCT     C224112   5.546  12.514  14.613  0.1928  0.2145 -0.0465
12057OCT     C124113  21.141  20.369  12.596  0.1313  0.0735  0.0826
12057OCT     C224114  20.690  20.269  12.501 -0.0119 -0.0686 -0.1221
12058OCT     C124115   7.152   8.169  15.458  0.3323  0.0561 -0.2882
12058OCT     C224116   7.430   8.490  15.696 -0.0936 -0.4377 -0.0909
12059OCT     C124117  14.510   1.298   4.910 -0.2097  0.1191 -0.1133
12059OCT     C224118  14.396   1.029   5.250  0.3786 -0.0735 -0.1525
12060OCT     C124119   2.712  15.042   4.429  0.1873 -0.2189  0.3316
12060OCT     C224120   2.624  14.556   4.596  0.3358  0.0387 -0.2342
12061OCT     C124121  15.721  21.612   5.974 -0.1431  0.3101  0.2026
12061OCT     C224122  16.173  21.683   6.141  0.5036  0.0681  0.6198
12062OCT     C124123  22.358   6.568  21.170 -0.0552 -0.0117  0.0102
12062OCT     C224124  21.991   6.602  21.446 -0.2200  0.4319 -0.2669
12063OCT     C124125   9.505  17.167   9.574 -0.0154  0.0154 -0.1488
12063OCT     C224126   9.878  16.852   9.621  0.1280 -0.1360 -0.2255
12064OCT     C124127  14.194   4.677  22.079 -0.0694 -0.0939  0.2474
12064OCT     C224128  13.975   4.513  22.464  0.0053  0.0681 -0.1093
12065OCT     C124129   1.417  23.201   1.177  0.1240  0.2364 -0.4251
12065OCT     C224130   1.167  22.806   1.209 -0.1416  0.0942 -0.1254
12066OCT     C124131  12.525  21.205  18.558  0.3437 -0.2869  0.0850
12066OCT     C224132  12.875  20.900  18.447  0.0015  0.3259  0.2414
12067OCT     C124133  22.976  19.186  20.566 -0.2168 -0.1971  0.4525
12067OCT     C224134  23.252  19.565  20.444  0.1890 -0.1577  0.1500
12068OCT     C124135   5.088   4.812  14.286 -0.0882  0.5162  0.0207
12068OCT     C224136   5.503   4.756  14.521  0.2398 -0.0318 -0.1473
12069OCT     C124137  13.819  13.065   1.671  0.1527 -0.1200  0.1212
12069OCT     C224138  13.509  13.295   1.316  0.2386  0.1410 -0.0774
12070OCT     C124139   5.346   8.108  21.866 -0.0139 -0.3032 -0.1482
12070OCT     C224140   5.473   8.508  22.007  0.0814 -0.0328 -0.0606
12071OCT     C124141   5.394   4.229   0.011 -0.3351  0.1546  0.1308
12071OCT     C224142   5.639   4.619  23.624 -0.1215  0.0042 -0.1660
12072OCT     C124143   8.326  22.022  21.724 -0.2818 -0.1921 -0.1115
12072OCT     C224144   8.744  22.263  21.605  0.1909  0.0674  0.0839
12073OCT     C124145   0.467  20.600  19.758  0.2950  0.1340  0.1907
12073OCT     C224146   0.406  20.945  19.453 -0.0521  0.1313 -0.3526
12074OCT     C124147  12.901   7.087  18.024  0.1701 -0.2540  0.5498
12074OCT     C224148  13.266   6.865  18.180 -0.4896  0.1552 -0.1285
12075OCT     C124149   6.733   8.859   2.782  0.0897 -0.1729 -0.0664
12075OCT     C224150   6.551   9.169   3.084 -0.0438  0.0379  0.1933
12076OCT     C124151  13.212  12.410   7.938 -0.4005 -0.0799  0.3675
12076OCT     C224152  12.784  12.261   7.748 -0.5105 -0.1180 -0.1841
12077OCT     C124153   4.366   2.234  20.310  0.1892  0.6136  0.1368
12077OCT     C224154   3.962   2.367  20.379  0.0025 -0.0735  0.3339
12078OCT     C124155  22.762   5.324  12.026  0.0233  0.4431 -0.2196
12078OCT     C224156  22.304   5.276  12.117  0.1468 -0.1651  0.0289
12079OCT     C124157  12.593   5.703   4.882  0.0349  0.0292  0.1801
12079OCT     C224158  12.608   6.138   4.740  0.3326 -0.2933  0.3296
12080OCT     C124159   0.150   1.260  11.793 -0.0395 -0.1234  0.4654
12080OCT     C224160   0.179   1.683  11.671  0.2365  0.0940  0.2063
12081OCT     C124161  18.518  12.915  11.601 -0.1414  0.1298  0.1509
12081OCT     C224162  18.329  13.246  11.836  0.3665  0.4628 -0.2943
12082OCT     C124163  22.730   8.995   2.659 -0.0903 -0.1348 -0.1600
12082OCT     C224164  22.619   9.391   2.503 -0.1215 -0.2444  0.4892
12083OCT     C124165  18.642  18.409  13.079  0.1693  0.2372 -0.0112
12083OCT     C224166  18.826  18.094  12.768 -0.2529  0.3205 -0.0114
12084OCT     C124167  14.587   5.858   6.432 -0.3399  0.0022  0.3584
12084OCT     C224168  14.330   5.477   6.308  0.1396 -0.1634 -0.0326
12085OCT     C124169   6.391  11.316   4.069 -0.4686 -0.0137 -0.2177
12085OCT     C224170   6.438  11.660   3.718  0.0224  0.0363 -0.3236
12086OCT     C124171  18.215  10.990   5.272 -0.2002  0.1754  0.2017
12086OCT     C224172  18.424  11.084   5.660  0.1553  0.0465 -0.0743
12087OCT     C124173  10.233   7.275  18.774  0.2166 -0.1484  0.1437
12087OCT     C224174  10.434   7.114  19.173 -0.0950 -0.2680 -0.2190
12088OCT     C124175   9.701   0.372   1.656  0.4030 -0.2207  0.3433
12088OCT     C224176   9.833  23.702   1.837 -0.2510 -0.0097  0.3430
12089OCT     C124177   3.640  19.107   5.337  0.2112  0.0282  0.1144
12089OCT     C224178   3.322  18.758   5.440 -0.0235 -0.2356  0.1545
12090OCT     C124179   5.739   1.777   5.249 -0.1563  0.1843 -0.4239
12090OCT     C224180   6.028   1.522   5.540  0.0672  0.1147  0.0730
12091OCT     C124181   0.655  19.827   2.283 -0.3648 -0.3146  0.1302
12091OCT     C224182   0.267  19.945   2.134  0.0792 -0.2472 -0.2255
12092OCT     C124183  22.593   7.198   0.420 -0.0816  0.1963 -0.0493
12092OCT     C224184  22.764   7.018   0.762  0.0319 -0.0276  0.3660
12093OCT     C124185   2.460  17.728  19.038  0.0871 -0.2128 -0.3257
12093OCT     C224186   2.083  17.743  18.746 -0.3914  0.5094  0.0812
12094OCT     C124187   3.010  21.043   2.335 -0.2601  0.4986 -0.3188
12094OCT     C224188   3.273  20.782   1.986 -0.3498 -0.3116 -0.1704
12095OCT     C124189  14.748   0.493  14.682 -0.0118 -0.0255 -0.1276
12095OCT     C224190  14.657   0.243  14.328 -0.0226 -0.5439  0.0335
12096OCT     C124191  23.651  15.346  17.500  0.0079 -0.1859 -0.2192
12096OCT     C224192  23.386  14.999  17.342 -0.0996 -0.0095  0.1098
12097OCT     C124193   7.753  11.858   2.548  0.0089 -0.2982  0.1213
12097OCT     C224194   7.961  11.942   2.132 -0.2954 -0.3932 -0.1761
12098OCT     C124195  22.450   9.223  16.825  0.1304  0.1340  0.2350
12098OCT     C224196  22.129   9.368  16.543 -0.0106  0.3532 -0.0825
12099OCT     C124197  14.310   2.260  22.201 -0.0308 -0.1561 -0.1057
12099OCT     C224198  14.694   2.386  22.467  0.2690 -0.2431  0.2446
12100OCT     C124199   8.136  10.926   0.754  0.1438 -0.1534 -0.1042
12100OCT     C224200   7.907  10.553   0.754 -0.0655  0.1071 -0.3278
12101OCT     C124201  12.348  14.618  11.028  0.0914  0.0253  0.0717
12101OCT     C224202  12.722  14.404  11.084  0.0272  0.3705 -0.2665
12102OCT     C124203   2.662  11.397  15.093  0.1342  0.2777  0.0011
12102OCT     C224204   3.059  11.534  15.165 -0.4053  0.2011 -0.2686
12103OCT     C124205   9.290  20.598   7.467 -0.0346 -0.1826  0.5992
12103OCT     C224206   9.248  21.031   7.482  0.1299  0.0479  0.2055
12104OCT     C124207  18.792  16.194   9.402  0.0266  0.4640 -0.1943
12104OCT     C224208  18.842  16.602   9.168 -0.0604  0.0004 -0.1355
12105OCT     C124209  22.746  18.598  20.771  0.1344 -0.1757 -0.0401
12105OCT     C224210  22.626  18.561  20.313 -0.0763  0.1396 -0.0637
12106OCT     C124211   1.761   7.715   8.927  0.2077 -0.2008 -0.3593
12106OCT     C224212   2.048   7.332   8.923 -0.3068 -0.1838  0.1562
12107OCT     C124213   5.249  15.899  10.024 -0.0648  0.2688 -0.2869
12107OCT     C224214   4.788  15.903   9.872  0.2024 -0.1938  0.1360
12108OCT     C124215  13.086  16.755   6.528  0.1291 -0.1592 -0.0199
12108OCT     C224216  13.053  16.706   6.053  0.3897 -0.1070  0.1724
12109OCT     C124217   2.778  20.268  17.053  0.1849 -0.0027  0.0556
12109OCT     C224218   3.078  19.944  17.048 -0.1392 -0.0063  0.2191
12110OCT     C124219  22.091  10.731   0.321  0.0310 -0.1777 -0.2285
12110OCT     C224220  22.377  10.465   0.077 -0.1244 -0.0772 -0.1212
12111OCT     C124221  19.106  16.977  13.026  0.2443  0.0623  0.2232
12111OCT     C224222  18.710  17.242  13.029  0.0725  0.1557 -0.1157
12112OCT     C124223  20.274   5.993  12.659 -0.0506  0.2040 -0.0083
12112OCT     C224224  20.596   5.856  12.998  0.3893  0.0736 -0.1869
12113OCT     C124225  11.293   0.336  14.805 -0.0106  0.3108 -0.0015
12113OCT     C224226  10.981  23.714  14.916  0.2635 -0.4428 -0.3429
12114OCT     C124227  13.940  13.310  10.835  0.4194 -0.1130 -0.2227
12114OCT     C224228  13.640  13.658  10.761  0.2089  0.0799 -0.3003
12115OCT     C124229  20.901  21.591  11.693 -0.2863 -0.0400 -0.0363
12115OCT     C224230  21.365  21.711  11.690 -0.1470 -0.0749  0.1613
12116OCT     C124231   1.291   7.627  19.932  0.0749  0.0186  0.2833
12116OCT     C224232   1.023   7.732  20.355 -0.1234  0.0990  0.0333
12117OCT     C124233   3.497  18.547  17.432 -0.1850  0.1511 -0.0677
12117OCT     C224234   3.653  18.526  17.869 -0.5728  0.4440 -0.3572
12118OCT     C124235   4.142   1.539  20.563 -0.0647  0.0369  0.0304
12118OCT     C224236   4.278   1.673  20.965 -0.3555 -0.5127 -0.4462
12119OCT     C124237   3.755  20.432   8.165 -0.0240 -0.1770  0.1867
12119OCT     C224238   4.179  20.238   8.290  0.1737 -0.1829 -0.0747
12120OCT     C124239  22.482  21.643  14.176 -0.1467 -0.0017 -0.1943
12120OCT     C224240  22.829  21.537  14.404 -0.0738 -0.1350  0.0637
12121OCT     C124241  22.126  16.637   4.378  0.2372  0.2962 -0.3391
12121OCT     C224242  22.083  16.275   4.625 -0.0351  0.1216  0.0443
12122OCT     C124243  13.302  17.200  11.054 -0.3786 -0.0160 -0.5714
12122OCT     C224244  13.173  17.382  10.689 -0.2107  0.0383 -0.1754
12123OCT     C124245  18.854  19.425  10.159 -0.2913  0.2583  0.2298
12123OCT     C224246  18.585  19.674  10.233 -0.0468 -0.2969 -0.0165
12124OCT     C124247  13.747  10.434  13.306  0.3520  0.0980  0.2070
12124OCT     C224248  13.783  10.483  12.837  0.1129  0.1922 -0.0807
12125OCT     C124249   1.359  19.576  13.476 -0.1527 -0.0688  0.1345
12125OCT     C224250   1.376  19.582  13.030 -0.1673 -0.3226  0.0549
12126OCT     C124251   8.297   7.281   8.063  0.0931  0.4304  0.1803
12126OCT     C224252   8.644   6.954   7.958 -0.0494 -0.2457 -0.1096
12127OCT     C124253   7.292   3.873  13.331 -0.1449 -0.0853  0.1221
12127OCT     C224254   7.325   3.875  12.868 -0.0318 -0.1464  0.1071
12128OCT     C124255   9.167   2.811   9.078  0.1253  0.4429  0.4136
12128OCT     C224256   9.505   2.487   9.161  0.0268 -0.0223 -0.0809
12129OCT     C124257  18.449  14.900   3.652 -0.0993 -0.1848  0.0596
12129OCT     C224258  18.028  15.052   3.746  0.0397 -0.1752  0.3928
12130OCT     C124259  14.354   5.349  13.097  0.1926 -0.0452 -0.0477
12130OCT     C224260  14.260   5.406  12.644 -0.0189  0.2450 -0.0540
12131OCT     C124261  14.012   9.066   6.339 -0.1772 -0.1056  0.3136
12131OCT     C224262  14.129   8.601   6.426 -0.0719 -0.2109  0.4006
12132OCT     C124263  21.304  15.736  17.871  0.0529  0.0199  0.0632
12132OCT     C224264  21.610  15.938  17.541  0.1372  0.3472 -0.0274
12133OCT     C124265  12.892  16.700  22.510 -0.2100 -0.2988 -0.1324
12133OCT     C224266  12.919  16.998  22.897 -0.0197 -0.1695  0.2504
12134OCT     C124267   7.222   7.951  17.968  0.0802 -0.3512  0.0549
12134OCT     C224268   6.838   7.726  18.026 -0.0886 -0.2078 -0.1272
12135OCT     C124269  16.635  16.978   7.983  0.1842 -0.1129  0.0578
12135OCT     C224270  16.212  17.185   8.152  0.0743  0.0497  0.2368
12136OCT     C124271   2.786   7.030  14.004  0.0458 -0.0662 -0.4570
12136OCT     C224272   3.213   6.837  13.853  0.1061 -0.1080 -0.1796
12137OCT     C124273   2.688  18.944  20.950 -0.2304  0.0390  0.2187
12137OCT     C224274   2.970  18.571  21.048 -0.1305  0.0008 -0.0927
12138OCT     C124275   9.043   7.993  13.193  0.2004  0.1494 -0.0872
12138OCT     C224276   9.130   7.551  13.141 -0.2738 -0.2080  0.1885
12139OCT     C124277  14.874  10.648   4.526  0.3409 -0.0564 -0.0010
12139OCT     C224278  15.290  10.824   4.503  0.4146 -0.4559 -0.2148
12140OCT     C124279   3.435  22.817  14.710 -0.0205  0.4358  0.0909
12140OCT     C224280   3.587  22.599  15.150 -0.1951  0.3348 -0.0274
12141OCT     C124281   6.512  10.566   7.937 -0.0771 -0.1165 -0.2404
12141OCT     C224282   6.201  10.840   8.211 -0.0593  0.1993  0.0678
12142OCT     C124283   0.340   2.225  15.693  0.3043 -0.0323  0.0897
12142OCT     C224284   0.764   2.229  15.363  0.2765 -0.1599 -0.2956
12143OCT     C124285   0.386   8.415   6.401 -0.2444 -0.0904  0.1779
12143OCT     C224286   0.217   8.301   5.970  0.2390  0.0841 -0.2867
12144OCT     C124287   4.004  23.550  19.468 -0.0154  0.2316 -0.0902
12144OCT     C224288   4.303  23.184  19.482  0.4780 -0.0627 -0.1008
12145OCT     C124289  12.006   5.374  10.715  0.1400 -0.1280  0.1337
12145OCT     C224290  12.029   5.754  10.410  0.0485 -0.1346  0.1175
12146OCT     C124291   2.881  11.427   2.868 -0.0932 -0.0477 -0.0296
12146OCT     C224292   2.540  11.595   2.554  0.2260 -0.2684 -0.3685
12147OCT     C124293  10.675  13.548  15.241 -0.0782 -0.2322  0.3890
12147OCT     C224294  10.401  13.749  15.499  0.0823 -0.0745  0.0207
12148OCT     C124295   0.112  20.789   7.595  0.1283  0.1872  0.0055
12148OCT     C224296   0.517  20.768   7.716 -0.0128  0.2376  0.1400
12149OCT     C124297  13.219   2.402  22.537 -0.1154  0.0023 -0.0437
12149OCT     C224298  13.608   2.273  22.342  0.0659 -0.1499 -0.2318
12150OCT     C124299  14.594  21.123  16.445  0.2266  0.1105  0.0820
12150OCT     C224300  14.483  21.269  16.018 -0.1889 -0.1597 -0.0787
12151OCT     C124301  16.903  10.816  16.483  0.1551  0.0736  0.0771
12151OCT     C224302  16.457  10.773  16.293  0.2406  0.1515  0.1976
12152OCT     C124303   0.134  16.796  16.187  0.2828  0.0806  0.2949
12152OCT     C224304   0.528  16.969  16.029 -0.2875  0.0218 -0.1167
12153OCT     C124305  12.360  21.028  11.602  0.4984  0.0996  0.0936
12153OCT     C224306  12.413  21.419  11.298 -0.0242 -0.0179  0.0882
12154OCT     C124307   2.381   4.581   0.064  0.5052 -0.1330 -0.4526
12154OCT     C224308   2.820   4.760   0.099  0.0170  0.2279 -0.2219
12155OCT     C124309   6.748  15.172  20.970 -0.2777 -0.1744 -0.1881
12155OCT     C224310   6.677  14.872  20.612 -0.3233 -0.0591 -0.0826
12156OCT     C124311   0.235   9.739  20.992 -0.2652  0.1218  0.3564
12156OCT     C224312   0.491   9.375  21.176 -0.3543 -0.0504 -0.1554
12157OCT     C124313  16.190  14.360   0.450  0.2901  0.1589 -0.0362
12157OCT     C224314  16.326  14.597   0.863 -0.2140 -0.1143  0.3847
12158OCT     C124315   9.927  15.897   7.957  0.0644  0.1295 -0.5825
12158OCT     C224316   9.637  15.917   8.368  0.0944  0.1117  0.2428
12159OCT     C124317   8.251  17.593  23.708 -0.3669 -0.1978 -0.1106
12159OCT     C224318   8.640  17.362   0.110  0.0020  0.1679  0.1328
12160OCT     C124319   9.990  20.791  16.339  0.1976  0.0026  0.0455
12160OCT     C224320   9.713  20.676  16.703  0.2367  0.0717 -0.1354
12161OCT     C124321  10.742  19.643   7.386  0.1654  0.4058  0.0504
12161OCT     C224322  10.559  19.256   7.657  0.1871 -0.4429 -0.1547
12162OCT     C124323   6.184   6.774  21.571 -0.0927 -0.3613  0.1707
12162OCT     C224324   6.198   7.227  21.659 -0.1765  0.0751  0.3684
12163OCT     C124325   1.022   1.115  14.330 -0.1883  0.1161  0.4258
12163OCT     C224326   0.691   1.171  14.639 -0.1374 -0.0453 -0.2998
12164OCT     C124327  20.578  20.016   2.519  0.0004  0.0517 -0.0181
12164OCT     C224328  20.612  20.397   2.756  0.3200  0.0716  0.1153
12165OCT     C124329   1.296   9.673  19.631 -0.3135  0.0613  0.1193
12165OCT     C224330   1.170   9.317  19.869 -0.0460 -0.1738 -0.4298
12166OCT     C124331   9.871   1.494  14.189  0.0881  0.1558 -0.1023
12166OCT     C224332   9.885   1.488  14.672  0.0912 -0.0682 -0.0111
12167OCT     C124333  17.506  12.963  20.563  0.1539 -0.1516 -0.1077
12167OCT     C224334  17.212  12.670  20.364  0.1414  0.0716  0.1201
12168OCT     C124335  16.684  23.221   3.920 -0.3936 -0.2224  0.4424
12168OCT     C224336  16.602  23.705   3.760  0.1080 -0.0318 -0.1606
12169OCT     C124337  12.937   2.844  22.713 -0.1192 -0.1378 -0.1361
12169OCT     C224338  12.668   2.498  22.631 -0.2902  0.0675  0.3730
12170OCT     C124339  16.191   4.546   0.050  0.1319 -0.2853  0.1868
12170OCT     C224340  16.317   4.912  23.533  0.0636  0.2079  0.0477
12171OCT     C124341  20.129   5.620  13.081 -0.3870  0.4098  0.4293
12171OCT     C224342  19.731   5.428  13.054  0.0407 -0.2220 -0.0556
12172OCT     C124343   0.427  17.358  12.491 -0.2757  0.0168  0.2642
12172OCT     C224344   0.805  17.376  12.758 -0.0592  0.2527 -0.0368
12173OCT     C124345   1.912  21.512  16.321  0.2915 -0.0130 -0.1716
12173OCT     C224346   1.790  21.079  16.575  0.2810  0.0173  0.3271
12174OCT     C124347  21.604  17.989  19.786  0.0188  0.1738 -0.0747
12174OCT     C224348  21.999  17.754  19.878  0.1798 -0.4821 -0.5890
12175OCT     C124349  13.107  17.351   9.313 -0.2401 -0.0578 -0.3104
12175OCT     C224350  13.044  17.243   9.764  0.2563  0.0544 -0.1133
12176OCT     C124351   5.969  18.330   1.870 -0.3510  0.1789  0.1331
12176OCT     C224352   6.387  18.164   1.673  0.2401 -0.2429 -0.0815
12177OCT     C124353   9.571  14.939  18.915  0.0080  0.2908  0.1034
12177OCT     C224354   9.365  14.571  19.072  0.0188 -0.3044 -0.0890
12178OCT     C124355   5.061  16.359  23.597 -0.3610  0.0302  0.0548
12178OCT     C224356   4.808  16.685   0.097  0.1295  0.1142  0.1880
12179OCT     C124357  12.213  10.889  22.598 -0.1977  0.1379  0.0442
12179OCT     C224358  12.393  10.455  22.751  0.1477  0.0262 -0.1576
12180OCT     C124359   6.664   4.989  20.470  0.0573 -0.1861  0.4200
12180OCT     C224360   6.781   4.620  20.737  0.2080  0.3645  0.0562
12181OCT     C124361  17.340  10.497  17.422 -0.0149 -0.1805  0.0488
12181OCT     C224362  16.912  10.527  17.558  0.1247 -0.1717 -0.0935
12182OCT     C124363   1.792   9.509  11.466  0.0543 -0.1869  0.0847
12182OCT     C224364   1.439   9.676  11.159  0.0102 -0.0225  0.0346
12183OCT     C124365   2.414  15.566  10.363 -0.1833  0.1084 -0.0723
12183OCT     C224366   2.572  15.136  10.236 -0.4142 -0.1292  0.0488
12184OCT     C124367  14.980  16.260   9.642  0.3762  0.1707 -0.1539
12184OCT     C224368  15.041  16.640   9.460  0.0600 -0.1723  0.1792
12185OCT     C124369  12.986   7.400  17.027 -0.0710 -0.1071  0.1516
12185OCT     C224370  12.694   7.627  17.284  0.2528 -0.1372 -0.0308
12186OCT     C124371   7.423   6.068   0.567 -0.2011 -0.1622 -0.0766
12186OCT     C224372   7.141   5.693   0.720  0.2582 -0.0132 -0.2111
12187OCT     C124373  15.568   3.044  13.721  0.1975 -0.0453  0.1094
12187OCT     C224374  15.936   2.898  14.003 -0.0732 -0.1673 -0.1036
12188OCT     C124375   4.637  23.714   8.470 -0.0291 -0.0565 -0.1684
12188OCT     C224376   4.802   0.336   8.149 -0.0102 -0.0935  0.0926
12189OCT     C124377   4.213  22.602  13.432  0.0404  0.0291  0.2935
12189OCT     C224378   4.191  23.071  13.337 -0.0750 -0.2249 -0.0009
12190OCT     C124379  17.964  19.281  17.132  0.1350  0.2075 -0.0646
12190OCT     C224380  18.231  19.462  16.798 -0.2224 -0.2139 -0.0457
12191OCT     C124381  22.961   1.059  13.475 -0.0375  0.1078  0.0047
12191OCT     C224382  22.911   0.601  13.609 -0.2952 -0.0994 -0.2492
12192OCT     C124383   4.094   4.733  10.453 -0.2006 -0.2445 -0.5681
12192OCT     C224384   4.250   5.114  10.294 -0.1583  0.0104  0.1046
12193OCT     C124385  18.948  16.616   6.534  0.4982  0.0893 -0.3165
12193OCT     C224386  19.216  16.843   6.228  0.1414 -0.1567 -0.2662
12194OCT     C124387  16.517  19.951  21.458  0.1670  0.2286  0.4036
12194OCT     C224388  16.345  19.962  21.902 -0.2054  0.1849 -0.3721
12195OCT     C124389   2.553  21.630   0.452  0.0744 -0.1217  0.2331
12195OCT     C224390   2.913  21.997   0.370  0.2118 -0.5077  0.4446
12196OCT     C124391  14.464  21.047  14.168  0.1102  0.1951  0.2752
12196OCT     C224392  14.122  20.740  14.345 -0.0312 -0.2456 -0.2075
12197OCT     C124393  13.437  17.749  21.389 -0.2120 -0.1064 -0.4915
12197OCT     C224394  13.232  17.744  21.797 -0.4012  0.1420  0.2163
12198OCT     C124395   5.812  15.870   8.661  0.0671  0.0123  0.1370
12198OCT     C224396   5.369  15.970   8.773  0.2280 -0.0018  0.1135
12199OCT     C124397   4.476  15.628   7.204  0.0204 -0.2890  0.0802
12199OCT     C224398   4.224  15.786   6.860 -0.2985  0.0117  0.2217
12200OCT     C124399   9.007   8.375   5.276  0.1427  0.4652 -0.1423
12200OCT     C224400   9.001   8.116   4.891 -0.1290  0.0558  0.1758
12201OCT     C124401   9.873   3.192   4.452  0.3660  0.1464  0.2729
12201OCT     C224402   9.770   3.407   4.036  0.3375 -0.2164  0.3824
12202OCT     C124403   1.084  16.840   7.567  0.0366 -0.3741 -0.2353
12202OCT     C224404   1.290  17.171   7.281 -0.0310 -0.5108 -0.1209
12203OCT     C124405  15.882   1.709  18.614 -0.3910 -0.4181  0.4138
12203OCT     C224406  15.618   2.056  18.455 -0.3612 -0.3851 -0.1771
12204OCT     C124407   7.309   7.122  19.029 -0.1173 -0.0409  0.1781
12204OCT     C224408   7.468   7.404  18.743 -0.2949 -0.2292 -0.0736
12205OCT     C124409   4.936   6.558  19.916  0.4136 -0.2160  0.3197
12205OCT     C224410   4.535   6.296  20.048 -0.3685  0.0933 -0.0374
12206OCT     C124411  18.964  13.975  23.130  0.0537  0.0156  0.2397
12206OCT     C224412  19.309  13.688  23.064  0.0113  0.0422 -0.0355
12207OCT     C124413   6.092  16.979  17.236  0.2903  0.4130  0.1023
12207OCT     C224414   5.825  16.716  17.467  0.0193 -0.3738 -0.1520
12208OCT     C124415  22.391  21.987  23.302 -0.1500  0.0181 -0.4311
12208OCT     C224416  22.481  21.542  23.331 -0.0275 -0.1967 -0.1900
12209OCT     C124417  19.488   7.545  19.531 -0.0733  0.1976 -0.2488
12209OCT     C224418  19.524   7.933  19.736 -0.0442  0.1241 -0.0557
12210OCT     C124419   0.360   8.010  11.536 -0.2735 -0.3055  0.4178
12210OCT     C224420   0.655   7.591  11.633 -0.3983 -0.2881 -0.2066
12211OCT     C124421  11.948   6.663  10.293  0.0509  0.1156  0.1958
12211OCT     C224422  12.363   6.949  10.193 -0.0044 -0.5682 -0.0093
12212OCT     C124423  19.274  13.148  18.238 -0.0867 -0.0842 -0.0995
12212OCT     C224424  18.986  12.857  18.454 -0.2877 -0.4311  0.1239
12213OCT     C124425  17.962   8.569  19.176  0.4448 -0.0702 -0.3466
12213OCT     C224426  17.815   8.200  19.389  0.0449  0.1767  0.3415
12214OCT     C124427  23.692  18.053  15.390 -0.4462 -0.1545  0.0047
12214OCT     C224428   0.386  17.897  15.310  0.1541 -0.2416 -0.0449
12215OCT     C124429   4.268   0.854   5.070  0.0924  0.0066 -0.1032
12215OCT     C224430   4.484   0.514   5.344 -0.1231 -0.0441 -0.0607
12216OCT     C124431  10.857  16.286  18.930  0.0118 -0.0598  0.4475
12216OCT     C224432  11.176  16.502  19.175  0.1632  0.1067  0.0281
12217OCT     C124433  20.157   4.489  17.111  0.2540  0.2997  0.0730
12217OCT     C224434  20.205   4.521  16.630 -0.1533  0.0630 -0.2397
12218OCT     C124435  18.289   4.954   5.036 -0.0692 -0.2297  0.0980
12218OCT     C224436  18.032   4.606   4.816  0.1174 -0.2452 -0.3567
12219OCT     C124437  14.617   0.378  15.693  0.1424 -0.0700  0.1791
12219OCT     C224438  15.051   0.494  15.726 -0.1552  0.1353  0.2442
12220OCT     C124439   9.140   2.890  23.526 -0.0245  0.1222 -0.0336
12220OCT     C224440   8.751   2.900  23.715  0.1682 -0.5566  0.4485
12221OCT     C124441  14.685   7.639   9.032  0.2051  0.1520 -0.3234
12221OCT     C224442  14.342   7.361   9.104  0.3874  0.0090 -0.3549
12222OCT     C124443  11.391   6.821   6.307 -0.0926  0.1251 -0.1489
12222OCT     C224444  11.459   6.927   5.885  0.2502 -0.0827  0.0699
12223OCT     C124445   5.487  16.181   1.768  0.0027  0.4016 -0.0978
12223OCT     C224446   5.216  16.537   2.024  0.0558 -0.2005  0.1283
12224OCT     C124447  12.674   0.851   6.540  0.1135  0.2659 -0.2581
12224OCT     C224448  12.394   0.569   6.874  0.0176 -0.2763  0.3493
12225OCT     C124449  22.463   3.491   1.591 -0.0600  0.0119 -0.1103
12225OCT     C224450  22.495   3.783   1.249 -0.1795  0.1113  0.1958
12226OCT     C124451   2.348  11.135   1.715  0.3668  0.1011  0.2727
12226OCT     C224452   2.522  10.760   1.612 -0.1448 -0.1131  0.4197
12227OCT     C124453  18.919  10.312   8.798  0.1302  0.0471 -0.3042
12227OCT     C224454  19.406  10.358   8.843  0.1103 -0.1197 -0.1278
12228OCT     C124455   9.118  19.462  22.161 -0.1176  0.1150  0.0423
12228OCT     C224456   8.935  19.109  22.347 -0.1192 -0.1037 -0.3029
12229OCT     C124457  20.070  23.556   6.501 -0.0819  0.1988 -0.0256
12229OCT     C224458  19.646  23.334   6.551  0.0932 -0.2735  0.0625
12230OCT     C124459  13.974  16.240   2.806 -0.2827  0.2197 -0.0723
12230OCT     C224460  13.897  15.900   2.510 -0.5009 -0.0945  0.3274
12231OCT     C124461  13.914  11.878  10.148  0.1758  0.3089 -0.0054
12231OCT     C224462  13.997  11.812   9.653 -0.4020 -0.1887 -0.0720
12232OCT     C124463   0.145   0.511   8.271  0.5031 -0.1273 -0.1042
12232OCT     C224464  23.532   0.374   8.592 -0.2051  0.2296  0.0569
12233OCT     C124465   5.739   5.054  20.594  0.1147 -0.2351 -0.0528
12233OCT     C224466   5.825   4.656  20.365 -0.0699 -0.0625  0.3234
12234OCT     C124467   9.108  14.772   7.440  0.0786 -0.0688 -0.1097
12234OCT     C224468   8.631  14.771   7.452  0.1440  0.5098 -0.0752
12235OCT     C124469   7.872   6.080   8.145 -0.3594 -0.1159 -0.6538
12235OCT     C224470   7.749   5.646   8.045 -0.2156  0.0741  0.0099
12236OCT     C124471   5.920  14.004  12.304 -0.0858 -0.0723 -0.3279
12236OCT     C224472   5.681  14.387  12.268  0.6062 -0.3818 -0.1002
12237OCT     C124473  15.912   7.002  15.476  0.2020  0.0757  0.1560
12237OCT     C224474  15.524   7.244  15.361  0.1275 -0.2019 -0.1994
12238OCT     C124475  11.122  22.967   2.416 -0.1837 -0.4247 -0.4376
12238OCT     C224476  11.188  23.322   2.110  0.0149 -0.0774  0.1953
12239OCT     C124477   6.098   2.582  18.375  0.0180  0.1680 -0.2898
12239OCT     C224478   5.713   2.425  18.155 -0.0883 -0.3063  0.0392
12240OCT     C124479  17.864  21.302   4.353 -0.1668  0.1605  0.2433
12240OCT     C224480  17.383  21.241   4.438 -0.0898 -0.2872 -0.1380
12241OCT     C124481   8.558   0.301   6.774  0.2625  0.0767  0.0878
12241OCT     C224482   8.667   0.696   6.941 -0.2308 -0.2506 -0.2188
12242OCT     C124483  10.865  13.278  18.359 -0.1794 -0.1581 -0.1494
12242OCT     C224484  10.757  13.309  18.773 -0.0795 -0.0417 -0.1058
12243OCT     C124485  10.554  15.556   1.316  0.1305  0.0211  0.1944
12243OCT     C224486  11.043  15.674   1.346  0.2348  0.0702 -0.2411
12244OCT     C124487  10.392  14.204   9.402 -0.2335 -0.3209 -0.0693
12244OCT     C224488  10.843  14.332   9.576  0.0590 -0.1673  0.3378
12245OCT     C124489  23.486  21.545   6.096 -0.0172 -0.0002  0.0898
12245OCT     C224490  23.465  21.953   6.324 -0.0574  0.2097  0.1565
12246OCT     C124491  20.294  15.797   8.375 -0.3395  0.1872 -0.0489
12246OCT     C224492  20.664  15.812   8.685 -0.3027 -0.3174  0.0308
12247OCT     C124493  19.606  14.231   7.220  0.2658  0.0416 -0.0533
12247OCT     C224494  20.014  14.264   7.447  0.6285  0.0853 -0.3415
12248OCT     C124495  11.120  22.086   8.968  0.1195  0.1844 -0.5560
12248OCT     C224496  11.438  22.013   9.337  0.3098  0.1160 -0.0410
12249OCT     C124497  20.198   1.338  13.953  0.6164  0.1333 -0.1123
12249OCT     C224498  20.136   1.043  14.337  0.1717 -0.2790  0.1188
12250OCT     C124499  23.125  21.428  22.287  0.2779 -0.1476 -0.1528
12250OCT     C224500  22.921  21.052  22.114 -0.1194 -0.0676 -0.0485
12251OCT     C124501   6.791   1.361   2.742  0.3553  0.0024  0.0187
12251OCT     C224502   6.420   1.267   2.498 -0.0287  0.0293  0.3215
12252OCT     C124503  11.222  12.412  20.632 -0.4418 -0.1404 -0.0467
12252OCT     C224504  11.107  12.548  21.060  0.2670 -0.0420  0.0345
12253OCT     C124505  20.474  20.672  12.663  0.0648 -0.2296 -0.1571
12253OCT     C224506  20.224  20.351  12.404  0.0884 -0.0934 -0.3296
12254OCT     C124507   3.445  14.477   1.289  0.3533  0.1376  0.1888
12254OCT     C224508   3.598  14.676   0.912  0.1266  0.1863  0.1629
12255OCT     C124509  17.831  22.799  12.699  0.1064  0.4153 -0.4527
12255OCT     C224510  17.485  22.982  12.387 -0.1053  0.5927 -0.1081
12256OCT     C124511  11.785  21.078  17.702 -0.0280 -0.1176  0.1784
12256OCT     C224512  12.014  20.887  18.049  0.1083 -0.0189 -0.1601
12257OCT     C124513  13.311   7.625   7.376  0.2901 -0.4316 -0.4008
12257OCT     C224514  13.064   7.885   7.105 -0.0183 -0.1858  0.0407
12258OCT     C124515  16.437   5.203   3.908  0.2159  0.1042  0.1693
12258OCT     C224516  16.764   5.410   3.565  0.1413  0.1470 -0.3907
12259OCT     C124517  23.334   3.544  20.149  0.3152  0.3721 -0.1546
12259OCT     C224518  23.604   3.922  20.106  0.0973  0.1378 -0.0644
12260OCT     C124519   3.199  15.068  10.422 -0.1225  0.1041  0.2628
12260OCT     C224520   3.509  15.219  10.683  0.2120  0.2906 -0.0349
12261OCT     C124521  23.071  18.227   1.551  0.2593 -0.1781 -0.2429
12261OCT     C224522  23.144  17.985   1.136 -0.1070  0.0534 -0.0356
12262OCT     C124523  14.250  16.880   0.405 -0.2144  0.0753  0.2556
12262OCT     C224524  13.823  16.960   0.162  0.0036 -0.1383 -0.0278
12263OCT     C124525  17.517  10.731  20.709  0.0616 -0.1498  0.0273
12263OCT     C224526  17.574  10.738  20.249  0.0796  0.1323  0.0602
12264OCT     C124527  15.651   8.437  22.973  0.2031  0.1225 -0.2423
12264OCT     C224528  15.903   8.730  23.267  0.0134 -0.1395  0.3418
12265OCT     C124529   6.066  10.039  19.710  0.2669  0.0824 -0.1691
12265OCT     C224530   5.801   9.633  19.613  0.0555  0.1718 -0.2976
12266OCT     C124531  18.086  18.729   8.018  0.1148 -0.3619 -0.2929
12266OCT     C224532  18.108  18.269   8.128 -0.1645 -0.1184 -0.0506
12267OCT     C124533  21.821   4.057  20.242  0.3093  0.0419  0.0017
12267OCT     C224534  21.429   4.176  20.060 -0.1119 -0.1234  0.0156
12268OCT     C124535   1.265   5.977  14.705  0.2094 -0.3996  0.1922
12268OCT     C224536   0.846   5.752  14.653 -0.0864 -0.1173  0.1829
12269OCT     C124537   8.904  11.839  10.339 -0.1435 -0.1183  0.1704
12269OCT     C224538   8.632  11.613  10.660 -0.3105 -0.2750  0.1675
12270OCT     C124539  18.262   7.870   8.227 -0.0417  0.2082  0.1339
12270OCT     C224540  18.605   8.186   8.038  0.4246  0.3371  0.0425
12271OCT     C124541  18.513  11.948   9.372  0.1297 -0.0300 -0.0598
12271OCT     C224542  18.576  11.631   9.102 -0.2831 -0.4342  0.2131
12272OCT     C124543   7.000   8.016   3.829 -0.1672  0.5140  0.2660
12272OCT     C224544   7.158   8.454   3.942  0.1446  0.0328 -0.0241
12273OCT     C124545   1.133  16.127  22.491 -0.3567  0.1926 -0.1822
12273OCT     C224546   1.477  16.466  22.471 -0.0829 -0.0381  0.1573
12274OCT     C124547  23.624  14.884  21.159 -0.0938 -0.3256 -0.1493
12274OCT     C224548   0.111  14.838  20.738 -0.0754 -0.0479 -0.0165
12275OCT     C124549  11.170  19.830  17.432 -0.0878  0.0868 -0.1403
12275OCT     C224550  11.332  19.432  17.624  0.5906  0.1880  0.1705
12276OCT     C124551  20.697   2.537   2.144  0.1125 -0.3953 -0.3197
12276OCT     C224552  20.339   2.771   1.969 -0.1912 -0.3075  0.1183
12277OCT     C124553   1.807  11.312  19.434  0.0956  0.2134  0.3750
12277OCT     C224554   1.457  11.008  19.363  0.0456 -0.2060  0.2074
12278OCT     C124555   6.468   2.254  23.693 -0.3854 -0.2712 -0.0515
12278OCT     C224556   6.387   2.691   0.100 -0.1556 -0.2616 -0.1421
12279OCT     C124557  13.928   1.748   6.387 -0.1411  0.2254  0.0047
12279OCT     C224558  13.911   1.479   6.812  0.1146 -0.2122 -0.2504
12280OCT     C124559   1.510  16.408  17.481 -0.1922  0.3312 -0.0753
12280OCT     C224560   1.737  16.239  17.076  0.3615 -0.0186 -0.2064
12281OCT     C124561   1.667  10.545   4.994  0.3396  0.2121 -0.2362
12281OCT     C224562   1.900  10.143   4.912  0.0680  0.1696  0.0403
12282OCT     C124563  11.705  22.193  17.043  0.0042  0.0011  0.0781
12282OCT     C224564  11.435  22.560  16.877 -0.1224  0.4177 -0.2006
12283OCT     C124565  12.302   7.486   7.461  0.1330 -0.1305 -0.0012
12283OCT     C224566  12.547   7.882   7.411 -0.0161 -0.0545  0.0427
12284OCT     C124567  16.712  20.298   7.928  0.0239 -0.1658  0.2352
12284OCT     C224568  16.731  20.362   7.429  0.1510  0.0696  0.2155
12285OCT     C124569   6.946  19.533  19.625 -0.1426  0.2487 -0.0027
12285OCT     C224570   6.802  19.936  19.692 -0.1609  0.1372  0.2598
12286OCT     C124571  14.110  12.801  11.922 -0.0632  0.2625  0.3318
12286OCT     C224572  14.309  13.139  12.147  0.2016  0.2761  0.0622
12287OCT     C124573   9.227  18.887  21.240  0.1364 -0.1177  0.1189
12287OCT     C224574   8.880  18.560  21.244  0.1594 -0.0069  0.0951
12288OCT     C124575   8.684   4.091  17.496  0.1934 -0.0515 -0.2231
12288OCT     C224576   8.823   3.963  17.907 -0.2318 -0.1574 -0.3448
12289OCT     C124577   9.517  21.306  13.788 -0.2646  0.1478  0.0294
12289OCT     C224578   9.471  21.684  13.462  0.0289  0.0659  0.2468
12290OCT     C124579  12.437  13.917   5.675 -0.2401 -0.1688 -0.2070
12290OCT     C224580  12.893  13.743   5.729 -0.2409  0.3167  0.0164
12291OCT     C124581  16.474   6.244   5.210  0.0494  0.2360  0.4684
12291OCT     C224582  16.416   6.633   5.418 -0.0143  0.2989 -0.2506
12292OCT     C124583   4.886   1.614   3.989 -0.1052 -0.3210 -0.2731
12292OCT     C224584   4.500   1.436   3.938 -0.2493 -0.0288 -0.2127
12293OCT     C124585   0.355  13.437  18.933  0.4631  0.1170 -0.0048
12293OCT     C224586   0.331  13.596  18.504  0.3479  0.0594 -0.0322
12294OCT     C124587  19.821  10.088  16.046  0.2863 -0.6261 -0.2232
12294OCT     C224588  19.956   9.709  15.801 -0.0872  0.3939 -0.2863
12295OCT     C124589  23.289  16.085  19.709 -0.2075 -0.4060 -0.0518
12295OCT     C224590  22.957  16.427  19.755  0.1346  0.1067  0.1817
12296OCT     C124591   0.161  15.482  10.239 -0.2560 -0.0243 -0.1245
12296OCT     C224592  23.650  15.879  10.132  0.3370  0.2913 -0.0951
12297OCT     C124593  21.025  13.035   3.015  0.1898  0.0286 -0.0610
12297OCT     C224594  20.943  12.638   3.176 -0.0405  0.0072 -0.2255
12298OCT     C124595  16.551   2.371  22.949 -0.1335  0.0094  0.2213
12298OCT     C224596  16.500   1.941  22.715 -0.3650 -0.2484  0.4698
12299OCT     C124597  12.797   7.236  20.317  0.1315 -0.1711  0.0080
12299OCT     C224598  13.046   7.164  19.920 -0.1356  0.0715  0.5848
12300OCT     C124599   6.025   9.185   5.798 -0.0530  0.1162 -0.0863
12300OCT     C224600   5.783   9.353   5.395  0.4955  0.0353 -0.0568
12301OCT     C124601   4.286  13.421  11.404 -0.2281  0.3136  0.0744
12301OCT     C224602   4.248  13.039  11.212 -0.0446  0.2792 -0.0290
12302OCT     C124603   9.666   1.528  19.851 -0.1687  0.2401  0.0314
12302OCT     C224604   9.604   1.875  19.578 -0.0854  0.1625 -0.1560
12303OCT     C124605   9.352   0.148   1.091  0.0400  0.0644  0.0861
12303OCT     C224606   9.617  23.502   1.166  0.5099  0.0983  0.3699
12304OCT     C124607  19.887  23.509   0.097  0.0778  0.2566  0.2215
12304OCT     C224608  19.686  23.542   0.566  0.0206  0.1925 -0.1920
12305OCT     C124609   3.524   0.214  12.534  0.4467  0.0499 -0.0310
12305OCT     C224610   3.836   0.329  12.266  0.2131 -0.1705 -0.1315
12306OCT     C124611  22.097  14.285   4.821 -0.4339  0.1363  0.0585
12306OCT     C224612  22.550  14.247   4.781 -0.0991 -0.1389 -0.1745
12307OCT     C124613  17.454  20.448  11.898 -0.0014  0.4599 -0.1627
12307OCT     C224614  17.398  20.813  11.581 -0.3026 -0.0546  0.0597
12308OCT     C124615  13.751   9.606  17.539  0.0039 -0.0527 -0.3651
12308OCT     C224616  14.276   9.651  17.573 -0.1263  0.0215 -0.2953
12309OCT     C124617  23.615   8.083  13.145 -0.1280 -0.3381  0.2325
12309OCT     C224618  23.191   7.936  13.278  0.3506 -0.1100  0.1236
12310OCT     C124619   0.395   0.149  17.737 -0.2527  0.0429  0.0429
12310OCT     C224620   0.372  23.670  18.135 -0.1339 -0.2270  0.2333
12311OCT     C124621  16.119  21.719  10.789  0.2711 -0.1782 -0.3849
12311OCT     C224622  16.086  22.136  10.762 -0.5954 -0.0942 -0.0855
12312OCT     C124623   2.296   8.913   4.188  0.1093  0.1055 -0.3413
12312OCT     C224624   2.356   8.738   3.746 -0.4025 -0.0374 -0.3073
12313OCT     C124625  12.451   1.255   0.312  0.1463 -0.1062 -0.2469
12313OCT     C224626  12.621   1.667   0.398 -0.2098 -0.0768  0.1160
12314OCT     C124627   6.502   6.982  22.826 -0.2403 -0.0081  0.0102
12314OCT     C224628   6.185   6.865  23.116  0.0141  0.3184  0.1673
12315OCT     C124629  20.936  16.639  19.925  0.2031 -0.0512  0.1901
12315OCT     C224630  21.357  16.774  19.910  0.0447 -0.1729  0.1059
12316OCT     C124631  11.989  21.675  18.520 -0.1324  0.0235 -0.1557
12316OCT     C224632  11.624  21.374  18.371  0.2962 -0.2450  0.1483
12317OCT     C124633   8.408  11.624   3.743 -0.0528  0.1387 -0.1425
12317OCT     C224634   8.048  11.601   3.444  0.0746 -0.0655 -0.1125
12318OCT     C124635  10.266   0.202   0.608  0.1489 -0.1596  0.2662
12318OCT     C224636  10.069   0.560   0.402 -0.3733  0.1326 -0.2159
12319OCT     C124637   7.597  21.903  21.032  0.0253  0.1515  0.0744
12319OCT     C224638   7.845  22.046  20.664 -0.0666 -0.0560 -0.1274
12320OCT     C124639   0.856   0.943   9.588  0.0091 -0.4129 -0.0781
12320OCT     C224640   1.308   0.891   9.715  0.3052 -0.3269 -0.2004
12321OCT     C124641  18.396   3.575  10.791  0.0833 -0.2588  0.3364
12321OCT     C224642  18.075   3.698  11.089  0.0001 -0.2940 -0.2717
12322OCT     C124643  14.947  13.176  14.487 -0.1872 -0.1481  0.1631
12322OCT     C224644  14.583  13.253  14.194  0.1464  0.3845 -0.1820
12323OCT     C124645   0.365  15.892   1.813 -0.2598 -0.2987  0.3865
12323OCT     C224646   0.403  15.609   1.408  0.1992 -0.0244  0.0290
12324OCT     C124647  12.814   9.064  10.154  0.1856 -0.1240  0.1761
12324OCT     C224648  13.075   9.289   9.852  0.0667 -0.3220 -0.4272
12325OCT     C124649  20.835  17.953   5.027 -0.0229 -0.2250  0.3747
12325OCT     C224650  20.559  18.039   4.694  0.1057 -0.2635 -0.0273
12326OCT     C124651  16.177   4.240  10.943  0.2488 -0.1978  0.3005
12326OCT     C224652  15.736   4.216  11.026 -0.1586 -0.2643  0.2132
12327OCT     C124653   1.669   3.429  16.772 -0.1917 -0.0009 -0.1317
12327OCT     C224654   1.917   3.292  17.155  0.1125 -0.2658 -0.4245
12328OCT     C124655  14.865   8.714  19.045 -0.2790 -0.0680  0.0877
12328OCT     C224656  14.510   8.451  19.044 -0.2322 -0.1193  0.2285
12329OCT     C124657   4.713  10.030  11.552 -0.2448 -0.1462 -0.0338
12329OCT     C224658   4.416   9.869  11.871  0.0754  0.0694 -0.0706
12330OCT     C124659  17.319  12.157  20.483 -0.1018 -0.0242 -0.5727
12330OCT     C224660  17.097  11.917  20.196 -0.1494 -0.3193 -0.1121
12331OCT     C124661   2.471  17.500  15.905 -0.0063  0.2888 -0.1049
12331OCT     C224662   2.417  17.042  15.932  0.0521 -0.0897  0.0795
12332OCT     C124663  21.871   9.514   5.428  0.3486 -0.2498 -0.2418
12332OCT     C224664  21.624   9.892   5.570 -0.1589  0.1914  0.1029
12333OCT     C124665   2.416  22.374  17.883 -0.2432 -0.2157  0.0262
12333OCT     C224666   2.273  21.939  17.705 -0.0475 -0.1507  0.0598
12334OCT     C124667  14.947   8.484  23.046  0.5041  0.1641  0.0636
12334OCT     C224668  14.587   8.715  22.915 -0.0099 -0.0343  0.0298
12335OCT     C124669  19.609  18.119  15.620 -0.2124  0.0638 -0.2347
12335OCT     C224670  19.583  18.157  16.111 -0.0281 -0.1412 -0.0364
12336OCT     C124671   6.631  18.504   0.812 -0.0754  0.3777  0.0292
12336OCT     C224672   6.369  18.177   1.052 -0.1176 -0.1966  0.0755
12337OCT     C124673   3.499  20.001  14.190  0.0556  0.1119  0.0382
12337OCT     C224674   3.336  20.417  14.218 -0.0963 -0.1683 -0.0904
12338OCT     C124675  15.782   0.148   0.920 -0.0235  0.1068  0.0421
12338OCT     C224676  15.588   0.456   1.178  0.1754  0.0058  0.1582
12339OCT     C124677   1.572  21.920  18.232 -0.4229 -0.1053 -0.1466
12339OCT     C224678   1.197  22.069  18.381  0.3578 -0.2454 -0.0260
12340OCT     C124679   4.288  12.641   4.118  0.2742 -0.2668 -0.0048
12340OCT     C224680   3.987  12.374   3.986  0.0140  0.1479  0.1732
12341OCT     C124681  21.842   6.473  11.919 -0.0767 -0.0324 -0.3791
12341OCT     C224682  21.493   6.325  11.661 -0.2201 -0.0046 -0.1571
12342OCT     C124683  16.050  16.788  22.659 -0.0857  0.5060  0.1791
12342OCT     C224684  16.458  16.976  22.760  0.1598  0.1055 -0.4716
12343OCT     C124685   8.736   5.565  21.850 -0.3017 -0.1714  0.0118
12343OCT     C224686   8.631   5.991  21.678 -0.0866 -0.3982 -0.3094
12344OCT     C124687   9.414   4.199  10.750  0.0611  0.0202 -0.1904
12344OCT     C224688   9.428   3.770  10.923  0.1421  0.1128 -0.4055
12345OCT     C124689  12.978  17.922   9.885 -0.0609  0.0959  0.0854
12345OCT     C224690  13.330  18.214   9.838 -0.2908  0.4423 -0.1734
12346OCT     C124691   0.822   4.318  21.735 -0.0217  0.0229 -0.0441
12346OCT     C224692   0.495   3.982  21.703  0.1092  0.1218 -0.0195
12347OCT     C124693  22.127   6.615  19.587  0.0740  0.2868 -0.0100
12347OCT     C224694  22.113   6.229  19.415 -0.3256  0.3384  0.0676
12348OCT     C124695  22.976   2.688   7.032 -0.1109 -0.3608 -0.5058
12348OCT     C224696  23.343   2.844   7.217 -0.3801 -0.4611 -0.2641
12349OCT     C124697   8.186  12.007  17.858 -0.2246  0.3674  0.1147
12349OCT     C224698   8.255  12.214  18.226  0.1298 -0.2390  0.0841
12350OCT     C124699  17.348   0.360  18.673 -0.0402  0.1583  0.1472
12350OCT     C224700  17.199   0.434  19.121 -0.4257  0.4163  0.0435
12351OCT     C124701  13.198  18.190   5.802 -0.0556  0.3302 -0.0793
12351OCT     C224702  13.412  17.741   5.816  0.0740 -0.1308  0.1120
12352OCT     C124703  22.838  19.597  22.975 -0.1116  0.1954 -0.0406
12352OCT     C224704  22.362  19.594  23.069  0.1446 -0.2202 -0.1576
12353OCT     C124705   9.157   6.565  20.892 -0.2160 -0.0405 -0.2593
12353OCT     C224706   9.013   6.427  21.292  0.0820 -0.2169 -0.4584
12354OCT     C124707   0.574   2.810  21.578 -0.1459  0.1360 -0.2638
12354OCT     C224708   0.413   2.487  21.903 -0.1204  0.0839  0.1707
12355OCT     C124709   7.470   5.176   8.024  0.0914 -0.1287  0.4098
12355OCT     C224710   7.275   4.760   7.971  0.2083 -0.0208  0.0521
12356OCT     C124711  10.883   0.592  11.697  0.0561  0.1875  0.0330
12356OCT     C224712  10.784   0.989  11.897  0.2773  0.0960 -0.1330
12357OCT     C124713  10.623  22.987  22.073  0.0907  0.0909 -0.4043
12357OCT     C224714  10.702  22.543  21.927 -0.0649 -0.0930  0.3094
12358OCT     C124715   6.361  14.640   9.553 -0.0383 -0.0073 -0.0159
12358OCT     C224716   5.971  14.890   9.516  0.1195  0.2833 -0.0036
12359OCT     C124717  19.421   3.540  15.768  0.1805 -0.0987  0.1999
12359OCT     C224718  19.280   3.365  15.376 -0.1608 -0.2192  0.1899
12360OCT     C124719   0.674   8.192   7.976  0.2586  0.2860  0.1795
12360OCT     C224720   0.984   8.092   8.214  0.1599  0.1321 -0.0482
12361OCT     C124721   0.172  20.897   0.609  0.3471 -0.1626  0.0421
12361OCT     C224722   0.188  21.192   0.911 -0.4004 -0.0340  0.3176
12362OCT     C124723   8.319  17.165  10.561  0.2964 -0.1467 -0.1655
12362OCT     C224724   8.034  17.350  10.290 -0.0834 -0.2170  0.3299
12363OCT     C124725  18.043  17.110  22.158 -0.1210 -0.1143  0.3814
12363OCT     C224726  17.791  16.712  22.017  0.0786  0.3565  0.2444
12364OCT     C124727  16.640  20.218   5.590  0.1488 -0.3429  0.1293
12364OCT     C224728  16.838  20.613   5.784  0.2674  0.0553 -0.1149
12365OCT     C124729  10.711  11.213  14.445 -0.2753 -0.2081  0.0508
12365OCT     C224730  11.042  11.107  14.792  0.1808 -0.0676 -0.0433
12366OCT     C124731  18.216  13.039  16.092  0.1782 -0.0911 -0.1822
12366OCT     C224732  17.823  13.054  15.868 -0.0857  0.1360 -0.0135
12367OCT     C124733  17.641   5.270  14.241  0.2911 -0.0423 -0.0116
12367OCT     C224734  17.856   4.972  14.533  0.3247 -0.1134  0.0384
12368OCT     C124735   3.438   8.540  10.690 -0.0247  0.1421  0.0184
12368OCT     C224736   3.660   8.209  10.517  0.2913 -0.1515  0.0084
12369OCT     C124737   9.947   1.588   4.478  0.0199 -0.4928 -0.2442
12369OCT     C224738  10.087   1.849   4.867  0.1481 -0.3324 -0.0798
12370OCT     C124739  16.141  11.489   9.247 -0.0466  0.0062  0.2542
12370OCT     C224740  15.761  11.364   9.060  0.0472 -0.0049 -0.0519
12371OCT     C124741  21.995   6.202  14.303 -0.1735 -0.0357 -0.1958
12371OCT     C224742  22.311   5.874  14.376 -0.0664 -0.3188 -0.1322
12372OCT     C124743  10.396   5.502   6.776  0.2927  0.0151  0.0245
12372OCT     C224744  10.719   5.528   6.411 -0.2891  0.1485 -0.0598
12373OCT     C124745   2.456  16.485   6.887 -0.0678 -0.5317  0.0619
12373OCT     C224746   2.845  16.717   7.025 -0.0066  0.0381 -0.0792
12374OCT     C124747  13.117  20.040  17.860 -0.0901  0.0372 -0.4362
12374OCT     C224748  12.673  20.129  17.886 -0.0552 -0.3295 -0.0828
12375OCT     C124749   1.616  19.087  18.241 -0.1183 -0.0193  0.1286
12375OCT     C224750   1.840  18.935  18.604  0.1233 -0.1760  0.1646
12376OCT     C124751  23.659  12.586   1.381 -0.0357  0.0170  0.1289
12376OCT     C224752   0.126  12.810   1.054 -0.3207 -0.1607 -0.2623
12377OCT     C124753  23.102  12.129  19.407  0.0806 -0.0122  0.0026
12377OCT     C224754  23.381  12.233  19.813  0.2097  0.0631 -0.3718
12378OCT     C124755  10.741  10.940  20.092  0.1802 -0.3931  0.2908
12378OCT     C224756  10.594  11.227  19.710 -0.1467  0.0197  0.3795
12379OCT     C124757   8.150  23.304  15.361 -0.1813  0.2275  0.1909
12379OCT     C224758   8.182  23.722  15.594 -0.0483  0.2190  0.3478
12380OCT     C124759  19.485  14.730  18.796 -0.0537  0.3071  0.1972
12380OCT     C224760  19.774  14.803  18.472 -0.1728  0.1033  0.1324
12381OCT     C124761  20.024   4.099   6.327  0.1871 -0.1811 -0.2078
12381OCT     C224762  20.269   3.746   6.105 -0.2413  0.1893 -0.0304
12382OCT     C124763  14.725   0.011  15.234  0.0705  0.5130 -0.0575
12382OCT     C224764  15.026   0.137  14.896  0.3431  0.2102  0.1997
12383OCT     C124765   1.292  12.503  20.456  0.0411  0.4203 -0.0489
12383OCT     C224766   1.669  12.718  20.696  0.0240 -0.0374  0.1164
12384OCT     C124767  21.639   5.056   9.807 -0.1699 -0.0075  0.0579
12384OCT     C224768  21.515   5.470  10.015 -0.3698  0.0990  0.1270
12385OCT     C124769   6.583   8.430  16.598 -0.0507  0.2625 -0.0533
12385OCT     C224770   6.287   8.289  16.258 -0.1840  0.1046 -0.1611
12386OCT     C124771  22.355  18.991  21.782 -0.3547 -0.1592  0.1614
12386OCT     C224772  21.911  19.062  21.919 -0.2179  0.2109  0.1712
12387OCT     C124773  18.332  15.178   0.707 -0.1065  0.3266 -0.4169
12387OCT     C224774  18.120  14.737   0.675  0.0042 -0.3057  0.2593
12388OCT     C124775  23.155  19.229   9.087 -0.1171 -0.0692 -0.1041
12388OCT     C224776  23.531  19.075   9.330  0.0994 -0.1315 -0.1265
12389OCT     C124777   9.284   8.948   9.674 -0.2645  0.4179  0.0148
12389OCT     C224778   9.380   9.315   9.407  0.0793 -0.2346 -0.2151
12390OCT     C124779  10.588  19.311   8.786  0.2374  0.3360 -0.0379
12390OCT     C224780  10.932  18.937   8.756 -0.1472 -0.0640  0.1815
12391OCT     C124781  10.283  11.508   6.153 -0.0121  0.0583 -0.0006
12391OCT     C224782  10.094  11.694   5.782 -0.0846 -0.0485  0.2714
12392OCT     C124783  11.862   9.023  17.620  0.0108 -0.1236  0.2891
12392OCT     C224784  11.804   8.763  17.313  0.2730 -0.0149  0.1849
12393OCT     C124785  23.102  18.919  10.479  0.1776  0.0752  0.4418
12393OCT     C224786  23.008  18.427  10.440  0.1229  0.1865  0.2888
12394OCT     C124787   7.353   8.816   8.434 -0.0129  0.1119 -0.0293
12394OCT     C224788   7.033   8.958   8.125  0.3309 -0.1835 -0.1981
12395OCT     C124789  16.120   2.390  21.886  0.3435 -0.5182  0.1745
12395OCT     C224790  16.112   2.732  21.540 -0.2209 -0.3526  0.5179
12396OCT     C124791  14.504  10.979  15.529  0.0123 -0.1250  0.1175
12396OCT     C224792  14.725  11.365  15.389  0.0523 -0.0526 -0.2007
12397OCT     C124793  17.980   5.711   2.734 -0.0187 -0.2731  0.2630
12397OCT     C224794  18.444   5.497   2.730 -0.1224 -0.1006 -0.1551
12398OCT     C124795  12.283   2.233  17.300 -0.2120 -0.4596 -0.2281
12398OCT     C224796  12.134   2.695  17.333  0.1814 -0.1115 -0.2288
12399OCT     C124797   4.919  15.721  17.829  0.1246  0.0382  0.1019
12399OCT     C224798   5.138  15.588  17.437  0.1599  0.0438  0.0619
12400OCT     C124799   7.510  22.740  11.277 -0.0260  0.2963  0.0182
12400OCT     C224800   7.363  23.174  11.258  0.1795  0.5133  0.1932
12401OCT     C124801  20.055  22.200   1.082  0.0048  0.1852 -0.1667
12401OCT     C224802  20.047  22.429   0.709 -0.0386  0.2103 -0.1719
12402OCT     C124803  18.460   6.512   5.789  0.1318  0.0604 -0.1067
12402OCT     C224804  18.575   6.493   5.334 -0.3083 -0.0002 -0.2398
12403OCT     C124805   0.636  15.004  17.205  0.0305  0.1315 -0.0369
12403OCT     C224806   0.414  14.681  16.951 -0.0979 -0.3731 -0.0590
12404OCT     C124807  15.930  20.060   5.181  0.0326  0.3574  0.1985
12404OCT     C224808  16.130  20.098   4.716 -0.0490 -0.1440 -0.0515
12405OCT     C124809  16.927   6.733  21.349  0.0880 -0.0499  0.0479
12405OCT     C224810  16.561   6.581  21.614  0.1270  0.0119 -0.0482
12406OCT     C124811   0.008  11.472   9.690 -0.2398  0.1385 -0.0036
12406OCT     C224812  23.426  11.496  10.044 -0.0291 -0.3494 -0.1473
12407OCT     C124813   1.638  16.991   0.600  0.3470  0.1213  0.2193
12407OCT     C224814   1.632  16.841   0.193 -0.1906 -0.1337 -0.1583
12408OCT     C124815   3.470   4.229  12.571 -0.0516  0.1204  0.2413
12408OCT     C224816   3.324   4.454  12.868 -0.1030  0.2938  0.3645
12409OCT     C124817   4.870   7.080   9.862 -0.1030  0.1505 -0.0071
12409OCT     C224818   4.782   7.471  10.111  0.0230  0.1011 -0.1266
12410OCT     C124819   5.562  22.235   8.962  0.0226  0.2378  0.2924
12410OCT     C224820   5.314  22.082   9.245 -0.0928 -0.1672 -0.4008
12411OCT     C124821  12.487  22.553  17.431  0.2067 -0.5943  0.2357
12411OCT     C224822  12.764  22.932  17.453  0.0859  0.0782  0.0642
12412OCT     C124823  23.351  11.682  10.581 -0.0731  0.0362 -0.0928
12412OCT     C224824  23.736  11.636  10.851  0.1433  0.2390 -0.3456
12413OCT     C124825   9.645   4.896   7.304 -0.2291  0.0384 -0.1476
12413OCT     C224826   9.852   4.762   6.901 -0.0417  0.0563 -0.0524
12414OCT     C124827   8.678  11.252   2.113  0.1572  0.0590  0.0267
12414OCT     C224828   8.889  11.274   1.728  0.2711  0.0597  0.0319
12415OCT     C124829   3.307  11.245  14.792  0.2090 -0.0865  0.1068
12415OCT     C224830   3.109  11.364  14.347 -0.4439 -0.2893 -0.0531
12416OCT     C124831   3.745  23.550   7.899 -0.0144  0.0678  0.0740
12416OCT     C224832   3.490  23.215   8.057 -0.1606  0.1639  0.0500
12417OCT     C124833   8.442  15.763   9.542  0.1836 -0.0258 -0.1784
12417OCT     C224834   8.227  15.436   9.771 -0.0703 -0.2154  0.0574
12418OCT     C124835   1.222   4.736   7.566 -0.1353 -0.2228 -0.0762
12418OCT     C224836   0.749   4.862   7.688  0.0187 -0.4742 -0.0725
12419OCT     C124837  19.746  10.069   4.334 -0.1198  0.3668  0.0301
12419OCT     C224838  20.144  10.308   4.356 -0.1992  0.1428 -0.2828
12420OCT     C124839  15.562  21.470  19.719  0.0330  0.1037 -0.1179
12420OCT     C224840  15.544  21.522  19.319 -0.0823  0.0169  0.0790
12421OCT     C124841   3.838  22.676   2.403  0.1290  0.4582 -0.0563
12421OCT     C224842   3.629  22.294   2.560 -0.3536  0.1383  0.0374
12422OCT     C124843  16.334  11.325   5.204  0.3484  0.0795  0.0957
12422OCT     C224844  16.243  11.738   5.357  0.0691 -0.0077  0.0923
12423OCT     C124845   0.429   1.951   2.476 -0.0283 -0.3735 -0.0770
12423OCT     C224846   0.736   2.246   2.196  0.2790 -0.3303 -0.2559
12424OCT     C124847   8.969  11.442  20.263  0.2924  0.1485  0.1267
12424OCT     C224848   8.817  11.872  20.120 -0.0931  0.2191  0.1279
12425OCT     C124849  12.345   5.879  14.114  0.2427 -0.0741  0.2610
12425OCT     C224850  12.394   5.885  14.615 -0.0944  0.0538 -0.0357
12426OCT     C124851  21.437  11.544   2.858 -0.2819  0.2793  0.1117
12426OCT     C224852  21.881  11.510   3.035  0.3091 -0.0499 -0.1879
12427OCT     C124853   8.278  13.902  19.057  0.0783 -0.0738  0.2083
12427OCT     C224854   8.608  13.646  18.972 -0.2598 -0.0904  0.0743
12428OCT     C124855  10.008  18.834   4.725  0.2473 -0.0432 -0.1339
12428OCT     C224856  10.139  18.590   4.377 -0.0254 -0.0957  0.0988
12429OCT     C124857   8.965  10.895  18.582 -0.2520 -0.5969  0.1749
12429OCT     C224858   9.402  10.811  18.464  0.1514 -0.1362 -0.2242
12430OCT     C124859  14.170  19.332   3.154 -0.2039 -0.0857 -0.3486
12430OCT     C224860  13.799  19.619   3.264 -0.3873 -0.0400  0.0787
12431OCT     C124861   3.628   7.573  12.332 -0.0986  0.0348 -0.2955
12431OCT     C224862   3.797   7.926  12.543  0.2482 -0.6615  0.1298
12432OCT     C124863   8.152   5.666   1.952 -0.1256  0.2748  0.0532
12432OCT     C224864   8.079   5.270   1.714 -0.1633  0.1086  0.2267
12433OCT     C124865  21.414   8.688  21.549 -0.3667 -0.2344 -0.2417
12433OCT     C224866  21.605   8.970  21.842  0.0616 -0.0160 -0.2683
12434OCT     C124867  11.274  22.122  16.822 -0.0058  0.0202  0.3027
12434OCT     C224868  11.444  21.768  17.076 -0.2911  0.1672  0.2661
12435OCT     C124869  14.163   4.776  11.397 -0.3153  0.3173 -0.0001
12435OCT     C224870  14.311   4.349  11.567 -0.0588 -0.0916 -0.0681
12436OCT     C124871  22.380   5.496   6.987 -0.1991  0.0566  0.2504
12436OCT     C224872  22.712   5.779   7.086 -0.2244 -0.0219  0.0096
12437OCT     C124873   2.353  13.306   1.342  0.0865 -0.2542  0.1934
12437OCT     C224874   2.767  13.225   1.525  0.2567 -0.0453 -0.5619
12438OCT     C124875  18.056  21.716   4.594  0.0458 -0.1988  0.1260
12438OCT     C224876  18.325  21.453   4.809  0.0563  0.3502  0.0547
12439OCT     C124877  17.620  19.622  17.096  0.2582  0.0484 -0.1124
12439OCT     C224878  17.850  19.680  17.555  0.2733  0.1496 -0.1698
12440OCT     C124879  12.078  23.363   0.209  0.1107  0.2446  0.0958
12440OCT     C224880  11.995  23.555   0.558 -0.3207 -0.0431 -0.0480
12441OCT     C124881  14.824   2.865  14.850 -0.1343  0.3059  0.1292
12441OCT     C224882  14.494   3.239  14.817 -0.0963  0.3538 -0.0785
12442OCT     C124883  15.219   9.996  12.801  0.2148 -0.3338 -0.1206
12442OCT     C224884  15.284   9.784  13.167 -0.0785  0.2393  0.2226
12443OCT     C124885   9.847  15.466  18.791 -0.3666  0.2148  0.0831
12443OCT     C224886   9.951  15.781  19.097  0.1711 -0.1439  0.0798
12444OCT     C124887  14.424  19.411  17.356 -0.0224 -0.2237  0.1178
12444OCT     C224888  14.135  19.643  17.096 -0.1301 -0.0110  0.4103
12445OCT     C124889  21.675  22.852   7.905  0.0661 -0.2890  0.2844
12445OCT     C224890  21.847  22.846   7.482  0.3065 -0.0035  0.2006
12446OCT     C124891   3.768   6.860   2.633 -0.1063  0.0401 -0.0200
12446OCT     C224892   3.967   6.957   2.213  0.1748 -0.1197 -0.0518
12447OCT     C124893  19.418   5.642  13.544 -0.1294  0.1861 -0.1083
12447OCT     C224894  19.569   5.908  13.903 -0.0698  0.0588  0.2467
12448OCT     C124895  18.851   7.868   4.197 -0.0922 -0.0038 -0.0047
12448OCT     C224896  18.888   8.242   3.874 -0.5905  0.1514 -0.1213
12449OCT     C124897   5.863   8.149  21.271 -0.0829 -0.1402 -0.1430
12449OCT     C224898   5.782   8.255  21.695 -0.1846  0.0034  0.3172
12450OCT     C124899  14.998   8.166   4.124  0.2154 -0.1026 -0.0591
12450OCT     C224900  15.053   8.516   4.415 -0.1416  0.0466 -0.1348
12451OCT     C124901  10.539   4.643  15.210  0.5962  0.0885  0.0868
12451OCT     C224902  10.320   4.411  15.520  0.0484 -0.1328 -0.2640
12452OCT     C124903   0.747  18.941  14.333 -0.1789 -0.2598  0.3656
12452OCT     C224904   0.707  19.184  13.904 -0.1814 -0.0501 -0.0058
12453OCT     C124905  23.138  16.606  16.134  0.2971  0.1252  0.3875
12453OCT     C224906  22.847  16.288  15.942  0.2518 -0.1051 -0.2798
12454OCT     C124907  16.093  20.014  12.976 -0.4938 -0.3021  0.0342
12454OCT     C224908  16.390  20.081  12.562  0.1108  0.0337 -0.0187
12455OCT     C124909   4.718   0.186  22.889  0.0215  0.1832  0.0228
12455OCT     C224910   4.464   0.321  22.526 -0.2805  0.0669 -0.0124
12456OCT     C124911  20.915  15.747  11.762  0.1950 -0.2405 -0.0033
12456OCT     C224912  20.625  15.389  11.707 -0.2758 -0.2472 -0.2421
12457OCT     C124913   0.695  12.774  12.155  0.0753  0.0810 -0.2015
12457OCT     C224914   1.174  12.846  12.185 -0.3176  0.1409 -0.2070
12458OCT     C124915  19.635  22.295   7.279 -0.1558 -0.1985 -0.0329
12458OCT     C224916  19.900  22.537   6.932  0.2548 -0.0241  0.3547
12459OCT     C124917  21.394  16.345   9.911  0.2794 -0.2341 -0.1356
12459OCT     C224918  21.012  16.112   9.992  0.0319  0.0878  0.0283
12460OCT     C124919  23.626  11.424   8.840 -0.1442 -0.0863 -0.1892
12460OCT     C224920  23.217  11.475   8.620 -0.0452 -0.0811 -0.0781
12461OCT     C124921  15.878   9.017  13.454 -0.0120 -0.1231 -0.0547
12461OCT     C224922  15.880   9.515  13.293 -0.3614 -0.2778  0.1844
12462OCT     C124923   2.008   0.637   2.779 -0.2092 -0.0152  0.2226
12462OCT     C224924   1.966   0.760   3.189 -0.1503  0.0573 -0.0125
12463OCT     C124925  18.110  17.585   7.292 -0.4073 -0.1652 -0.0891
12463OCT     C224926  18.048  17.865   7.647 -0.1907  0.1070  0.2957
12464OCT     C124927  15.293  17.200   0.102 -0.1365  0.2737  0.1839
12464OCT     C224928  14.858  17.224   0.124  0.3510 -0.2448 -0.2590
12465OCT     C124929   0.832   3.972   8.984 -0.0174  0.1459 -0.5128
12465OCT     C224930   0.650   4.394   9.072 -0.1127  0.2009  0.5017
12466OCT     C124931   1.941   8.477   8.984  0.2969 -0.0004 -0.2755
12466OCT     C224932   1.936   8.933   9.147  0.0617 -0.1870  0.0101
12467OCT     C124933   1.524   5.091  19.281 -0.2103 -0.5979 -0.1532
12467OCT     C224934   1.132   4.897  19.509 -0.1015 -0.0042 -0.0802
12468OCT     C124935  23.142  12.596  14.327  0.2131  0.3013  0.0909
12468OCT     C224936  22.668  12.800  14.282  0.0225 -0.0849  0.2312
12469OCT     C124937  12.525  17.942  12.000  0.2707 -0.1548  0.1317
12469OCT     C224938  12.861  18.268  12.082 -0.0831 -0.0601  0.1550
12470OCT     C124939   8.742   4.382  12.573 -0.2445 -0.5007 -0.1393
12470OCT     C224940   8.347   4.526  12.347 -0.3098  0.1346  0.3089
12471OCT     C124941   5.167  12.254   6.629 -0.0601  0.0177 -0.1018
12471OCT     C224942   4.845  12.541   6.461  0.1413 -0.0089 -0.3964
12472OCT     C124943   3.786  17.971  12.473 -0.2188 -0.2737 -0.0244
12472OCT     C224944   4.120  18.110  12.144 -0.4057  0.2661 -0.2079
12473OCT     C124945   7.116  11.636  19.609  0.1595 -0.0822  0.0250
12473OCT     C224946   6.968  11.243  19.433 -0.0594  0.1918 -0.1288
12474OCT     C124947  19.086   7.043  12.754 -0.0565 -0.1106 -0.5117
12474OCT     C224948  18.949   7.287  13.074  0.3904  0.1761 -0.3228
12475OCT     C124949  21.688   8.953   3.797 -0.3020  0.1516 -0.3686
12475OCT     C224950  21.455   9.026   3.404 -0.0273 -0.2961  0.0402
12476OCT     C124951   2.712  23.168  12.621 -0.0254 -0.0494 -0.1048
12476OCT     C224952   2.761  23.289  12.151  0.5189  0.1283  0.0947
12477OCT     C124953  21.654  18.980  16.611 -0.2097  0.1705 -0.0134
12477OCT     C224954  21.632  19.427  16.478  0.1862  0.0135  0.0771
12478OCT     C124955  18.024   0.925   4.220  0.2375  0.0806 -0.0071
12478OCT     C224956  18.197   0.614   4.505 -0.0150  0.2503 -0.2120
12479OCT     C124957   7.969  19.870  16.130  0.1135  0.2118  0.3904
12479OCT     C224958   7.627  19.884  15.837 -0.1251 -0.1257  0.2148
12480OCT     C124959   4.856   5.563  20.594  0.2009  0.1239 -0.0497
12480OCT     C224960   5.182   5.255  20.760 -0.1212  0.1270 -0.0751
12481OCT     C124961   2.931   9.108   4.343  0.1037 -0.2438 -0.3030
12481OCT     C224962   2.924   9.022   4.807  0.3437 -0.1030 -0.0515
12482OCT     C124963  11.925   0.411  17.382 -0.0325 -0.1562  0.0920
12482OCT     C224964  11.751   0.727  17.135  0.0224 -0.1140 -0.2738
12483OCT     C124965  19.331  22.130  11.661  0.2368  0.2140  0.3068
12483OCT     C224966  18.899  22.095  11.500  0.1536 -0.0140  0.3514
12484OCT     C124967   3.826   0.314   8.484 -0.2233 -0.0310  0.0867
12484OCT     C224968   3.519   0.708   8.478 -0.0618 -0.0703  0.0588
12485OCT     C124969   7.810  21.702  11.058 -0.2090 -0.1058  0.0494
12485OCT     C224970   8.076  21.341  11.109 -0.0076 -0.0195  0.0364
12486OCT     C124971   6.092  17.249  19.882 -0.1499  0.1654 -0.1344
12486OCT     C224972   5.698  17.122  20.150  0.0010  0.0062  0.1602
12487OCT     C124973  12.626  19.459  16.915 -0.0856 -0.3637  0.1111
12487OCT     C224974  12.617  19.203  16.491 -0.2078  0.2353 -0.2355
12488OCT     C124975  20.103   7.156   4.367  0.0572 -0.2568 -0.2708
12488OCT     C224976  19.930   7.380   4.793  0.4588  0.2105 -0.1133
12489OCT     C124977   7.758  16.424  18.545  0.1056 -0.1685 -0.2984
12489OCT     C224978   7.938  16.825  18.740 -0.0984 -0.1871  0.1468
12490OCT     C124979   6.837   3.025   1.772  0.2727 -0.1580  0.2610
12490OCT     C224980   7.161   2.900   2.104  0.2027  0.0961 -0.3816
12491OCT     C124981   3.248   7.517  16.475 -0.1273  0.0848  0.1786
12491OCT     C224982   3.320   7.952  16.324  0.4339  0.1692  0.0316
12492OCT     C124983  19.893   7.871   8.832 -0.2237  0.1020 -0.3073
12492OCT     C224984  19.487   7.673   9.119  0.0997  0.4350  0.2936
12493OCT     C124985   1.106   6.274  23.152  0.5591  0.1503  0.1173
12493OCT     C224986   0.778   6.487  22.884 -0.0275 -0.4769 -0.0895
12494OCT     C124987   5.754   9.184  23.045  0.3496 -0.3578 -0.4227
12494OCT     C224988   5.825   9.234  22.547 -0.1062  0.0650 -0.1898
12495OCT     C124989  19.188   7.140  21.218  0.1842  0.0150 -0.3145
12495OCT     C224990  19.120   6.707  21.104  0.0578  0.1144  0.0914
12496OCT     C124991  23.613  13.362  22.692  0.1563  0.0132  0.3211
12496OCT     C224992   0.267  13.507  22.880 -0.4308  0.0191 -0.0792
12497OCT     C124993  11.851   3.491  20.934 -0.0048  0.2397  0.2782
12497OCT     C224994  11.861   3.601  21.381  0.1745  0.0272 -0.1424
12498OCT     C124995   7.315  18.266   5.075 -0.0196  0.2301  0.3532
12498OCT     C224996   7.538  18.466   5.405  0.4759  0.0692  0.3853
12499OCT     C124997   2.866  15.387   0.743 -0.0820  0.0179 -0.1374
12499OCT     C224998   3.326  15.605   0.699 -0.3750  0.0484 -0.3300
12500OCT     C124999   2.639  20.316  19.732 -0.1696 -0.1270 -0.0542
12500OCT     C225000   2.920  19.903  19.755 -0.1315  0.0458  0.0791
12501OCT     C125001   9.849  20.159  15.549  0.3017  0.1643 -0.0956
12501OCT     C225002   9.439  20.029  15.275 -0.4294 -0.0536 -0.0355
12502OCT     C125003  10.934  14.185   1.356  0.3196 -0.2840 -0.1796
12502OCT     C225004  10.537  13.910   1.444  0.2065 -0.0471  0.5450
12503OCT     C125005  11.392  17.027   3.058  0.1336 -0.7122  0.2908
12503OCT     C225006  11.693  17.061   2.722 -0.1033 -0.0956  0.2991
12504OCT     C125007   6.427  20.293  17.560  0.1926  0.1015 -0.0621
12504OCT     C225008   6.458  19.818  17.444  0.0443  0.2236 -0.3006
12505OCT     C125009  16.886   4.128  18.526 -0.1569 -0.0701 -0.0592
12505OCT     C225010  16.658   3.780  18.750  0.2488 -0.0509  0.1751
12506OCT     C125011   7.391  16.044  21.176 -0.3316 -0.1629 -0.2164
12506OCT     C225012   6.874  16.003  21.085  0.0061 -0.0167  0.0960
12507OCT     C125013   3.015  13.515  22.824 -0.3837  0.1652  0.2782
12507OCT     C225014   3.410  13.716  22.784  0.2359  0.2451 -0.1960
12508OCT     C125015   2.329   7.615  15.124 -0.0504  0.1774 -0.0578
12508OCT     C225016   2.754   7.637  15.005  0.0768  0.1637 -0.0622
12509OCT     C125017  19.674   6.059   0.450  0.0332  0.0688  0.0397
12509OCT     C225018  19.514   6.529   0.386 -0.1522  0.0106 -0.0348
12510OCT     C125019   6.591   9.445   8.818 -0.0204  0.0656 -0.2915
12510OCT     C225020   6.912   9.272   9.060  0.0212  0.3824 -0.1472
12511OCT     C125021   9.039  19.262   4.451  0.3516  0.3237 -0.1682
12511OCT     C225022   9.203  19.115   4.859  0.1365 -0.0755  0.2865
12512OCT     C125023  17.466  21.682   7.128  0.1048  0.1767 -0.2060
12512OCT     C225024  17.173  22.009   6.886  0.6573  0.1362  0.1252
12513OCT     C125025  14.412   5.715   8.957 -0.0223  0.0414  0.2243
12513OCT     C225026  14.362   5.855   8.519 -0.0736  0.0455 -0.0076
12514OCT     C125027   0.628  15.198   6.259  0.0004 -0.3069  0.0177
12514OCT     C225028   1.064  15.455   6.243 -0.1209 -0.1732 -0.0291
12515OCT     C125029  23.153  17.412   5.553  0.3143  0.0118  0.0423
12515OCT     C225030  23.031  17.595   5.926  0.1585 -0.1510 -0.1168
12516OCT     C125031  10.460  18.783   6.103  0.3938  0.0714  0.1507
12516OCT     C225032  10.667  18.346   6.072  0.1076  0.3919 -0.0942
12517OCT     C125033  21.975   9.614   2.402 -0.1645  0.2188 -0.1597
12517OCT     C225034  22.225   9.543   2.797 -0.3695  0.0346  0.1781
12518OCT     C125035   2.943  10.655  12.623 -0.2157 -0.1033  0.2478
12518OCT     C225036   3.293  10.610  12.280 -0.2142  0.3833  0.0982
12519OCT     C125037   3.130  13.393  15.655  0.1950 -0.0469  0.2035
12519OCT     C225038   2.952  13.229  16.067 -0.1878  0.0536 -0.3813
12520OCT     C125039   2.566  11.405  19.628  0.1386 -0.3293  0.1064
12520OCT     C225040   2.495  11.579  20.016 -0.1771  0.0494 -0.1831
12521OCT     C125041   3.454  14.756   1.738  0.1211  0.0861 -0.0713
12521OCT     C225042   3.851  14.996   1.953 -0.4229 -0.0463 -0.1907
12522OCT     C125043   1.675  18.073  16.770 -0.3297  0.2516 -0.4019
12522OCT     C225044   1.753  18.355  17.117  0.1591  0.0607 -0.1073
12523OCT     C125045   4.462   6.781   7.606  0.2370  0.1085 -0.1181
12523OCT     C225046   4.275   6.790   7.207  0.0672 -0.1002  0.0020
12524OCT     C125047   3.190  11.245   4.063  0.2514 -0.2492 -0.1700
12524OCT     C225048   3.614  11.465   3.986 -0.3695 -0.0744  0.0632
12525OCT     C125049   9.518  12.091  13.682 -0.5870  0.3020 -0.4611
12525OCT     C225050   9.611  11.916  14.087 -0.0730 -0.2669 -0.0085
12526OCT     C125051  19.991  16.987  22.506 -0.2951 -0.3254  0.0262
12526OCT     C225052  19.709  17.257  22.671 -0.2236 -0.0084 -0.3505
12527OCT     C125053  18.862  11.309   9.811 -0.0411  0.4051  0.0897
12527OCT     C225054  18.457  11.359   9.656 -0.1060 -0.0900  0.1001
12528OCT     C125055  14.304  12.074   2.723 -0.1619  0.2308  0.1952
12528OCT     C225056  14.777  11.978   2.672 -0.3474 -0.1254  0.2604
12529OCT     C125057  19.971  18.940   0.394  0.1174  0.0923 -0.4033
12529OCT     C225058  20.126  18.697   0.010  0.3092  0.0649  0.2391
12530OCT     C125059   0.600  15.308   9.173  0.1463  0.0302 -0.2300
12530OCT     C225060   0.287  15.062   8.842 -0.1566  0.1181  0.1340
12531OCT     C125061   2.943   3.452   6.029  0.0963 -0.2184 -0.1249
12531OCT     C225062   2.738   3.680   6.415 -0.0570 -0.0270 -0.0693
12532OCT     C125063   2.384  15.423  18.039  0.3430  0.0877  0.0814
12532OCT     C225064   2.443  15.693  18.377  0.0497 -0.0591 -0.0516
12533OCT     C125065   4.599   6.713   9.533 -0.1434 -0.0730  0.1979
12533OCT     C225066   4.594   6.305   9.381 -0.0756 -0.0090  0.0019
12534OCT     C125067  17.117  19.976   8.837  0.0929 -0.0748  0.0364
12534OCT     C225068  17.527  20.004   8.550  0.1023 -0.3930 -0.0598
12535OCT     C125069   4.154  18.973  20.348  0.0458 -0.3636  0.2353
12535OCT     C225070   4.335  18.970  19.871  0.2312 -0.2389  0.2711
12536OCT     C125071  19.018  17.548  15.801  0.0877 -0.0909 -0.0212
12536OCT     C225072  19.246  17.720  15.437 -0.3039 -0.0672  0.2528
12537OCT     C125073  15.603   8.248   6.445  0.0070  0.4436 -0.1112
12537OCT     C225074  15.245   8.549   6.479  0.1403  0.2279 -0.0505
12538OCT     C125075   2.165  11.685   0.599  0.1691 -0.0608  0.2132
12538OCT     C225076   1.893  11.372   0.901 -0.0327  0.1637 -0.0565
12539OCT     C125077  21.118   4.255   5.878  0.1452 -0.2352 -0.0089
12539OCT     C225078  20.991   4.111   6.307 -0.0204 -0.0215  0.2383
12540OCT     C125079   4.827  22.284   9.574 -0.0032  0.0300 -0.0825
12540OCT     C225080   4.432  22.568   9.602  0.0686 -0.0660 -0.0609
12541OCT     C125081  12.571  21.342  11.926 -0.3977  0.4288  0.0092
12541OCT     C225082  12.348  21.671  11.777  0.1900  0.0124  0.0322
12542OCT     C125083  11.572  13.771   7.142  0.2197  0.1207  0.0371
12542OCT     C225084  11.397  14.195   7.354 -0.3025 -0.1939 -0.1111
12543OCT     C125085  21.874   6.967  11.886  0.0860 -0.2198 -0.0547
12543OCT     C225086  21.883   7.206  12.230 -0.4914 -0.3552  0.0114
12544OCT     C125087   9.443  20.324   3.222 -0.0577  0.0460  0.1719
12544OCT     C225088   9.262  20.235   2.786 -0.0089 -0.0741  0.2520
12545OCT     C125089   1.517  23.170   0.007  0.0828 -0.1464 -0.1430
12545OCT     C225090   1.289  23.134   0.366 -0.0295  0.3658  0.0093
12546OCT     C125091   8.776   7.036  14.601  0.2288  0.0049  0.0310
12546OCT     C225092   8.345   7.281  14.640  0.2291 -0.0436  0.0588
12547OCT     C125093  20.492   5.262   2.415  0.2106  0.2502 -0.0934
12547OCT     C225094  20.489   4.799   2.307  0.1447 -0.2264 -0.0703
12548OCT     C125095  12.801  21.868  11.865  0.0801  0.1082 -0.4440
12548OCT     C225096  12.542  21.757  12.197 -0.0470 -0.0143  0.0221
12549OCT     C125097  21.484  21.919   2.445 -0.0108 -0.0094 -0.0834
12549OCT     C225098  21.825  21.623   2.312 -0.1482  0.1927 -0.2914
12550OCT     C125099   6.947  18.328   5.481  0.3396 -0.1660  0.3051
12550OCT     C225100   6.746  18.787   5.500 -0.0202  0.3165 -0.0107
12551OCT     C125101  10.653   1.322  14.100  0.4390 -0.0386 -0.2169
12551OCT     C225102  10.902   1.280  14.423 -0.1890 -0.2354 -0.0681
12552OCT     C125103  15.528  20.784   1.783  0.3863 -0.2038  0.0480
12552OCT     C225104  16.012  20.773   1.809  0.0536 -0.0094  0.2262
12553OCT     C125105  16.504  19.527  18.103  0.0122  0.1894  0.0211
12553OCT     C225106  16.555  19.414  17.632  0.0704 -0.0176  0.2138
12554OCT     C125107   2.472   3.804   6.865  0.3199 -0.0510 -0.2116
12554OCT     C225108   2.265   4.243   6.744 -0.0084  0.1527 -0.2876
12555OCT     C125109   4.019  11.454   9.781  0.3448 -0.2779 -0.0378
12555OCT     C225110   4.248  11.226  10.160 -0.1159  0.0020 -0.1930
12556OCT     C125111  21.424   4.949   7.213  0.0732 -0.1111  0.1304
12556OCT     C225112  21.058   5.202   7.286  0.1725 -0.0713 -0.0085
12557OCT     C125113  18.846  13.153  14.536 -0.1226  0.0578 -0.2362
12557OCT     C225114  19.123  12.789  14.393 -0.0155  0.0396  0.1199
12558OCT     C125115   3.118  12.756   1.951  0.3068 -0.0187  0.3697
12558OCT     C225116   3.172  13.263   1.862 -0.1478 -0.4131  0.0345
12559OCT     C125117  14.955  11.791  21.098 -0.0752  0.0017 -0.0403
12559OCT     C225118  15.051  12.229  21.281  0.2614 -0.3506 -0.2583
12560OCT     C125119   4.902   8.944  10.912 -0.2762 -0.0444  0.3127
12560OCT     C225120   5.362   8.819  10.999  0.1064 -0.1001 -0.1457
12561OCT     C125121  22.488  17.070  13.985 -0.0477 -0.0790  0.0778
12561OCT     C225122  22.539  17.190  14.431 -0.1995 -0.1353  0.0975
12562OCT     C125123   7.300   6.863  19.468 -0.1721 -0.1345 -0.0159
12562OCT     C225124   6.911   6.939  19.249 -0.1711 -0.0275  0.0169
12563OCT     C125125   2.085   6.787  16.989 -0.0384 -0.1607  0.0529
12563OCT     C225126   2.536   6.916  16.973  0.0425  0.0653  0.1735
12564OCT     C125127  17.518  21.741   4.261 -0.4062  0.0036 -0.2802
12564OCT     C225128  17.498  21.650   4.715 -0.4464  0.2133  0.1660
12565OCT     C125129  15.103  13.570  17.778  0.1068 -0.3186 -0.3937
12565OCT     C225130  15.531  13.429  17.731  0.3049  0.0363 -0.2490
12566OCT     C125131  10.467  23.635   3.381  0.1896  0.4479 -0.0061
12566OCT     C225132  10.274  23.520   3.855 -0.1708  0.2196 -0.1293
12567OCT     C125133  19.999  18.220   2.802  0.1138 -0.2616 -0.2141
12567OCT     C225134  20.201  18.163   3.218  0.0139  0.1885 -0.0881
12568OCT     C125135   5.217   1.889   8.704 -0.2822 -0.0112 -0.1035
12568OCT     C225136   5.046   1.939   8.286  0.1745 -0.0665  0.3106
12569OCT     C125137   7.306   4.881   2.635 -0.1821  0.0448 -0.2412
12569OCT     C225138   7.732   4.969   2.522  0.0982  0.1745 -0.0967
12570OCT     C125139  16.511   6.154   8.496  0.2184 -0.2268 -0.1148
12570OCT     C225140  16.847   6.011   8.741  0.1329  0.0281  0.1035
12571OCT     C125141  12.937  17.216  11.949  0.0938  0.1164 -0.2125
12571OCT     C225142  12.502  17.171  11.750 -0.2859  0.2053 -0.1080
12572OCT     C125143  18.898   5.701  10.988 -0.2963 -0.0177  0.4287
12572OCT     C225144  18.693   6.048  11.226 -0.1272  0.0330  0.0783
12573OCT     C125145   2.993  15.563  21.805  0.1120  0.0743 -0.1888
12573OCT     C225146   2.949  15.647  21.384  0.0111 -0.6243 -0.0281
12574OCT     C125147  20.179   4.496  10.972 -0.0276  0.0285 -0.0516
12574OCT     C225148  20.166   4.085  10.654 -0.1245  0.0747  0.0283
12575OCT     C125149  22.467  17.584  19.774 -0.0058 -0.0204 -0.3561
12575OCT     C225150  22.705  17.770  19.410 -0.3495  0.2532  0.0420
12576OCT     C125151  19.912  20.541  13.456 -0.1963 -0.3055 -0.1280
12576OCT     C225152  19.707  20.359  13.068  0.5860  0.1393 -0.2125
12577OCT     C125153  19.891   5.758  13.464  0.1392 -0.1234 -0.2282
12577OCT     C225154  19.979   5.323  13.559 -0.4690 -0.0606  0.0438
12578OCT     C125155  20.783  11.828  10.204 -0.1201  0.2961  0.1041
12578OCT     C225156  21.030  11.572  10.536  0.2410 -0.0820  0.1295
12579OCT     C125157  12.214  15.901   4.811  0.0007  0.0560 -0.0236
12579OCT     C225158  12.327  15.604   5.200  0.1998 -0.0518  0.0001
12580OCT     C125159   1.477  17.010  15.255 -0.0412  0.3054  0.3433
12580OCT     C225160   1.585  17.141  14.887  0.1795 -0.0364 -0.3803
12581OCT     C125161   8.813   2.955   5.659  0.1962  0.3519  0.0408
12581OCT     C225162   9.171   2.846   5.936  0.1576  0.0240 -0.2416
12582OCT     C125163  16.417   9.659   7.796  0.1317  0.0209 -0.1439
12582OCT     C225164  15.985   9.723   7.622 -0.3099 -0.0407  0.1308
12583OCT     C125165  17.006   0.645  16.782  0.1876 -0.1280  0.4615
12583OCT     C225166  16.895   0.169  16.613 -0.1137 -0.2739  0.0955
12584OCT     C125167   9.697   1.121   5.179  0.0992  0.1449 -0.2619
12584OCT     C225168   9.657   1.547   5.339 -0.1054  0.0536 -0.0500
12585OCT     C125169  15.190  23.626  15.664 -0.0985  0.0286 -0.2282
12585OCT     C225170  14.801  23.716  15.921 -0.5632 -0.0115  0.1420
12586OCT     C125171  14.182   0.707   3.545  0.0727  0.0555  0.0238
12586OCT     C225172  14.448   0.412   3.296 -0.0395  0.2095  0.0123
12587OCT     C125173   7.080   8.604  20.411  0.3420  0.3057 -0.1114
12587OCT     C225174   7.055   8.524  19.981  0.1309 -0.5551  0.2612
12588OCT     C125175  19.503  22.943  21.765 -0.2676  0.0622  0.1080
12588OCT     C225176  19.427  22.830  22.204  0.3397 -0.2475 -0.0041
12589OCT     C125177   4.422   1.449  21.427 -0.1973  0.4151  0.0663
12589OCT     C225178   4.056   1.554  21.628 -0.1055 -0.4194  0.1862
12590OCT     C125179  18.582  23.078  22.560  0.2009  0.0253 -0.2377
12590OCT     C225180  18.327  23.381  22.283  0.2137  0.0465  0.1468
12591OCT     C125181  21.890  22.014   8.183  0.3446  0.0093 -0.1911
12591OCT     C225182  22.037  22.420   8.103  0.3321  0.0522 -0.2628
12592OCT     C125183  15.191  17.113  22.949  0.4332  0.0760 -0.1535
12592OCT     C225184  15.017  17.173  23.373  0.0290  0.0220  0.1969
12593OCT     C125185  16.150   0.396   3.892 -0.2076 -0.1605  0.5636
12593OCT     C225186  15.848   0.625   4.189 -0.0602  0.2242  0.2709
12594OCT     C125187  19.996  16.708  17.910 -0.2112 -0.0629 -0.1069
12594OCT     C225188  19.833  16.855  17.469  0.1513  0.0583  0.0270
12595OCT     C125189   5.860  11.756  18.336 -0.1935  0.1551 -0.2409
12595OCT     C225190   6.089  11.690  17.919 -0.0411 -0.2193 -0.1175
12596OCT     C125191   4.293   4.881  19.360 -0.0426 -0.2479  0.3384
12596OCT     C225192   4.186   4.942  19.801  0.4349 -0.2524  0.0420
12597OCT     C125193  22.322  17.399  23.073 -0.1384  0.0523  0.0533
12597OCT     C225194  22.767  17.204  23.052  0.0836 -0.0407 -0.2134
12598OCT     C125195  11.261  21.870  12.407 -0.1793  0.2286 -0.0899
12598OCT     C225196  11.003  22.167  12.644 -0.0839 -0.0405 -0.0016
12599OCT     C125197  14.346   2.115   0.205  0.4449 -0.2492 -0.1001
12599OCT     C225198  14.420   2.315  23.566 -0.0124 -0.0709 -0.2428
12600OCT     C125199  10.282  13.336  11.804 -0.1142 -0.2325 -0.1581
12600OCT     C225200  10.410  13.165  11.397  0.0507  0.2558  0.0574
12601OCT     C125201   9.957   2.588  21.388  0.0326 -0.0314  0.3245
12601OCT     C225202  10.082   3.034  21.446  0.3125  0.1569  0.2973
12602OCT     C125203   5.986  13.142  20.998  0.3584  0.1096  0.1407
12602OCT     C225204   5.591  13.268  20.808  0.2344  0.2115  0.2428
12603OCT     C125205  20.311  13.825  19.438  0.0797 -0.0158 -0.3505
12603OCT     C225206  20.122  13.887  19.840  0.0210  0.1367 -0.0344
12604OCT     C125207   3.925   3.057  21.081 -0.0014 -0.3328 -0.2353
12604OCT     C225208   4.191   3.256  20.779  0.1055  0.2131  0.1625
12605OCT     C125209  13.686  20.288  16.890 -0.0967 -0.0869 -0.1680
12605OCT     C225210  14.060  20.229  17.212  0.2688  0.1971  0.1343
12606OCT     C125211  15.356  22.241   0.104  0.0510 -0.1252  0.1688
12606OCT     C225212  15.198  22.648  23.681  0.1456  0.2233  0.0603
12607OCT     C125213  18.562  14.715   6.106  0.2327  0.1876  0.1150
12607OCT     C225214  18.888  14.932   6.363  0.1324 -0.0111 -0.0007
12608OCT     C125215  16.607  20.030   3.609  0.0458  0.3041  0.2091
12608OCT     C225216  16.739  20.345   3.885 -0.0654  0.2449  0.0656
12609OCT     C125217  18.085  18.783  10.745  0.3862 -0.0591  0.0017
12609OCT     C225218  17.927  19.101  11.051 -0.2556 -0.4283  0.0597
12610OCT     C125219  23.485  13.671  23.056  0.0553  0.0306  0.2225
12610OCT     C225220  23.387  13.393  23.387  0.1471 -0.2731 -0.1618
12611OCT     C125221   4.781   9.299   1.350  0.1678 -0.2287 -0.1235
12611OCT     C225222   4.320   9.422   1.286  0.0609  0.2930  0.0618
12612OCT     C125223  14.335  22.565   3.302 -0.0777 -0.4064 -0.1346
12612OCT     C225224  14.504  22.150   3.197 -0.4193 -0.1341  0.2625
12613OCT     C125225  12.811  15.110   9.835  0.1425  0.1442  0.0435
12613OCT     C225226  12.544  15.415   9.800 -0.1551 -0.1480 -0.1075
12614OCT     C125227   7.344  11.946  22.696 -0.0416  0.1020 -0.2011
12614OCT     C225228   7.454  11.574  22.863 -0.0537  0.3312 -0.1481
12615OCT     C125229   1.927   0.757  13.364  0.1488 -0.2070  0.1430
12615OCT     C225230   2.030   0.508  12.930  0.1134 -0.4021  0.1335
12616OCT     C125231   6.221   5.350  18.088  0.2810  0.0825 -0.4858
12616OCT     C225232   5.880   5.008  18.142  0.1867 -0.0665 -0.4051
12617OCT     C125233  12.942   5.118  13.897  0.3646  0.0398  0.0972
12617OCT     C225234  12.739   4.945  13.547  0.0666 -0.1281  0.4333
12618OCT     C125235  11.185   3.993  17.011 -0.1773 -0.1517  0.1874
12618OCT     C225236  11.119   3.834  17.452  0.1124  0.1984  0.1954
12619OCT     C125237  14.249   8.176   8.287 -0.2010  0.0056  0.3457
12619OCT     C225238  14.705   8.333   8.284  0.1071  0.2520 -0.3091
12620OCT     C125239  16.051  10.390   7.385 -0.0615  0.1140 -0.0984
12620OCT     C225240  15.639  10.232   7.610 -0.1571 -0.1252 -0.0219
12621OCT     C125241   0.199  14.771   1.570 -0.2255 -0.1590  0.1798
12621OCT     C225242   0.634  14.705   1.397 -0.0309  0.0737  0.0046
12622OCT     C125243  19.822  10.799  21.556 -0.1922  0.2109 -0.2811
12622OCT     C225244  19.668  11.258  21.533 -0.2634 -0.1058  0.0546
12623OCT     C125245   8.964  23.169  16.149 -0.1000 -0.0746  0.3459
12623OCT     C225246   8.552  23.016  16.333  0.3004 -0.2073 -0.2195
12624OCT     C125247   3.901  19.382   2.764  0.1321 -0.1231  0.0734
12624OCT     C225248   3.669  19.625   2.451  0.1775  0.0232  0.1513
12625OCT     C125249  18.352  16.281   8.233  0.3336 -0.1495 -0.5179
12625OCT     C225250  18.506  16.154   7.803 -0.0062  0.0320  0.1139
12626OCT     C125251   9.723   2.134  23.609  0.0634  0.0496  0.2294
12626OCT     C225252   9.330   1.881   0.008  0.0254 -0.0461  0.0593
12627OCT     C125253   0.096  13.612   0.662  0.0600 -0.2906  0.0184
12627OCT     C225254  23.371  13.709   0.621 -0.0583 -0.0219  0.2117
12628OCT     C125255  20.777  20.693  13.476 -0.2284 -0.1338 -0.4008
12628OCT     C225256  21.140  20.547  13.753 -0.0546 -0.0333 -0.5740
12629OCT     C125257  13.112   8.166  13.766 -0.2023 -0.1909 -0.0273
12629OCT     C225258  12.716   8.330  13.945  0.1428  0.1357 -0.2343
12630OCT     C125259  13.911   3.268   7.121  0.0831  0.1734  0.2703
12630OCT     C225260  14.085   2.970   7.469 -0.4600 -0.1995 -0.4425
12631OCT     C125261  13.896  13.610   1.555  0.1789 -0.1711  0.3408
12631OCT     C225262  13.808  13.894   1.173  0.3506  0.1864 -0.0011
12632OCT     C125263   6.082   8.090  16.607  0.2414 -0.1347  0.1367
12632OCT     C225264   5.684   8.332  16.729 -0.2646  0.0186 -0.0549
12633OCT     C125265  17.562  18.272  12.309  0.1565  0.1535  0.0638
12633OCT     C225266  17.716  18.071  11.929 -0.0532  0.4827 -0.0487
12634OCT     C125267   6.889  12.543   5.011 -0.0903  0.1613  0.1125
12634OCT     C225268   7.277  12.538   4.780 -0.0248  0.1533 -0.1182
12635OCT     C125269   2.462   2.755  18.978 -0.2629  0.2298 -0.3484
12635OCT     C225270   2.602   2.997  19.355  0.0894  0.3296 -0.3566
12636OCT     C125271  22.734  20.832  18.857 -0.1483  0.2690 -0.3623
12636OCT     C225272  22.422  20.470  18.830  0.1650  0.2252  0.3082
12637OCT     C125273  16.315  12.528   6.103  0.1474 -0.0922 -0.1310
12637OCT     C225274  16.155  12.846   6.360  0.2940  0.1686  0.3592
12638OCT     C125275   5.194  13.982  20.398  0.0680 -0.1438 -0.2247
12638OCT     C225276   5.495  13.920  20.023 -0.2043  0.0664  0.0643
12639OCT     C125277  13.458  12.131  17.348 -0.0922  0.2452  0.1060
12639OCT     C225278  13.823  12.425  17.210  0.0725  0.0003  0.1968
12640OCT     C125279  20.643   1.103  23.073  0.0912  0.1146 -0.2743
12640OCT     C225280  20.690   1.065  23.545  0.4094 -0.3159 -0.0187
12641OCT     C125281  21.236   5.375  12.352 -0.0905  0.0580  0.0119
12641OCT     C225282  21.328   5.337  11.871 -0.3039 -0.0236  0.0856
12642OCT     C125283   2.832  15.837   9.006 -0.2272 -0.0282 -0.1027
12642OCT     C225284   3.242  15.709   8.927 -0.3977  0.2123 -0.1565
12643OCT     C125285  22.869   7.409  11.288  0.1041 -0.1324  0.1253
12643OCT     C225286  22.766   7.891  11.164  0.2645  0.0506  0.0261
12644OCT     C125287  19.568  10.460   4.020  0.1870 -0.2453  0.1410
12644OCT     C225288  19.927  10.672   4.129  0.1127 -0.0349  0.0621
12645OCT     C125289   4.996   0.870  16.043  0.1570 -0.1742 -0.2288
12645OCT     C225290   5.173   0.457  16.222 -0.3517  0.1123  0.0384
12646OCT     C125291  14.952  14.945  20.727 -0.2467 -0.1106  0.2830
12646OCT     C225292  14.489  14.804  20.625 -0.2291 -0.1246 -0.0369
12647OCT     C125293  20.179  13.671   3.092  0.0621 -0.2621  0.0818
12647OCT     C225294  19.715  13.566   2.989 -0.0356 -0.1694  0.1386
12648OCT     C125295  12.257  14.949  18.812 -0.0057  0.0537 -0.3437
12648OCT     C225296  12.555  15.366  18.762 -0.2300 -0.0272 -0.1358
12649OCT     C125297  22.118  12.154  20.460 -0.1417 -0.0757  0.0039
12649OCT     C225298  21.754  12.165  20.747  0.2276 -0.1547 -0.2367
12650OCT     C125299  14.662   0.964  15.491 -0.0148  0.0440 -0.3702
12650OCT     C225300  14.484   0.977  15.083 -0.1835 -0.2044  0.0428
12651OCT     C125301  18.783  15.622  19.632 -0.0106 -0.2183  0.0094
12651OCT     C225302  18.351  15.717  19.507 -0.3959 -0.0258  0.2944
12652OCT     C125303  15.402  21.663  23.064  0.0137  0.0926 -0.2057
12652OCT     C225304  15.135  21.792  22.722  0.2356 -0.1510  0.1005
12653OCT     C125305   5.117   8.801   5.954 -0.1202 -0.1445 -0.2471
12653OCT     C225306   4.657   8.917   5.870  0.4150  0.1056  0.0770
12654OCT     C125307  13.656   9.154   9.569 -0.1387  0.0980  0.4182
12654OCT     C225308  13.761   9.513   9.242  0.0332 -0.3345  0.0790
12655OCT     C125309   3.736  12.470  11.896  0.0141 -0.0086  0.1913
12655OCT     C225310   3.953  12.419  11.412  0.0061  0.0609 -0.0763
12656OCT     C125311   7.857   4.831   7.212 -0.0790  0.4011 -0.2149
12656OCT     C225312   8.288   4.653   7.248  0.1008  0.0341 -0.0931
12657OCT     C125313  22.479  12.087   9.261  0.1448 -0.3168  0.0023
12657OCT     C225314  22.185  12.437   9.293  0.0915  0.2215  0.2435
12658OCT     C125315   2.365   9.757  19.908  0.0343 -0.0726 -0.4331
12658OCT     C225316   1.924   9.848  20.033 -0.0650 -0.0511 -0.5344
12659OCT     C125317   4.859  21.644  19.968 -0.0068 -0.1290 -0.1052
12659OCT     C225318   5.185  21.699  20.327 -0.0359  0.0849  0.1452
12660OCT     C125319  16.346  10.899   4.388 -0.1960 -0.0382  0.0153
12660OCT     C225320  16.210  11.139   4.037 -0.0652  0.1514  0.1747
12661OCT     C125321  20.456   2.092  12.336 -0.2518  0.4384 -0.0508
12661OCT     C225322  20.554   1.616  12.405  0.2107 -0.4449 -0.0474
12662OCT     C125323  17.433   6.811  16.239 -0.2471  0.2397  0.0078
12662OCT     C225324  17.160   6.472  16.120  0.0855 -0.5069 -0.0855
12663OCT     C125325  17.495   9.731  17.957 -0.0626 -0.1155 -0.1031
12663OCT     C225326  17.348   9.350  18.181  0.1019  0.1104 -0.1430
12664OCT     C125327  12.572  19.920  19.599  0.1293  0.1138  0.0664
12664OCT     C225328  12.192  19.630  19.629  0.5360 -0.0568  0.0473
12665OCT     C125329  14.769  18.399   8.650  0.0719  0.1682 -0.3719
12665OCT     C225330  14.812  17.986   8.393 -0.0638  0.1295 -0.1693
12666OCT     C125331   0.660  22.925  23.500  0.0232 -0.1846 -0.0234
12666OCT     C225332   0.877  23.272  23.604  0.2358 -0.1161  0.4646
12667OCT     C125333   4.428   7.714  17.055  0.0912  0.0210 -0.0962
12667OCT     C225334   4.087   7.365  17.109  0.1530 -0.0783  0.0021
12668OCT     C125335  14.516  13.877  11.521  0.0270  0.2879  0.1036
12668OCT     C225336  14.460  14.323  11.702 -0.1167  0.2864 -0.1471
12669OCT     C125337  10.962  20.566   9.045  0.0552 -0.2302  0.0822
12669OCT     C225338  11.145  20.162   8.997 -0.1928  0.0841 -0.2631
12670OCT     C125339  19.029   7.860  17.106  0.0807 -0.2560 -0.1624
12670OCT     C225340  19.178   7.787  17.509  0.0047  0.0658 -0.1188
12671OCT     C125341  19.011  12.588   5.867 -0.0749  0.2696 -0.0367
12671OCT     C225342  18.874  12.509   6.343  0.2229  0.2749  0.0238
12672OCT     C125343  19.062   6.044  13.512 -0.2869 -0.0030 -0.0636
12672OCT     C225344  18.698   5.793  13.504 -0.1130 -0.0918  0.2520
12673OCT     C125345  15.117  13.154  18.038 -0.1154  0.2120 -0.0867
12673OCT     C225346  14.907  13.350  18.382  0.0031  0.0690 -0.2362
12674OCT     C125347   1.351  15.727   1.596 -0.1822 -0.3015  0.4716
12674OCT     C225348   0.858  15.656   1.588 -0.0871  0.0505 -0.0801
12675OCT     C125349   2.884   7.864   0.568  0.2209  0.3577  0.0629
12675OCT     C225350   3.055   7.424   0.716  0.5027 -0.2132  0.1154
12676OCT     C125351  16.896  10.831   7.288 -0.5098  0.2420  0.1981
12676OCT     C225352  17.266  11.110   7.313 -0.0166 -0.1841  0.1627
12677OCT     C125353   6.039   7.118  17.814 -0.2383 -0.0173  0.0002
12677OCT     C225354   5.715   7.344  17.550 -0.1280  0.4816 -0.1094
12678OCT     C125355   0.641   1.970  11.849 -0.0379 -0.0601 -0.1254
12678OCT     C225356   1.015   2.207  11.903 -0.2044 -0.1409  0.0935
12679OCT     C125357  12.238  16.149   7.889 -0.4310  0.0735  0.1010
12679OCT     C225358  12.548  16.475   7.814 -0.0820  0.0193  0.2827
12680OCT     C125359  19.301  23.035   6.308  0.1440 -0.1438 -0.1091
12680OCT     C225360  18.949  22.946   5.989  0.2823 -0.4295  0.2097
12681OCT     C125361  17.590  14.808  14.803 -0.3525 -0.1377  0.0623
12681OCT     C225362  17.551  14.384  15.068 -0.1543 -0.1817  0.0451
12682OCT     C125363   4.790  23.682  17.066  0.0491  0.1506 -0.1410
12682OCT     C225364   4.419  23.562  16.778  0.1031  0.1380  0.0419
12683OCT     C125365   7.218  18.004  16.807 -0.0538 -0.0460  0.3845
12683OCT     C225366   7.318  18.209  16.422 -0.1971 -0.3543 -0.3918
12684OCT     C125367   9.594  14.486  12.675  0.2099  0.1943 -0.2079
12684OCT     C225368   9.941  14.295  12.882  0.1447 -0.0759 -0.2589
12685OCT     C125369  20.391   1.137  16.467  0.1374  0.1535  0.0943
12685OCT     C225370  20.162   1.134  16.071 -0.2285  0.2269  0.0327
12686OCT     C125371  13.017  15.230   7.407 -0.3001 -0.0122  0.3177
12686OCT     C225372  12.697  15.569   7.220 -0.6415  0.0216 -0.1005
12687OCT     C125373  22.599  14.268   9.079  0.2043 -0.0315  0.2692
12687OCT     C225374  22.255  14.577   9.071  0.1019 -0.0715  0.1296
12688OCT     C125375   9.348  11.040  12.863 -0.0149 -0.5672  0.1994
12688OCT     C225376   9.675  11.174  12.530  0.0119 -0.0520  0.3827
12689OCT     C125377  10.462  17.284   4.173 -0.4086  0.0840 -0.1169
12689OCT     C225378  10.649  17.060   3.784  0.2136 -0.3713 -0.2808
12690OCT     C125379  16.480   6.196   2.682  0.0728  0.0528 -0.1676
12690OCT     C225380  16.746   6.309   2.995 -0.2552  0.0414 -0.0596
12691OCT     C125381   8.866  14.195  11.368 -0.0156 -0.0250 -0.1156
12691OCT     C225382   9.010  14.091  10.988 -0.1630 -0.0068 -0.0502
12692OCT     C125383  18.368  18.755  11.839  0.0250  0.3164  0.1830
12692OCT     C225384  17.999  18.468  11.712  0.3106 -0.2913 -0.0456
12693OCT     C125385   4.528  19.352  21.975 -0.2385  0.3265  0.1341
12693OCT     C225386   4.273  18.998  22.151 -0.1521 -0.2543 -0.0162
12694OCT     C125387   0.589   8.727  17.625 -0.2287  0.3020  0.4786
12694OCT     C225388   0.978   8.978  17.608 -0.1208  0.0455  0.2829
12695OCT     C125389   4.763  22.519  17.747 -0.3328  0.1945 -0.1054
12695OCT     C225390   4.816  22.972  17.890 -0.0307 -0.3689  0.2189
12696OCT     C125391  11.086   7.752   1.346 -0.2549  0.1912 -0.0670
12696OCT     C225392  11.003   8.164   1.466 -0.0195 -0.0369  0.0889
12697OCT     C125393  19.593  18.269  15.096  0.0139  0.0167 -0.3202
12697OCT     C225394  19.163  18.094  15.147 -0.4088  0.2148 -0.1651
12698OCT     C125395   0.194   3.015   9.404  0.1244  0.5800  0.0329
12698OCT     C225396   0.492   3.081   9.035 -0.1631  0.2648  0.0607
12699OCT     C125397   7.886  15.635   1.538 -0.0347  0.3582  0.1039
12699OCT     C225398   8.072  15.569   1.983  0.0270 -0.1584 -0.0101
12700OCT     C125399   3.896   7.925  13.473 -0.2309 -0.0481  0.2962
12700OCT     C225400   3.477   8.037  13.621  0.1339  0.0309 -0.1011
12701OCT     C125401  23.120  12.220   2.555 -0.3594 -0.2752  0.4237
12701OCT     C225402  23.442  11.884   2.697 -0.0684  0.1225  0.0726
12702OCT     C125403  23.525  12.741   8.065  0.1677 -0.1968  0.0294
12702OCT     C225404  23.574  12.303   8.196  0.1653 -0.1904  0.2244
12703OCT     C125405   9.812  21.693  19.998 -0.0616 -0.1128 -0.0507
12703OCT     C225406   9.826  21.376  20.332  0.0359  0.1374 -0.1113
12704OCT     C125407  10.293  22.689   7.515 -0.0856  0.1306 -0.5347
12704OCT     C225408  10.278  23.102   7.309  0.2268 -0.0741 -0.0555
12705OCT     C125409  21.563  18.956   7.737 -0.3966  0.4324  0.3308
12705OCT     C225410  21.568  18.457   7.913  0.1246  0.1610  0.2257
12706OCT     C125411  14.783  22.271   6.330  0.1803 -0.1702  0.0586
12706OCT     C225412  15.150  22.504   6.097  0.0368  0.2426 -0.0644
12707OCT     C125413  11.751  22.963   6.815 -0.2110  0.1578 -0.1930
12707OCT     C225414  11.695  22.510   6.737 -0.1983 -0.1309  0.1373
12708OCT     C125415   7.357  17.726  15.288  0.0198  0.1040  0.0582
12708OCT     C225416   7.142  18.133  15.404  0.0752  0.0814 -0.0395
12709OCT     C125417   7.105  11.272   7.262  0.0214 -0.0367  0.2866
12709OCT     C225418   6.893  11.688   7.228  0.0993 -0.0598  0.3294
12710OCT     C125419   1.642  22.468  20.132  0.1750  0.0679  0.0975
12710OCT     C225420   1.155  22.585  20.224 -0.2308 -0.1576  0.0156
12711OCT     C125421  17.575  22.355  17.192  0.2958 -0.0192  0.1524
12711OCT     C225422  17.676  22.644  17.537 -0.1553 -0.0152  0.0030
12712OCT     C125423   7.335   0.867  17.809 -0.0705 -0.0435 -0.0801
12712OCT     C225424   7.167   1.272  17.971 -0.3418  0.1602 -0.4080
12713OCT     C125425   0.622   3.079   2.647 -0.1717  0.2477 -0.3188
12713OCT     C225426   0.240   3.200   2.722  0.0171 -0.0210  0.3779
12714OCT     C125427  15.862  23.069   5.096  0.0748 -0.4554  0.0441
12714OCT     C225428  15.806  23.468   4.815 -0.3573  0.4279 -0.5164
12715OCT     C125429   9.605  20.947  18.063  0.3394 -0.4427  0.0169
12715OCT     C225430   9.361  21.277  18.354  0.0104  0.2302  0.0009
12716OCT     C125431  10.055   0.650  19.661  0.0641 -0.0202 -0.3175
12716OCT     C225432  10.407   0.367  19.923 -0.3348 -0.0631  0.2534
12717OCT     C125433   3.731   3.141   1.235 -0.1539  0.1030  0.1563
12717OCT     C225434   3.679   3.594   1.248  0.0841 -0.0284 -0.0877
12718OCT     C125435  13.325   1.648   1.402 -0.1689  0.0957 -0.2013
12718OCT     C225436  13.488   2.025   1.632 -0.1711  0.0762  0.1397
12719OCT     C125437  18.269  13.837   5.778 -0.1323 -0.1783  0.3359
12719OCT     C225438  18.533  13.466   5.930 -0.1610 -0.0733 -0.1003
12720OCT     C125439  11.288  21.659   6.492 -0.3477  0.2790  0.2889
12720OCT     C225440  11.646  21.971   6.431 -0.2759  0.5782 -0.2014
12721OCT     C125441  18.913  13.956   5.613 -0.1332  0.0856 -0.1220
12721OCT     C225442  19.318  14.219   5.637  0.3432  0.0473 -0.2269
12722OCT     C125443  15.809  23.276  18.103 -0.1089  0.0906  0.3534
12722OCT     C225444  15.515  23.433  17.792 -0.1818  0.3427  0.2674
12723OCT     C125445  10.726  21.136  16.997 -0.0228 -0.0894  0.1668
12723OCT     C225446  11.080  21.390  17.082 -0.0662 -0.1590 -0.1103
12724OCT     C125447  20.865  12.895   4.779 -0.1680 -0.0456 -0.2540
12724OCT     C225448  21.142  12.641   4.452 -0.0008  0.0256  0.1182
12725OCT     C125449  21.805   0.705   8.328 -0.4349  0.1745 -0.2437
12725OCT     C225450  21.933   0.692   7.893  0.0040 -0.4004 -0.1566
12726OCT     C125451   9.063  12.756   3.524 -0.3049 -0.0005 -0.0545
12726OCT     C225452   9.027  12.468   3.877  0.4304  0.2975  0.0175
12727OCT     C125453  13.054  21.308   8.015  0.3871  0.0795  0.1679
12727OCT     C225454  12.897  20.882   7.814 -0.4490 -0.1208 -0.2784
12728OCT     C125455   5.249  11.076  10.326  0.1872  0.0439 -0.0108
12728OCT     C225456   5.262  10.787   9.977  0.1915  0.2180  0.1205
12729OCT     C125457   8.838   4.113   1.857  0.1489 -0.0399 -0.0997
12729OCT     C225458   8.612   4.397   1.528  0.0984  0.0267  0.2977
12730OCT     C125459   3.829  17.484  17.562  0.1007 -0.0701  0.1249
12730OCT     C225460   3.925  17.577  17.098 -0.0308 -0.1139 -0.4153
12731OCT     C125461  15.240  21.439   5.184 -0.2214  0.1399  0.1755
12731OCT     C225462  15.389  21.564   4.673  0.0385 -0.3097  0.0556
12732OCT     C125463  15.249  18.931  22.405 -0.2458  0.2377 -0.2141
12732OCT     C225464  14.861  18.665  22.333 -0.0888 -0.1062  0.3847
12733OCT     C125465   7.400  22.886   1.738 -0.0245  0.0885 -0.1445
12733OCT     C225466   6.995  23.137   1.717 -0.0752  0.1547  0.1210
12734OCT     C125467   0.412   6.788  16.902 -0.0093 -0.1340 -0.3916
12734OCT     C225468   0.712   6.714  16.520  0.1224  0.0606  0.1057
12735OCT     C125469  18.677  19.974  13.704  0.1384  0.0762 -0.1606
12735OCT     C225470  18.210  19.968  13.531  0.1128 -0.0012 -0.0130
12736OCT     C125471   8.818  14.263  20.360  0.1367  0.1262  0.1307
12736OCT     C225472   8.593  14.475  20.673 -0.1757 -0.0788 -0.2005
12737OCT     C125473  10.620  17.860   6.907  0.0822  0.0654  0.1637
12737OCT     C225474  11.082  17.789   7.117  0.2710  0.0987  0.1479
12738OCT     C125475  12.754   5.865  17.389  0.3133  0.0269  0.1446
12738OCT     C225476  12.723   5.812  17.828  0.0219 -0.2028 -0.2626
12739OCT     C125477   5.484  17.554  21.112 -0.1662 -0.0745  0.2022
12739OCT     C225478   5.483  17.555  20.612  0.3924 -0.1884 -0.3347
12740OCT     C125479   8.731   2.550  15.192 -0.0085 -0.0548  0.0125
12740OCT     C225480   8.830   2.159  15.326  0.1397  0.0612 -0.2007
12741OCT     C125481  21.563   3.037  15.083  0.1211 -0.2301 -0.0766
12741OCT     C225482  21.235   2.793  14.827  0.0072 -0.1744 -0.1550
12742OCT     C125483   7.844  14.356  17.893 -0.1781 -0.0137  0.1568
12742OCT     C225484   7.874  14.256  18.373 -0.1903 -0.2955 -0.1309
12743OCT     C125485  22.942   7.370  12.768  0.1610 -0.2566 -0.1452
12743OCT     C225486  23.055   7.408  13.238 -0.1891 -0.0354 -0.0907
12744OCT     C125487   8.218   8.271  14.023  0.0467 -0.0897  0.2919
12744OCT     C225488   8.291   8.037  13.630  0.0903 -0.2247  0.1404
12745OCT     C125489   0.823   0.695  16.277  0.2424  0.2689 -0.0129
12745OCT     C225490   0.476   0.779  15.991 -0.0973 -0.0428 -0.3005
12746OCT     C125491   7.084  19.758   4.111 -0.3302 -0.1052  0.0966
12746OCT     C225492   6.756  19.765   3.763  0.2759 -0.0374  0.1771
12747OCT     C125493   8.770  20.870   6.527  0.1106 -0.1410  0.0315
12747OCT     C225494   8.673  21.258   6.765  0.4830  0.0414  0.1339
12748OCT     C125495   7.756   4.606  10.232  0.1432 -0.0716  0.1927
12748OCT     C225496   7.912   4.181  10.135  0.0201  0.3596  0.0491
12749OCT     C125497   2.566  10.061   2.480  0.2336  0.1880  0.3472
12749OCT     C225498   2.619   9.662   2.527 -0.2249  0.3633  0.1555
12750OCT     C125499  18.900  10.120   3.399  0.2876  0.0171  0.1750
12750OCT     C225500  18.777  10.114   3.852  0.1959  0.1557  0.0612
12751OCT     C125501   1.760  14.697  22.505  0.0763 -0.0156 -0.0484
12751OCT     C225502   1.936  14.975  22.157 -0.1510 -0.0411  0.2028
12752OCT     C125503   0.997  15.505   9.362  0.1593  0.2080 -0.0352
12752OCT     C225504   1.315  15.399   9.013  0.1169  0.0337  0.1403
12753OCT     C125505  11.444  11.964  16.191  0.0825 -0.0071  0.0833
12753OCT     C225506  11.388  11.489  15.947  0.0640  0.2055 -0.2787
12754OCT     C125507   5.524   9.836  21.345 -0.0655 -0.0124 -0.1274
12754OCT     C225508   5.827   9.968  21.035  0.0508  0.2170 -0.0619
12755OCT     C125509  16.013  22.913   7.642  0.4123 -0.0138  0.0894
12755OCT     C225510  15.726  22.938   8.008  0.0832 -0.3430 -0.2478
12756OCT     C125511  20.996  13.771  18.814  0.0450  0.0401  0.1691
12756OCT     C225512  21.163  14.004  19.144  0.0157  0.0671 -0.1970
12757OCT     C125513  21.176  11.000  14.809 -0.0332 -0.4331 -0.2538
12757OCT     C225514  21.598  11.004  15.069 -0.2132  0.1819  0.2765
12758OCT     C125515  20.205  17.736  21.159 -0.1324 -0.3950  0.1254
12758OCT     C225516  20.262  17.322  21.327 -0.3175  0.3220 -0.0599
12759OCT     C125517   5.399  11.054  16.422 -0.3110 -0.3507 -0.0123
12759OCT     C225518   5.687  10.709  16.566  0.0407 -0.1564 -0.3080
12760OCT     C125519  18.149  11.912   8.983  0.0715  0.1319  0.0255
12760OCT     C225520  18.091  11.647   9.370 -0.2640 -0.2595  0.1361
12761OCT     C125521  13.337  12.150  19.833 -0.2632 -0.5133  0.4625
12761OCT     C225522  13.689  12.400  19.618  0.1717 -0.2140  0.0522
12762OCT     C125523   0.764  19.722   9.436  0.1613 -0.0745 -0.3208
12762OCT     C225524   0.530  19.416   9.213 -0.1576  0.2010  0.1699
12763OCT     C125525   1.885   5.063   5.227  0.2401  0.1065 -0.3686
12763OCT     C225526   2.282   5.339   5.213 -0.0483 -0.1534 -0.2006
12764OCT     C125527  23.642   7.282  17.663 -0.0767 -0.1013  0.3245
12764OCT     C225528  23.705   7.206  17.179  0.1622  0.1158  0.2078
12765OCT     C125529  21.260  14.105  16.014 -0.2680 -0.1543 -0.0065
12765OCT     C225530  20.812  14.253  15.972  0.2649 -0.0205 -0.1026
12766OCT     C125531  10.032   2.896   4.855  0.0066 -0.2447  0.2792
12766OCT     C225532  10.452   2.636   4.866  0.0629  0.2608 -0.0708
12767OCT     C125533   3.388   1.137  10.687  0.4940  0.1549 -0.0983
12767OCT     C225534   3.293   1.563  10.511 -0.0201 -0.3431  0.2110
12768OCT     C125535  11.732   0.887  12.645  0.1867  0.3331  0.2307
12768OCT     C225536  11.596   1.294  12.553  0.3730  0.2312 -0.2827
12769OCT     C125537  12.746  18.397  18.312  0.3171 -0.3829  0.3200
12769OCT     C225538  12.808  18.795  18.118 -0.1044 -0.3804 -0.0625
12770OCT     C125539   7.971  17.505   9.835 -0.1507 -0.2952 -0.0827
12770OCT     C225540   8.330  17.806   9.925  0.1946  0.1173 -0.1756
12771OCT     C125541  16.580  14.527  10.882  0.0222  0.3729  0.3867
12771OCT     C225542  17.007  14.708  10.707 -0.0260 -0.2679 -0.0297
12772OCT     C125543  14.823  15.843  14.574 -0.0126 -0.1939  0.5015
12772OCT     C225544  14.907  16.271  14.504  0.1118 -0.2261  0.1921
12773OCT     C125545  21.294   4.589   4.089 -0.0453  0.1642  0.1989
12773OCT     C225546  21.722   4.645   4.265 -0.4356 -0.1627 -0.0590
12774OCT     C125547  14.065  16.409  17.959 -0.1072 -0.2306 -0.2210
12774OCT     C225548  14.166  16.352  18.360 -0.1373  0.0081  0.0497
12775OCT     C125549   4.722   9.952  19.613 -0.3076  0.0860  0.3600
12775OCT     C225550   4.667   9.660  19.203 -0.0184  0.1908 -0.0797
12776OCT     C125551   2.604  10.486  21.882 -0.4195  0.2090 -0.1413
12776OCT     C225552   2.537  10.812  21.540  0.2459  0.0110 -0.1385
12777OCT     C125553  16.652  22.710  23.141 -0.3463 -0.0355 -0.2213
12777OCT     C225554  16.935  22.815  23.487  0.2682 -0.0675 -0.2600
12778OCT     C125555  15.427  11.357  20.345 -0.1249 -0.0752  0.0136
12778OCT     C225556  15.603  11.032  20.622 -0.1014  0.1691  0.0344
12779OCT     C125557  14.221  19.092  19.449 -0.0117  0.0270 -0.0775
12779OCT     C225558  14.006  18.780  19.223 -0.2559  0.0528  0.3160
12780OCT     C125559   1.679   2.745   2.902 -0.0378 -0.4592  0.3477
12780OCT     C225560   2.136   2.771   2.735 -0.3884 -0.0338 -0.4496
12781OCT     C125561  13.217   6.640   5.618 -0.0085 -0.1166 -0.0936
12781OCT     C225562  13.044   6.870   5.251  0.0527  0.4445 -0.2792
12782OCT     C125563   9.178   0.672  18.957 -0.0759  0.2333 -0.1843
12782OCT     C225564   9.421   0.305  18.910 -0.0337  0.2446  0.7498
12783OCT     C125565  21.090   2.331   3.575  0.1663 -0.1536  0.0457
12783OCT     C225566  21.483   2.323   3.352  0.1235  0.1607  0.0889
12784OCT     C125567   0.347   1.928  15.242  0.1174 -0.3422 -0.1471
12784OCT     C225568   0.499   2.185  14.897 -0.0035 -0.4926  0.2200
12785OCT     C125569  18.178   2.100  14.921 -0.1083  0.1829 -0.0621
12785OCT     C225570  17.903   2.426  14.720 -0.0855  0.1283 -0.0226
12786OCT     C125571   9.083  14.364   8.132  0.2719  0.1390 -0.2470
12786OCT     C225572   8.891  14.766   7.885  0.1565 -0.3564 -0.1632
12787OCT     C125573   4.358  13.973   1.906  0.0400  0.1809 -0.1705
12787OCT     C225574   4.789  14.080   1.681 -0.1409  0.0426 -0.2043
12788OCT     C125575  11.673  20.002   0.087  0.0442 -0.3107 -0.3265
12788OCT     C225576  11.560  20.158   0.514  0.1041  0.0280 -0.0186
12789OCT     C125577  21.636   0.774   6.682 -0.0535  0.4090  0.0827
12789OCT     C225578  21.940   0.430   6.552  0.0080  0.0590 -0.2399
12790OCT     C125579  10.280  22.166   1.468 -0.0139 -0.2945 -0.0237
12790OCT     C225580  10.605  22.528   1.505  0.0023  0.2034  0.0575
12791OCT     C125581  20.932   0.897   4.482  0.0182 -0.2607 -0.1822
12791OCT     C225582  20.578   1.193   4.637  0.2316  0.0238 -0.3487
12792OCT     C125583  22.699   0.691  10.626  0.2378 -0.2290  0.0578
12792OCT     C225584  22.325   0.921  10.836 -0.3487  0.3552  0.0700
12793OCT     C125585  13.673  20.924   7.396  0.1170 -0.2955  0.2628
12793OCT     C225586  13.543  20.477   7.514  0.1046 -0.1264  0.4472
12794OCT     C125587   5.686   1.451   1.904  0.0034 -0.2275 -0.0503
12794OCT     C225588   5.639   1.840   2.222 -0.0878  0.0611  0.3229
12795OCT     C125589  13.635   0.005  13.663  0.0095  0.1698 -0.2257
12795OCT     C225590  14.072   0.132  13.619 -0.3452  0.1491 -0.1317
12796OCT     C125591  18.567   9.467   0.129  0.4477  0.1068  0.0256
12796OCT     C225592  18.789   9.858   0.169 -0.0364  0.1194  0.0400
12797OCT     C125593  10.769  11.662   5.390 -0.0536 -0.0921  0.3735
12797OCT     C225594  10.578  11.312   5.617  0.3857 -0.0847  0.1203
12798OCT     C125595   7.244  23.464   0.938 -0.1193 -0.2606 -0.0340
12798OCT     C225596   6.936  23.191   1.209 -0.0583 -0.4424  0.0565
12799OCT     C125597  22.986  13.216  12.328 -0.0571  0.3021  0.1283
12799OCT     C225598  23.027  13.074  12.739  0.2358  0.3352  0.2730
12800OCT     C125599  11.796  19.071  11.544  0.1060 -0.0377  0.0025
12800OCT     C225600  11.765  19.013  11.090 -0.2343  0.2430  0.2466
12801OCT     C125601  10.719   5.289  17.575 -0.1226  0.5340 -0.2686
12801OCT     C225602  11.068   5.461  17.837 -0.5140 -0.2289  0.0655
12802OCT     C125603  22.745  10.054  16.056 -0.2226 -0.1162  0.0234
12802OCT     C225604  23.172  10.213  15.982  0.2080 -0.3391 -0.1502
12803OCT     C125605   9.848  13.623  12.081 -0.1043  0.2490 -0.0271
12803OCT     C225606  10.346  13.747  12.074 -0.2313  0.1396  0.3306
12804OCT     C125607  18.418   8.847   1.785  0.0763  0.1405  0.1951
12804OCT     C225608  18.277   8.498   1.503 -0.2778 -0.2908 -0.0642
12805OCT     C125609  10.194  12.732   6.535  0.1125 -0.2663  0.2662
12805OCT     C225610  10.044  13.172   6.678 -0.3652 -0.0490  0.1097
12806OCT     C125611  14.155  18.866  21.193  0.1286 -0.4236  0.0384
12806OCT     C225612  14.000  18.579  21.529 -0.0116  0.1116  0.0853
12807OCT     C125613   4.546  11.193  16.820  0.0355 -0.0058  0.0117
12807OCT     C225614   4.822  11.348  17.172 -0.1688 -0.2311 -0.2133
12808OCT     C125615  21.186  20.463  13.163 -0.1050 -0.0274 -0.1594
12808OCT     C225616  21.090  20.029  13.093  0.0032  0.1548 -0.2512
12809OCT     C125617  13.446  10.241   7.601  0.0434  0.0930  0.1262
12809OCT     C225618  13.870  10.435   7.612 -0.0545 -0.1085 -0.0349
12810OCT     C125619  12.487  14.462  16.701 -0.1967 -0.2443 -0.2048
12810OCT     C225620  12.408  14.592  16.302  0.2115  0.1715  0.0778
12811OCT     C125621   5.500   6.631  11.963 -0.2556 -0.0563  0.2269
12811OCT     C225622   5.649   6.702  12.425  0.0544 -0.2975  0.1447
12812OCT     C125623  17.812   2.314   1.900  0.1472  0.2032  0.0603
12812OCT     C225624  17.735   2.312   1.385 -0.2760 -0.0630  0.3012
12813OCT     C125625  19.737  17.562  23.049 -0.0152 -0.1428 -0.2365
12813OCT     C225626  19.891  17.163  23.117  0.3712 -0.0979 -0.1302
12814OCT     C125627   7.432   1.496  23.153 -0.1403  0.1372 -0.1490
12814OCT     C225628   7.587   1.645  22.758 -0.1380 -0.0066 -0.1261
12815OCT     C125629   6.236  15.645  14.792 -0.1863  0.0869  0.0360
12815OCT     C225630   5.840  15.910  14.801  0.0920  0.0989  0.0248
12816OCT     C125631   0.250  18.514   2.817 -0.0553 -0.0198 -0.2863
12816OCT     C225632   0.428  18.253   2.532  0.3116  0.3149 -0.2863
12817OCT     C125633  21.859   1.025  10.906 -0.1814  0.0102 -0.0899
12817OCT     C225634  21.923   0.626  10.752 -0.2533 -0.1328 -0.1564
12818OCT     C125635   9.674  14.782  20.260 -0.0342  0.1778 -0.1190
12818OCT     C225636   9.398  14.827  19.914  0.0636  0.0153  0.1464
12819OCT     C125637  14.551   8.388   4.107  0.0460  0.1740 -0.0325
12819OCT     C225638  14.450   7.930   4.075 -0.1388 -0.1180 -0.3248
12820OCT     C125639  11.733   5.718   2.049  0.0292  0.1923 -0.3541
12820OCT     C225640  11.870   5.283   1.876  0.1128 -0.2015  0.0535
12821OCT     C125641  20.202  16.526  21.460  0.1480 -0.1835  0.0536
12821OCT     C225642  20.059  16.149  21.662  0.0156  0.0571 -0.1795
12822OCT     C125643  10.546  10.688  10.457 -0.0361 -0.0355 -0.3201
12822OCT     C225644  10.475  10.989  10.786  0.0704  0.2194  0.0602
12823OCT     C125645   2.101   5.492   7.418  0.0605 -0.0192  0.3446
12823OCT     C225646   2.304   5.532   7.799 -0.1828  0.1822 -0.0446
12824OCT     C125647   1.202  13.375  12.731  0.2154  0.2680  0.1866
12824OCT     C225648   1.446  13.762  12.760  0.3977 -0.6164 -0.0272
12825OCT     C125649  16.795  18.090  21.894  0.3562 -0.0416  0.2901
12825OCT     C225650  17.261  18.191  21.761 -0.2077  0.3202 -0.2546
12826OCT     C125651   0.033  19.211  10.206 -0.5319  0.0967 -0.0217
12826OCT     C225652  23.688  18.830   9.995 -0.0356 -0.0723  0.0759
12827OCT     C125653   3.783  18.209   7.300 -0.1157  0.2731  0.1147
12827OCT     C225654   3.466  18.215   7.005  0.1425 -0.4636 -0.4345
12828OCT     C125655  16.143   8.052   0.726  0.0476  0.0142 -0.2320
12828OCT     C225656  16.203   7.740   0.448 -0.1226 -0.0113  0.0449
12829OCT     C125657  13.139  19.294   3.821  0.0500 -0.1842  0.0144
12829OCT     C225658  13.170  19.046   4.174  0.0964 -0.0521 -0.0184
12830OCT     C125659  23.142  20.003  12.241 -0.0231 -0.0696  0.1661
12830OCT     C225660  23.205  19.824  12.708 -0.0132 -0.2685  0.0046
12831OCT     C125661   1.377   0.020  21.940  0.0615 -0.0082 -0.1859
12831OCT     C225662   0.994  23.524  21.914 -0.0509 -0.1167 -0.2524
12832OCT     C125663   4.465  11.800  15.263 -0.1935  0.2547 -0.1114
12832OCT     C225664   4.949  11.791  15.273 -0.3468 -0.0126  0.1499
12833OCT     C125665  15.368  22.856   3.550  0.3106  0.2414 -0.3006
12833OCT     C225666  14.868  22.850   3.455  0.2069  0.3080  0.1641
12834OCT     C125667   3.213  11.453   7.507 -0.2570  0.1455  0.3210
12834OCT     C225668   3.413  11.341   8.001  0.1679 -0.1416  0.0866
12835OCT     C125669  13.398  13.177  19.837  0.1656  0.1920  0.2368
12835OCT     C225670  13.857  13.025  19.710 -0.2013  0.2172 -0.2925
12836OCT     C125671  23.048   7.258  12.217 -0.2442  0.0052 -0.0275
12836OCT     C225672  23.077   6.947  12.512 -0.1057  0.0054  0.1795
12837OCT     C125673  14.316  20.249   5.013  0.0362  0.1883 -0.0253
12837OCT     C225674  14.227  19.932   4.745  0.2056 -0.0091 -0.1089
12838OCT     C125675   2.061  14.697  12.771 -0.0930 -0.2604  0.0446
12838OCT     C225676   2.295  15.093  12.846 -0.2917  0.1389  0.0515
12839OCT     C125677  19.472  12.794   0.355 -0.4368 -0.1736  0.0940
12839OCT     C225678  19.168  12.590   0.651  0.1634  0.0579  0.2185
12840OCT     C125679  15.452  10.279  14.757  0.1871  0.1012  0.2472
12840OCT     C225680  15.592  10.421  14.272  0.2362  0.3242 -0.0084
12841OCT     C125681  18.553   5.991  19.293  0.5706  0.1188  0.1138
12841OCT     C225682  18.778   5.792  18.951 -0.4660 -0.1282 -0.1723
12842OCT     C125683  23.135  10.621  17.774  0.1652 -0.1026 -0.3586
12842OCT     C225684  23.242  10.284  18.122  0.1921 -0.1131 -0.2356
12843OCT     C125685  18.528  16.579   3.962 -0.1920  0.1647 -0.3331
12843OCT     C225686  18.455  16.222   3.658 -0.1145  0.2934 -0.2522
12844OCT     C125687   7.272  18.830   5.259  0.0254 -0.0703  0.0280
12844OCT     C225688   6.971  19.173   5.309  0.2101 -0.1819 -0.2087
12845OCT     C125689   6.323  23.261  13.227 -0.1175 -0.2193 -0.0553
12845OCT     C225690   6.015  23.015  13.004  0.1674 -0.1895 -0.1858
12846OCT     C125691   0.197   2.512  21.423  0.1898  0.0703  0.1360
12846OCT     C225692  23.599   2.334  21.714  0.1131  0.1073 -0.1658
12847OCT     C125693  10.817  18.141   2.826  0.0291 -0.0715  0.1054
12847OCT     C225694  10.726  17.765   3.103 -0.5781  0.0426 -0.2261
12848OCT     C125695  12.171   2.256  19.657  0.0293  0.2635  0.0697
12848OCT     C225696  12.105   2.445  20.098  0.3712 -0.0217  0.0350
12849OCT     C125697   0.134   0.806   1.277 -0.0416 -0.0811 -0.4380
12849OCT     C225698  23.588   0.446   1.059 -0.0328  0.0777  0.1615
12850OCT     C125699   6.031  11.014   3.725 -0.0924 -0.1231 -0.3203
12850OCT     C225700   6.433  11.190   3.569 -0.1590 -0.1137 -0.2488
12851OCT     C125701   0.895   1.448  13.988 -0.5266  0.0306  0.1256
12851OCT     C225702   0.439   1.334  14.144  0.0229  0.4931 -0.1409
12852OCT     C125703  15.727   8.605  23.719  0.1245  0.2901 -0.3878
12852OCT     C225704  15.317   8.453   0.022 -0.0451 -0.0933  0.2810
12853OCT     C125705  11.483   7.987  14.549  0.0125 -0.1852 -0.0755
12853OCT     C225706  11.414   8.345  14.737 -0.1008  0.0050 -0.4620
12854OCT     C125707   3.986  12.402  10.012 -0.5804 -0.3795  0.0061
12854OCT     C225708   4.089  12.280   9.601 -0.2423  0.5041  0.0031
12855OCT     C125709  23.552   8.802   3.460 -0.3196 -0.1042  0.0407
12855OCT     C225710  23.309   8.427   3.458 -0.2094  0.3787  0.0142
12856OCT     C125711  16.158  18.367  16.956 -0.2429  0.0235  0.0785
12856OCT     C225712  16.619  18.340  17.000  0.1783  0.0791 -0.0378
12857OCT     C125713  17.722   5.401   0.443 -0.1493  0.0143  0.0652
12857OCT     C225714  17.481   5.353   0.867  0.2592 -0.1034  0.1685
12858OCT     C125715  16.480   4.785   7.184 -0.0756 -0.1107  0.1716
12858OCT     C225716  16.683   5.083   7.448 -0.0188  0.1321  0.3647
12859OCT     C125717   9.253   6.393  18.610  0.3067 -0.6014  0.2666
12859OCT     C225718   9.222   6.130  18.972  0.1121  0.2614 -0.2979
12860OCT     C125719  18.277   3.251   6.751 -0.1866  0.1915 -0.0155
12860OCT     C225720  18.074   2.879   6.577  0.0469  0.1351  0.1304
12861OCT     C125721   1.127   3.353   1.820  0.4204 -0.1297 -0.1978
12861OCT     C225722   1.538   3.567   1.920 -0.0148  0.0153 -0.1502
12862OCT     C125723   0.761   5.830  16.597  0.3079 -0.1666 -0.1551
12862OCT     C225724   0.538   6.217  16.656 -0.3689  0.0179  0.1145
12863OCT     C125725  13.115  18.387  21.193 -0.0138  0.1142 -0.2116
12863OCT     C225726  13.007  18.683  21.464 -0.0437  0.0319  0.3952
12864OCT     C125727  15.811  16.710   7.968 -0.2194 -0.0523  0.2337
12864OCT     C225728  15.999  16.350   8.209  0.1687  0.1761 -0.2926
12865OCT     C125729  16.566   2.724   8.081  0.0404  0.1638 -0.2740
12865OCT     C225730  17.027   2.642   8.212  0.0847  0.0055 -0.0349
12866OCT     C125731  17.636  10.796   3.350 -0.0694 -0.3747  0.1622
12866OCT     C225732  18.055  10.713   3.528  0.0134  0.0300  0.0090
12867OCT     C125733   1.833   3.493   8.027  0.0184 -0.1734 -0.0820
12867OCT     C225734   2.018   3.621   7.610 -0.1078 -0.0156  0.0262
12868OCT     C125735  23.288  16.245  21.462 -0.2887 -0.1087  0.3075
12868OCT     C225736  23.260  16.505  21.861 -0.1389 -0.0468 -0.0416
12869OCT     C125737  18.421   4.623  19.588  0.1090 -0.1112  0.1699
12869OCT     C225738  18.371   5.041  19.362  0.1008 -0.0299  0.0301
12870OCT     C125739  18.460  10.828  15.264  0.2442 -0.1998 -0.6277
12870OCT     C225740  18.012  10.819  15.307 -0.0441  0.0116 -0.2402
12871OCT     C125741  21.700  16.175   3.277 -0.1943 -0.1424  0.2613
12871OCT     C225742  21.345  15.965   3.467 -0.2826  0.0276 -0.1370
12872OCT     C125743  18.439   4.617   7.601 -0.0725  0.3416 -0.0535
12872OCT     C225744  18.770   4.547   7.958 -0.1710 -0.2840  0.2504
12873OCT     C125745   1.241  14.143  12.297  0.2445  0.0586 -0.0877
12873OCT     C225746   1.547  14.477  12.077  0.3551 -0.1773  0.1274
12874OCT     C125747  20.319  20.780  10.093 -0.1158  0.1403 -0.0334
12874OCT     C225748  20.617  20.931   9.730  0.0006  0.2105 -0.0148
12875OCT     C125749  23.212  23.512  11.633 -0.0344  0.3546 -0.3295
12875OCT     C225750  22.821  23.234  11.592  0.3719  0.0227 -0.0365
12876OCT     C125751  17.337  10.069  15.808 -0.0290 -0.2323  0.1161
12876OCT     C225752  17.094  10.082  16.208  0.2877 -0.0003 -0.1276
12877OCT     C125753  22.195  12.422  19.819 -0.0457  0.0224  0.0183
12877OCT     C225754  22.262  12.620  20.307  0.0177 -0.0874 -0.1498
12878OCT     C125755  13.530   7.067   0.645  0.0552 -0.1845  0.0117
12878OCT     C225756  13.952   6.995   0.820 -0.2305  0.1520  0.2265
12879OCT     C125757   6.929  15.783  17.497  0.2014  0.2368  0.1980
12879OCT     C225758   6.585  15.534  17.711  0.0562  0.1687  0.0535
12880OCT     C125759  15.894  21.237  17.199  0.0004  0.4535 -0.0999
12880OCT     C225760  16.320  21.236  17.016  0.1218  0.2045  0.0666
12881OCT     C125761   3.979  13.259   8.708 -0.3731  0.1432 -0.0716
12881OCT     C225762   4.099  13.488   9.059 -0.0641  0.2195 -0.3692
12882OCT     C125763   1.036  16.354   7.830  0.2743  0.2730  0.0870
12882OCT     C225764   0.576  16.428   7.808  0.0004  0.0611  0.1460
12883OCT     C125765  18.771  18.707  18.799 -0.0179  0.4446  0.0314
12883OCT     C225766  18.476  18.333  18.760 -0.1333  0.1153 -0.3389
12884OCT     C125767  20.423   6.220   4.350 -0.2669 -0.2232 -0.1956
12884OCT     C225768  20.475   6.679   4.452 -0.3047 -0.2631  0.4696
12885OCT     C125769   4.214  14.452   4.394  0.2461  0.1304  0.0247
12885OCT     C225770   4.541  14.168   4.548 -0.0162 -0.0362  0.1599
12886OCT     C125771  23.706   1.665  12.213 -0.1050  0.1221 -0.2248
12886OCT     C225772   0.398   1.625  12.198 -0.2399  0.1444 -0.1997
12887OCT     C125773   1.146  21.180   7.124 -0.1284  0.1124 -0.0036
12887OCT     C225774   1.482  21.478   7.002  0.0044 -0.2404 -0.0538
12888OCT     C125775  14.048   5.106   7.336  0.1211 -0.0412  0.1037
12888OCT     C225776  13.864   4.775   7.621  0.0833  0.2364 -0.0075
12889OCT     C125777  16.774  14.702  10.159 -0.0012  0.2966  0.0579
12889OCT     C225778  16.364  14.678  10.460 -0.4334  0.0265 -0.3661
12890OCT     C125779   5.695   2.704   3.613  0.0883 -0.2010 -0.1896
12890OCT     C225780   5.720   3.144   3.485  0.0796 -0.3051  0.0694
12891OCT     C125781  16.127   8.238  19.993  0.0874 -0.1942 -0.1631
12891OCT     C225782  15.886   8.088  20.323 -0.1524  0.0708 -0.1454
12892OCT     C125783  13.998   8.411   2.690  0.2083 -0.2458 -0.0937
12892OCT     C225784  14.406   8.344   2.796 -0.2795 -0.2761 -0.1847
12893OCT     C125785   6.453   0.302  21.982 -0.2550 -0.0684 -0.2467
12893OCT     C225786   6.619   0.035  21.637 -0.0117 -0.1811 -0.3572
12894OCT     C125787  15.623  12.224  10.294  0.2647  0.1881 -0.2391
12894OCT     C225788  15.622  11.754  10.480 -0.3502 -0.0455  0.0361
12895OCT     C125789  22.564   8.207  11.528 -0.1478  0.0245 -0.0116
12895OCT     C225790  22.306   7.965  11.170  0.3847  0.1323  0.2014
12896OCT     C125791   4.603  12.319   8.326 -0.2616 -0.2996 -0.0627
12896OCT     C225792   4.966  12.245   8.043  0.0122  0.0342 -0.0014
12897OCT     C125793   2.263  14.674   5.756 -0.0024 -0.0108  0.2154
12897OCT     C225794   2.629  14.627   5.556 -0.1917 -0.1904 -0.3426
12898OCT     C125795   4.312   3.744  14.587  0.0115 -0.2658  0.0033
12898OCT     C225796   4.215   3.442  14.240  0.1098 -0.0672 -0.2096
12899OCT     C125797   1.495   5.459  15.713 -0.0389 -0.0786  0.3332
12899OCT     C225798   1.599   5.598  15.233  0.3201 -0.4416 -0.1977
12900OCT     C125799  12.041  10.840  14.653 -0.1243 -0.0265 -0.0558
12900OCT     C225800  11.885  10.802  14.209 -0.1214 -0.3635  0.1113
12901OCT     C125801   4.419   7.300   7.619 -0.1804 -0.0916  0.2526
12901OCT     C225802   4.456   7.779   7.736 -0.0509  0.1205  0.0625
12902OCT     C125803  21.525  13.634  19.278  0.1316  0.3071 -0.1897
12902OCT     C225804  21.986  13.683  19.335  0.0305  0.2188 -0.1317
12903OCT     C125805   4.416  14.610  10.121  0.2124 -0.0941 -0.1850
12903OCT     C225806   4.317  14.999  10.407 -0.2573  0.1588  0.1501
12904OCT     C125807  18.124   4.256  19.920  0.0183 -0.1480  0.5160
12904OCT     C225808  17.745   4.158  19.934  0.7591  0.0171 -0.2010
12905OCT     C125809  11.354  16.753  21.191 -0.3429  0.0413 -0.0917
12905OCT     C225810  11.002  16.863  21.447  0.0282  0.3202 -0.1320
12906OCT     C125811  22.007   4.133  14.381  0.1142  0.2152 -0.0557
12906OCT     C225812  22.434   4.051  14.351 -0.2339  0.0434 -0.3153
12907OCT     C125813  23.318   3.653  22.949 -0.1716 -0.1373  0.1047
12907OCT     C225814   0.024   3.862  23.002 -0.3051 -0.0567  0.0071
12908OCT     C125815  17.093  23.079   3.649  0.1866 -0.0119 -0.2646
12908OCT     C225816  16.737  23.259   3.416  0.2737 -0.2893 -0.0491
12909OCT     C125817   9.309   9.552  19.390 -0.0432 -0.1149  0.2150
12909OCT     C225818   9.031   9.222  19.586 -0.1377  0.1288 -0.1477
12910OCT     C125819  18.154  16.292   0.310 -0.0718 -0.4943  0.1825
12910OCT     C225820  17.741  16.306   0.433  0.0852 -0.3208 -0.0192
12911OCT     C125821  17.353  16.491   6.684 -0.5072  0.0987  0.0631
12911OCT     C225822  17.597  16.213   6.982 -0.2126 -0.3170  0.0098
12912OCT     C125823  11.598  23.197  11.115  0.3890 -0.1190  0.1973
12912OCT     C225824  12.036  23.027  11.111  0.0122  0.1207 -0.0585
12913OCT     C125825   2.752  16.082   7.669  0.3384 -0.1803 -0.0304
12913OCT     C225826   2.808  15.642   7.592 -0.2033 -0.5779  0.0322
12914OCT     C125827  11.084  14.050  12.989 -0.1391 -0.2433 -0.1551
12914OCT     C225828  11.481  13.871  13.233 -0.3246 -0.0185 -0.1441
12915OCT     C125829  22.106   5.831  20.087  0.0371  0.1409  0.2984
12915OCT     C225830  22.009   6.230  20.285 -0.0103 -0.1551  0.0351
12916OCT     C125831   0.145   3.505  22.377  0.0334  0.2617 -0.0815
12916OCT     C225832   0.324   3.921  22.373  0.1577  0.2986  0.1741
12917OCT     C125833  14.909   8.978   1.555  0.0683 -0.2711 -0.0355
12917OCT     C225834  14.807   8.490   1.629  0.4507  0.2561 -0.2021
12918OCT     C125835   3.503  18.457  19.777  0.4351 -0.1535 -0.0046
12918OCT     C225836   3.407  18.048  19.465  0.0082  0.0151  0.1127
12919OCT     C125837  22.192  18.623  20.745  0.1247 -0.3470 -0.0154
12919OCT     C225838  22.186  18.260  20.419 -0.3866 -0.1589 -0.1908
12920OCT     C125839  16.698   9.281  18.622 -0.1513 -0.1374 -0.3257
12920OCT     C225840  16.994   9.035  18.319 -0.1636 -0.1650 -0.0224
12921OCT     C125841   2.558   4.681  15.332 -0.0043 -0.0315  0.0501
12921OCT     C225842   2.151   4.616  15.517 -0.3258 -0.0658 -0.1670
12922OCT     C125843  22.264  22.006   5.477 -0.2551 -0.0719 -0.0357
12922OCT     C225844  22.415  21.717   5.780  0.2906  0.2395  0.2703
12923OCT     C125845   0.523   5.505  14.962 -0.2590 -0.1066  0.0116
12923OCT     C225846   0.066   5.574  14.880  0.1648  0.0613 -0.0144
12924OCT     C125847  10.739  17.205  20.973 -0.0884 -0.0253 -0.3054
12924OCT     C225848  10.654  17.216  21.423  0.1574  0.1750 -0.2344
12925OCT     C125849  12.197  14.142   1.709 -0.0306 -0.3302 -0.2483
12925OCT     C225850  12.278  13.702   1.607  0.2958  0.0204  0.4270
12926OCT     C125851   8.654  16.110  16.329 -0.2874  0.0810 -0.2116
12926OCT     C225852   8.708  16.310  15.864 -0.1138 -0.0693 -0.4262
12927OCT     C125853   7.841  15.203   1.712  0.0064 -0.0043 -0.1206
12927OCT     C225854   7.790  14.840   1.463 -0.1684 -0.0215  0.4576
12928OCT     C125855  11.605  22.195  11.501  0.4357 -0.2124  0.1898
12928OCT     C225856  11.811  22.205  11.039  0.3069 -0.3211 -0.1857
12929OCT     C125857   9.308  16.430   1.167  0.2927 -0.1331  0.0070
12929OCT     C225858   9.248  16.258   1.526 -0.1398 -0.0761  0.1609
12930OCT     C125859  18.552  16.160  12.584 -0.2231  0.0006 -0.2731
12930OCT     C225860  18.235  16.516  12.590  0.4405  0.2901  0.1515
12931OCT     C125861   6.240  20.062   1.114  0.2207 -0.1630 -0.2050
12931OCT     C225862   6.634  20.338   0.881 -0.0007 -0.0698 -0.3029
12932OCT     C125863   2.511  17.998  17.638  0.0709 -0.1595  0.0642
12932OCT     C225864   2.355  18.214  17.993 -0.2367  0.2403 -0.0465
12933OCT     C125865  13.332   3.140  14.046 -0.0760 -0.0541 -0.1249
12933OCT     C225866  12.916   2.910  13.855  0.0192  0.1840  0.0262
12934OCT     C125867  18.181   6.498  23.396  0.1021 -0.1355 -0.2560
12934OCT     C225868  17.850   6.521   0.011  0.0140  0.0796 -0.3663
12935OCT     C125869  19.965  13.193  14.208  0.0404 -0.0288 -0.0105
12935OCT     C225870  19.678  13.155  14.589  0.0255  0.4585 -0.0640
12936OCT     C125871  22.878  15.110  10.485 -0.2716  0.0404  0.2242
12936OCT     C225872  22.656  14.810  10.193  0.3424 -0.0463  0.1915
12937OCT     C125873  23.007  13.980  12.240 -0.0608  0.0094  0.2577
12937OCT     C225874  23.303  14.289  12.317 -0.1327 -0.1960 -0.1773
12938OCT     C125875   1.733  13.612   5.013  0.2391  0.1799 -0.2805
12938OCT     C225876   1.345  13.651   5.302  0.0443  0.0306 -0.2607
12939OCT     C125877   2.875   4.744  16.162 -0.3599 -0.0832 -0.0042
12939OCT     C225878   3.095   5.040  15.831 -0.0241 -0.1592  0.2626
12940OCT     C125879  22.910   6.936  20.864  0.0763 -0.0607  0.0090
12940OCT     C225880  22.610   7.018  21.167 -0.2389 -0.0624 -0.0432
12941OCT     C125881  13.816   3.932  21.168 -0.2546  0.1485 -0.0192
12941OCT     C225882  13.456   3.649  21.279 -0.5471  0.0041  0.3885
12942OCT     C125883  21.158  19.502  12.451  0.2182 -0.0114  0.0246
12942OCT     C225884  21.414  19.697  12.822  0.0111 -0.0433  0.3489
12943OCT     C125885  18.472  23.535  22.908  0.0126 -0.1403  0.0752
12943OCT     C225886  18.348   0.145  22.646 -0.2801  0.3365  0.1411
12944OCT     C125887  14.408  11.143  12.631  0.0034 -0.0232  0.2796
12944OCT     C225888  14.502  10.748  12.419 -0.1103 -0.1159  0.1102
12945OCT     C125889  21.535  13.923   7.408 -0.2589 -0.1471  0.2020
12945OCT     C225890  21.108  13.974   7.267  0.2623 -0.2054  0.1680
12946OCT     C125891  19.665  13.909  20.784 -0.1436 -0.2369  0.0473
12946OCT     C225892  19.356  13.572  20.952 -0.0215 -0.3214  0.1535
12947OCT     C125893  20.792   7.645  16.014  0.0801 -0.2274  0.1614
12947OCT     C225894  20.720   8.061  15.823 -0.0382 -0.2383 -0.1831
12948OCT     C125895  16.026  11.311   7.570 -0.2260 -0.1827 -0.2448
12948OCT     C225896  16.142  10.876   7.434 -0.3139  0.0660 -0.0708
12949OCT     C125897  22.165   6.218  12.259  0.1471 -0.1701 -0.2831
12949OCT     C225898  22.397   6.255  11.827  0.0751  0.4342 -0.1218
12950OCT     C125899  23.456  23.252   4.904 -0.1491  0.3758  0.2710
12950OCT     C225900  23.021  23.237   5.032 -0.3949  0.3965 -0.0827
12951OCT     C125901  19.594  12.155  20.869 -0.1234  0.4719 -0.0860
12951OCT     C225902  19.940  11.863  20.898 -0.0852  0.3529 -0.2039
12952OCT     C125903  21.308   4.101  12.689 -0.3538  0.3092 -0.0339
12952OCT     C225904  21.076   4.036  13.085  0.0911  0.0318 -0.0119
12953OCT     C125905   3.754   0.763  15.239  0.0241  0.0584  0.0410
12953OCT     C225906   3.403   0.673  14.966  0.0577  0.4154 -0.1253
12954OCT     C125907   7.034  20.799   0.842 -0.0165 -0.0507  0.1619
12954OCT     C225908   7.080  20.873   1.216 -0.1126 -0.0098  0.2424
12955OCT     C125909  16.878  21.740  18.997 -0.0237 -0.1250 -0.1625
12955OCT     C225910  17.132  21.495  18.746  0.2302  0.1260 -0.1649
12956OCT     C125911  12.372   8.487   1.985 -0.3078  0.1016  0.1147
12956OCT     C225912  12.726   8.173   1.965 -0.4395  0.2054  0.0589
12957OCT     C125913  17.462   0.018  20.084  0.2773  0.0165  0.3380
12957OCT     C225914  17.355   0.369  20.416 -0.0282  0.2609 -0.1418
12958OCT     C125915   2.487   2.436   4.306 -0.3808  0.3426 -0.2944
12958OCT     C225916   2.765   2.582   3.961 -0.0418 -0.0382 -0.0327
12959OCT     C125917  18.904  22.326   0.131  0.1799 -0.0454  0.2758
12959OCT     C225918  18.990  21.842   0.196 -0.2359  0.1953  0.1852
12960OCT     C125919   7.380  15.893   8.148 -0.0780 -0.2563 -0.3560
12960OCT     C225920   7.299  15.955   7.686 -0.3037  0.1844  0.3554
12961OCT     C125921  19.669   4.842   6.952  0.3888  0.0078  0.0814
12961OCT     C225922  19.425   4.487   6.791 -0.1783 -0.3473 -0.0281
12962OCT     C125923   6.563  21.155  20.546 -0.1469  0.2464  0.1471
12962OCT     C225924   6.572  21.628  20.503 -0.4949 -0.2801 -0.0628
12963OCT     C125925   1.498  17.605  14.443 -0.0635  0.3871  0.0051
12963OCT     C225926   1.607  17.171  14.300  0.4235  0.4566  0.1518
12964OCT     C125927   0.485  11.872  20.166  0.0036  0.2343  0.0697
12964OCT     C225928   0.089  12.117  19.987 -0.3653  0.0378  0.4735
12965OCT     C125929   5.824   9.258  14.510 -0.2132 -0.3085  0.6731
12965OCT     C225930   5.972   8.943  14.276 -0.1230  0.4138 -0.0102
12966OCT     C125931  16.776  16.224  12.543 -0.3806 -0.0061  0.1245
12966OCT     C225932  16.815  16.638  12.764 -0.3264  0.1068 -0.0352
12967OCT     C125933  22.925   1.543  15.751 -0.3220  0.0847  0.4417
12967OCT     C225934  23.322   1.710  15.910 -0.0478 -0.2486  0.1228
12968OCT     C125935   3.039  13.236   9.459 -0.3127 -0.2610 -0.0278
12968OCT     C225936   3.285  12.981   9.757  0.1110 -0.1293  0.0892
12969OCT     C125937  17.375   7.240  14.388 -0.3083 -0.3061  0.1599
12969OCT     C225938  17.573   6.839  14.671  0.2965 -0.3974 -0.0692
12970OCT     C125939   8.696  20.739  10.598 -0.2584  0.0294 -0.0214
12970OCT     C225940   8.626  20.744  10.161  0.4308  0.2646  0.0506
12971OCT     C125941  10.292   6.691  13.406  0.2072 -0.0006 -0.6073
12971OCT     C225942  10.742   6.871  13.411 -0.2478  0.1289  0.1847
12972OCT     C125943  16.783  13.038  11.066 -0.1287 -0.2122 -0.2912
12972OCT     C225944  16.714  12.926  10.603  0.1338 -0.4376  0.1874
12973OCT     C125945  20.468   8.070   3.001  0.0230  0.0180  0.0564
12973OCT     C225946  20.746   8.291   3.235 -0.0452 -0.4368 -0.2322
12974OCT     C125947  12.552   4.644   6.707 -0.1271  0.0678 -0.0035
12974OCT     C225948  12.926   4.506   6.908  0.0569  0.1604 -0.0538
12975OCT     C125949  14.121  15.843  21.033 -0.0912  0.0993 -0.0494
12975OCT     C225950  14.152  15.579  20.662  0.0096 -0.0549  0.2028
12976OCT     C125951  14.599   1.858  15.838  0.1936  0.1365 -0.1315
12976OCT     C225952  14.501   2.261  15.635 -0.1252 -0.2432  0.1706
12977OCT     C125953   4.909  14.020   8.118  0.0424  0.2075  0.2148
12977OCT     C225954   5.399  14.038   8.049  0.3981  0.3621 -0.0379
12978OCT     C125955   3.002   0.186   2.108  0.0470 -0.5786 -0.4160
12978OCT     C225956   2.804   0.124   2.509  0.1248 -0.1077 -0.2859
12979OCT     C125957   9.910   5.934   5.104  0.0687 -0.0774  0.2537
12979OCT     C225958  10.343   5.823   5.022 -0.2914  0.1927  0.1157
12980OCT     C125959   2.752  10.856  23.029 -0.3199 -0.0824 -0.3476
12980OCT     C225960   2.425  10.954  23.340 -0.0436 -0.1631 -0.2259
12981OCT     C125961   2.008   5.110  11.531  0.1834  0.0213 -0.0638
12981OCT     C225962   1.744   4.765  11.408  0.2039 -0.0758  0.0729
12982OCT     C125963   8.981  21.443  15.396 -0.0421  0.3055  0.2715
12982OCT     C225964   9.299  21.607  15.683 -0.0302 -0.1697 -0.2462
12983OCT     C125965   3.273  14.889  11.003 -0.2193  0.0767  0.0624
12983OCT     C225966   3.567  14.916  11.325 -0.2563 -0.0444 -0.3410
12984OCT     C125967   5.100  19.423   9.145  0.0850  0.0448 -0.3145
12984OCT     C225968   4.813  19.785   9.035  0.3721 -0.2817 -0.1530
12985OCT     C125969  10.720   5.607  10.731  0.0746  0.2843 -0.0974
12985OCT     C225970  11.054   5.323  10.960 -0.0016 -0.0864 -0.0276
12986OCT     C125971  14.280  14.103  15.214  0.0084 -0.3976 -0.4090
12986OCT     C225972  13.837  14.092  15.393 -0.2367 -0.0698  0.2687
12987OCT     C125973   4.347   3.119  19.822  0.0093  0.0302  0.1604
12987OCT     C225974   4.680   3.287  19.529 -0.2033 -0.3057 -0.0683
12988OCT     C125975  23.375  15.560   1.956 -0.0291 -0.1579 -0.2190
12988OCT     C225976  23.415  15.255   2.250  0.3437  0.6925  0.0538
12989OCT     C125977   0.347  22.224   0.222 -0.0806 -0.1863 -0.2621
12989OCT     C225978   0.579  22.590   0.115  0.2338 -0.3441 -0.2882
12990OCT     C125979  14.451  20.879  23.501 -0.1921  0.1173 -0.0614
12990OCT     C225980  14.720  21.161  23.251  0.0762 -0.4396 -0.0564
12991OCT     C125981   7.115   1.409   0.107  0.0037 -0.2329  0.0360
12991OCT     C225982   7.516   1.510  23.595 -0.0746  0.1739 -0.0443
12992OCT     C125983   1.429   7.457  10.264 -0.1151  0.2158 -0.1397
12992OCT     C225984   1.215   7.281  10.637  0.1231  0.1083 -0.2507
12993OCT     C125985  17.865   4.807  20.830 -0.0793 -0.1128  0.3017
12993OCT     C225986  18.116   4.833  21.236 -0.1153  0.1230  0.3107
12994OCT     C125987  10.035  12.760   7.062 -0.5732  0.1925  0.2077
12994OCT     C225988  10.205  12.956   7.481  0.0911 -0.2519  0.0154
12995OCT     C125989   6.449  22.800   2.537 -0.2640  0.0059  0.0547
12995OCT     C225990   6.064  22.761   2.816 -0.1346 -0.1467 -0.0406
12996OCT     C125991  16.149  14.488  17.542  0.2998 -0.0570  0.0264
12996OCT     C225992  15.894  14.665  17.929 -0.0693  0.0736  0.2558
12997OCT     C125993  17.713   6.254  23.311 -0.1812  0.2203  0.3129
12997OCT     C225994  17.335   6.166  23.562  0.5288 -0.2367  0.0282
12998OCT     C125995  16.063  21.482   1.116 -0.3380 -0.0158  0.0789
12998OCT     C225996  16.020  21.085   0.959  0.1789  0.1065 -0.1746
12999OCT     C125997   0.871  14.774   6.280 -0.0334 -0.3073  0.2321
12999OCT     C225998   0.465  14.756   6.014 -0.2050  0.1760  0.1585
13000OCT     C125999  18.510   2.161  23.663 -0.2788 -0.0431  0.2800
13000OCT     C226000  18.603   1.705  23.667 -0.1216 -0.1845  0.0340
13001OCT     C126001  19.892   6.199   6.171 -0.1863 -0.0591 -0.1261
13001OCT     C226002  19.563   6.043   6.434  0.2432 -0.0852 -0.2871
13002OCT     C126003   5.499  13.458  23.505  0.3947 -0.1988 -0.3373
13002OCT     C226004   5.535  13.059  23.417 -0.0308  0.1151  0.3565
13003OCT     C126005   9.522  17.838   1.482 -0.3181  0.0162 -0.1778
13003OCT     C226006   9.888  18.049   1.487  0.1332  0.1607  0.2065
13004OCT     C126007  21.364   3.196   8.682  0.0958  0.4479 -0.0999
13004OCT     C226008  21.484   2.797   8.963  0.0067  0.0311  0.1100
13005OCT     C126009  13.836  20.712   5.207 -0.2491  0.5783 -0.3168
13005OCT     C226010  14.182  20.996   5.063 -0.0787 -0.1077 -0.1321
13006OCT     C126011   5.562  19.002  22.622  0.0297  0.0822 -0.6344
13006OCT     C226012   5.222  19.267  22.762  0.5592  0.0857 -0.3508
13007OCT     C126013   7.098   5.567  21.061 -0.0450 -0.0958  0.0976
13007OCT     C226014   7.041   5.232  20.704 -0.0713 -0.2613 -0.0228
13008OCT     C126015  23.693  10.236  15.265 -0.0334 -0.1193  0.0822
13008OCT     C226016   0.054   9.889  14.936  0.2889 -0.0258  0.0783
13009OCT     C126017   8.838  14.344   5.326 -0.1157  0.0179  0.1059
13009OCT     C226018   9.196  14.181   5.557  0.0109 -0.3138  0.1268
13010OCT     C126019  13.420  23.740  20.236  0.0427 -0.1495  0.1968
13010OCT     C226020  12.969   0.139  20.219 -0.1302  0.0620  0.2312
13011OCT     C126021  21.474   4.148   2.009  0.1502 -0.0203  0.0572
13011OCT     C226022  21.650   4.607   1.888  0.2495  0.0048 -0.2620
13012OCT     C126023  14.187   7.324   7.802 -0.1119 -0.1757  0.2289
13012OCT     C226024  14.229   7.749   7.626 -0.0998  0.1330  0.0387
13013OCT     C126025  11.956  14.373   1.384  0.0606 -0.2501  0.2159
13013OCT     C226026  12.157  14.712   1.220 -0.4681  0.1233 -0.3785
13014OCT     C126027  11.060   3.184   6.674  0.0875  0.1555  0.2147
13014OCT     C226028  10.637   2.964   6.793  0.0907 -0.1569 -0.0961
13015OCT     C126029  12.079   5.830   8.731  0.1807  0.1922  0.0725
13015OCT     C226030  11.897   5.331   8.703 -0.0474 -0.3828  0.0063
13016OCT     C126031  21.513   4.602  19.785  0.1456 -0.2306 -0.2070
13016OCT     C226032  21.395   4.665  20.245 -0.3190 -0.1162  0.1495
13017OCT     C126033  11.935  16.069   8.697  0.1110 -0.1038 -0.1051
13017OCT     C226034  11.789  16.189   9.131 -0.4255  0.1525 -0.3260
13018OCT     C126035   3.711   1.845  18.768  0.0447 -0.2468  0.0239
13018OCT     C226036   3.758   1.465  18.505  0.2432  0.1621 -0.1813
13019OCT     C126037  19.361   4.685  18.844  0.0274  0.1143  0.0715
13019OCT     C226038  19.332   4.519  19.299  0.1887  0.1084  0.1466
13020OCT     C126039   9.011  23.139   5.196  0.0964  0.0621  0.3827
13020OCT     C226040   8.555  23.059   5.259 -0.2059 -0.1828  0.2006
13021OCT     C126041   8.609  19.319  19.579  0.1621 -0.1961 -0.0333
13021OCT     C226042   8.674  19.755  19.614 -0.2310 -0.0895 -0.1490
13022OCT     C126043   2.303  17.079   1.905  0.0349 -0.3571  0.2862
13022OCT     C226044   2.639  17.152   1.578 -0.0522  0.2174  0.5078
13023OCT     C126045  10.738   9.150  21.031 -0.3633  0.6259  0.0156
13023OCT     C226046  10.506   8.728  21.002  0.1311  0.1483 -0.0685
13024OCT     C126047   3.945  14.591  15.671 -0.0588 -0.1131 -0.0822
13024OCT     C226048   3.905  14.365  16.107  0.0073  0.0164 -0.0003
13025OCT     C126049   7.103   9.720  19.156 -0.3692 -0.1486 -0.1737
13025OCT     C226050   7.253  10.083  18.892  0.2285  0.1819 -0.0102
13026OCT     C126051   4.204  22.662   4.911 -0.0406 -0.2558  0.1585
13026OCT     C226052   4.648  22.438   4.904  0.2395  0.3228  0.3792
13027OCT     C126053  13.070   8.870   4.533  0.3467  0.0089  0.0289
13027OCT     C226054  13.238   8.545   4.216  0.0239  0.0762 -0.1406
13028OCT     C126055   4.994   5.912  12.333  0.3390  0.0808  0.1049
13028OCT     C226056   4.529   5.919  12.239 -0.1572  0.2984 -0.0320
13029OCT     C126057   2.512  10.173   8.780  0.1067 -0.1383 -0.0943
13029OCT     C226058   2.491   9.773   8.548  0.2446 -0.1010 -0.0990
13030OCT     C126059  18.794  13.451  11.605  0.4142  0.1259 -0.3996
13030OCT     C226060  18.428  13.678  11.629 -0.0444 -0.1636  0.2548
13031OCT     C126061   6.574   7.329  19.269  0.1100  0.1928 -0.2144
13031OCT     C226062   6.721   7.831  19.278 -0.0615 -0.0822 -0.0686
13032OCT     C126063  17.140  13.973   0.130 -0.1132 -0.1530 -0.4403
13032OCT     C226064  16.837  13.746  23.544 -0.1907  0.4537  0.0344
13033OCT     C126065  22.703  11.877  16.557  0.2620  0.0384  0.3672
13033OCT     C226066  23.138  12.013  16.402 -0.3227  0.0258 -0.4503
13034OCT     C126067   7.192  16.394   1.090  0.0566  0.3468 -0.1460
13034OCT     C226068   6.766  16.462   1.121 -0.1353  0.1231  0.1702
13035OCT     C126069  12.363  13.740  21.751  0.0281  0.0419  0.3926
13035OCT     C226070  12.587  13.398  21.946  0.0653 -0.0179  0.2179
13036OCT     C126071  18.406  14.173  15.950 -0.0049  0.0732  0.0116
13036OCT     C226072  18.308  14.097  15.517  0.1331  0.1939  0.1132
13037OCT     C126073   9.755  11.220  15.905  0.2709 -0.1243  0.3304
13037OCT     C226074   9.456  11.279  16.260 -0.0674  0.2003 -0.2914
13038OCT     C126075  15.221   8.685  15.477  0.0323  0.4044  0.0418
13038OCT     C226076  15.538   8.670  15.064 -0.2156  0.0089 -0.0301
13039OCT     C126077   3.980  11.388   9.087  0.1033 -0.2003 -0.0908
13039OCT     C226078   4.346  11.311   8.853  0.0381 -0.0896  0.1591
13040OCT     C126079  14.439   4.946  20.540 -0.0313  0.0889  0.1125
13040OCT     C226080  14.340   5.380  20.441  0.1729  0.2662  0.0307
13041OCT     C126081  20.648   1.610  17.518 -0.3616  0.0512 -0.2313
13041OCT     C226082  20.485   1.910  17.176 -0.0208  0.2022 -0.0941
13042OCT     C126083   9.732  18.927  19.306 -0.1720  0.1299  0.3126
13042OCT     C226084  10.083  18.754  19.512  0.1911 -0.1105 -0.0320
13043OCT     C126085  14.455  12.656   9.822  0.1610 -0.3592  0.0101
13043OCT     C226086  14.434  12.763   9.361  0.1072 -0.0180  0.3438
13044OCT     C126087  18.963  22.000   9.362  0.0182 -0.1785 -0.3142
13044OCT     C226088  19.117  21.688   9.047  0.0337 -0.1997 -0.1339
13045OCT     C126089   7.307   9.374  13.501  0.3644  0.2932 -0.0047
13045OCT     C226090   7.249   9.449  13.947  0.0204  0.2426 -0.1766
13046OCT     C126091   9.643  19.339  16.038 -0.0840  0.0986  0.2400
13046OCT     C226092   9.750  19.542  16.439  0.1359 -0.0361  0.2712
13047OCT     C126093  22.287  19.517  10.228 -0.1478 -0.0988  0.0592
13047OCT     C226094  22.203  19.994  10.105 -0.1638 -0.2583 -0.1168
13048OCT     C126095  21.903   8.555   7.778 -0.0567  0.0236 -0.0482
13048OCT     C226096  21.576   8.257   7.535 -0.0869 -0.0731  0.0413
13049OCT     C126097  10.828  13.367   6.211  0.1657 -0.1071 -0.2379
13049OCT     C226098  11.031  13.555   5.828  0.0207 -0.0511 -0.2568
13050OCT     C126099  21.376  16.309  12.948  0.1495  0.2696 -0.1151
13050OCT     C226100  21.762  16.309  13.187 -0.1864  0.5025  0.0896
13051OCT     C126101   1.992   4.784   5.767 -0.0252 -0.2914  0.1567
13051OCT     C226102   1.928   5.119   6.117 -0.3462  0.2321  0.0579
13052OCT     C126103   4.614  18.855   5.267  0.3301 -0.0698 -0.2084
13052OCT     C226104   4.910  19.202   5.166 -0.1123  0.0337 -0.0705
13053OCT     C126105   2.673  18.955  12.434 -0.1611  0.2382 -0.2586
13053OCT     C226106   2.452  19.031  11.991 -0.1672  0.1571  0.0008
13054OCT     C126107  18.593  13.105   5.151 -0.0827 -0.0598  0.0495
13054OCT     C226108  18.222  12.806   5.321 -0.1652 -0.3082  0.0824
13055OCT     C126109  16.811   2.870   9.804  0.1531  0.1850 -0.3022
13055OCT     C226110  17.067   2.727  10.126  0.3471  0.2447  0.2039
13056OCT     C126111  13.459  11.083  23.153  0.2873  0.1203  0.0540
13056OCT     C226112  13.434  11.531  23.017  0.3662  0.0639  0.3146
13057OCT     C126113  22.333  17.373  16.012  0.1020  0.1200  0.1081
13057OCT     C226114  22.470  17.708  16.258  0.1922 -0.2035  0.0168
13058OCT     C126115  19.267   8.300   5.307  0.1102 -0.1654 -0.0399
13058OCT     C226116  19.213   8.330   5.745 -0.0731 -0.0382 -0.0196
13059OCT     C126117   9.181  17.693  17.618  0.1448  0.1346  0.1089
13059OCT     C226118   8.835  17.869  17.826  0.4765  0.1622 -0.0013
13060OCT     C126119   1.306  17.098   4.994 -0.3155  0.0663  0.2587
13060OCT     C226120   0.803  17.192   4.926  0.2165 -0.1714 -0.2230
13061OCT     C126121   8.270  16.553   4.090 -0.3025  0.2407 -0.1333
13061OCT     C226122   7.845  16.323   3.989  0.5422 -0.0423 -0.0636
13062OCT     C126123  17.845  16.082   8.143 -0.1856 -0.0924 -0.0268
13062OCT     C226124  17.465  15.758   8.314  0.1948 -0.1850  0.0462
13063OCT     C126125  23.628  22.242   0.525 -0.0591  0.0774  0.5423
13063OCT     C226126  23.662  22.588   0.227 -0.0095  0.0874 -0.2675
13064OCT     C126127   3.934  15.340  16.500  0.2329 -0.0825  0.1180
13064OCT     C226128   3.512  15.455  16.311  0.1219 -0.0930  0.3300
13065OCT     C126129   8.141  14.896  11.866  0.0120 -0.0106  0.5038
13065OCT     C226130   8.438  14.683  12.164  0.1624  0.0270 -0.0774
13066OCT     C126131   9.809  19.756   7.825  0.0436  0.2748  0.0553
13066OCT     C226132   9.605  20.154   7.732  0.3022  0.3246 -0.1857
13067OCT     C126133   8.034  22.829  14.047  0.2088 -0.1595 -0.1347
13067OCT     C226134   8.405  22.535  13.901  0.5540 -0.2256  0.2332
13068OCT     C126135  16.348  15.719  17.175  0.4160  0.2634 -0.2819
13068OCT     C226136  16.508  15.865  16.782 -0.3793  0.1605  0.0203
13069OCT     C126137   7.414  23.157  21.058  0.5685  0.0217 -0.0927
13069OCT     C226138   7.217  22.706  21.025 -0.1331  0.2298  0.4888
13070OCT     C126139   8.953  14.112   0.807 -0.1230  0.0425  0.5885
13070OCT     C226140   8.867  13.989   1.287 -0.3451 -0.1375 -0.4487
13071OCT     C126141  12.930  23.633  16.115 -0.0072  0.0951 -0.0305
13071OCT     C226142  13.218   0.083  15.804 -0.0137 -0.0200 -0.0962
13072OCT     C126143   7.088  10.495  17.138  0.1345 -0.1719 -0.0919
13072OCT     C226144   6.797  10.724  16.912  0.1448 -0.2172  0.0279
13073OCT     C126145  17.790   0.478  17.455  0.4063  0.0499  0.0113
13073OCT     C226146  17.928   0.176  17.806  0.0510 -0.0250  0.1052
13074OCT     C126147  12.012  15.165  11.950  0.1382  0.1883  0.2034
13074OCT     C226148  11.764  14.787  11.886 -0.0015  0.0194  0.0033
13075OCT     C126149   9.124  20.749  10.886 -0.1358  0.0284 -0.0714
13075OCT     C226150   9.327  20.271  10.789  0.1678  0.0053  0.1384
13076OCT     C126151  18.138  10.026  13.493  0.0080 -0.1987  0.1303
13076OCT     C226152  17.922   9.838  13.123 -0.0946 -0.2394 -0.3402
13077OCT     C126153  12.207  20.345   1.280  0.1731  0.0948  0.2151
13077OCT     C226154  12.228  19.901   1.225  0.0056 -0.3173 -0.1516
13078OCT     C126155  22.668  15.214   1.065  0.0148  0.2272  0.0644
13078OCT     C226156  22.720  15.514   0.745  0.1734  0.1043  0.3088
13079OCT     C126157  18.563   6.117  17.039 -0.0979 -0.2554  0.0914
13079OCT     C226158  18.833   5.862  16.745 -0.2175 -0.1232  0.0651
13080OCT     C126159  17.784  23.034   2.326 -0.4751  0.1544  0.3725
13080OCT     C226160  17.981  23.222   1.917 -0.0743  0.0675 -0.2945
13081OCT     C126161  15.107   1.162   4.763  0.1957  0.0336  0.0614
13081OCT     C226162  14.804   0.849   4.980 -0.3282  0.1426 -0.0193
13082OCT     C126163  11.521   9.684   7.966 -0.0849  0.1676  0.0975
13082OCT     C226164  11.974   9.794   7.952  0.4640 -0.2318 -0.0856
13083OCT     C126165   9.754   4.802   7.802  0.1197 -0.4090  0.1940
13083OCT     C226166  10.169   4.946   8.005 -0.0028 -0.1904  0.1085
13084OCT     C126167   9.015   9.720  18.272  0.0711  0.0707 -0.3135
13084OCT     C226168   9.064   9.972  18.656  0.1744 -0.0593 -0.0899
13085OCT     C126169  13.737  23.167  16.544  0.2109 -0.0495  0.0381
13085OCT     C226170  13.605  22.759  16.629  0.1151  0.0966  0.2241
13086OCT     C126171  17.693   9.766   5.683 -0.0721  0.4100  0.1428
13086OCT     C226172  17.484  10.143   5.726  0.1883 -0.3614 -0.1998
13087OCT     C126173  13.849   2.103  14.782 -0.0267  0.2526  0.2862
13087OCT     C226174  13.891   1.775  15.137 -0.0312 -0.2784  0.2837
13088OCT     C126175   9.608   3.843  13.838 -0.3423  0.3089 -0.1720
13088OCT     C226176   9.184   4.067  13.813  0.0482 -0.0545 -0.2214
13089OCT     C126177   1.995   1.878  19.234  0.3595  0.2387 -0.1813
13089OCT     C226178   2.435   1.954  19.317 -0.0874  0.2483  0.2049
13090OCT     C126179   0.750   3.838   6.352 -0.0689  0.2015  0.4648
13090OCT     C226180   0.656   3.997   5.933  0.0127  0.1297  0.0367
13091OCT     C126181  16.000  10.347  10.152 -0.0794  0.0621  0.3379
13091OCT     C226182  15.705  10.319  10.513 -0.1189 -0.0522  0.2422
13092OCT     C126183  22.587   7.821   6.944 -0.2884 -0.1492 -0.2529
13092OCT     C226184  22.478   7.678   6.448 -0.0545  0.1583 -0.1723
13093OCT     C126185   7.632   0.079  17.226  0.2452  0.0942 -0.1150
13093OCT     C226186   7.865  23.497  16.965  0.2303  0.1306 -0.0654
13094OCT     C126187  17.217   3.031  16.822 -0.2389  0.2819  0.0560
13094OCT     C226188  17.483   3.369  16.736 -0.2693 -0.1491 -0.1705
13095OCT     C126189  17.239  17.918  23.200  0.0770  0.0426  0.1662
13095OCT     C226190  17.151  18.122  23.558  0.0167  0.2418  0.1972
13096OCT     C126191  11.187   1.387  23.200 -0.1661 -0.0270 -0.0329
13096OCT     C226192  11.569   1.596  22.984  0.1958  0.1091  0.2031
13097OCT     C126193  10.050  23.415   8.298 -0.2365  0.2256 -0.0994
13097OCT     C226194   9.846  23.588   8.721 -0.0421  0.2499 -0.1196
13098OCT     C126195  19.007  10.305  23.014 -0.0771 -0.0188 -0.3459
13098OCT     C226196  18.940  10.665  22.738 -0.0087 -0.0188  0.2168
13099OCT     C126197   2.378   6.812   9.338  0.1377 -0.0013 -0.1120
13099OCT     C226198   2.248   6.904   9.758  0.4647  0.6695  0.0319
13100OCT     C126199  15.326   4.399   4.587 -0.1961 -0.4505 -0.1975
13100OCT     C226200  15.690   4.161   4.698  0.1603  0.3261  0.3539
13101OCT     C126201   8.881   0.536  19.898 -0.2795 -0.4027 -0.4245
13101OCT     C226202   8.619   0.907  19.715 -0.0311 -0.1892 -0.2157
13102OCT     C126203  15.920   5.037  16.596 -0.0982  0.1215  0.0748
13102OCT     C226204  16.074   5.477  16.475  0.2223  0.4631  0.0375
13103OCT     C126205   3.581  17.427   5.012  0.0548  0.0812  0.2455
13103OCT     C226206   3.325  17.301   4.611  0.1220  0.0261  0.0567
13104OCT     C126207  12.614  12.367   5.091  0.0568 -0.1904 -0.2235
13104OCT     C226208  12.952  12.026   4.929 -0.0279  0.1674 -0.0743
13105OCT     C126209  11.693   2.350  12.916 -0.0350  0.0137  0.0021
13105OCT     C226210  12.079   2.094  12.884 -0.2092 -0.3894 -0.0559
13106OCT     C126211   3.232   6.100  13.251  0.0062  0.1488  0.2752
13106OCT     C226212   2.875   5.974  12.922  0.0242  0.0897 -0.1517
13107OCT     C126213   9.606   4.064  16.273 -0.1918  0.0879 -0.2253
13107OCT     C226214   9.634   3.803  15.884 -0.0233  0.0290 -0.1774
13108OCT     C126215   4.375  16.828   0.352 -0.1892 -0.0693  0.0403
13108OCT     C226216   4.284  16.649   0.755  0.3461 -0.2005  0.2456
13109OCT     C126217   7.909   1.762  16.692  0.4010 -0.1841 -0.1304
13109OCT     C226218   7.493   1.731  16.720 -0.3664 -0.0020  0.2915
13110OCT     C126219  13.479   0.278   0.733  0.1905  0.2968 -0.4257
13110OCT     C226220  13.229   0.062   1.037 -0.0879 -0.2014 -0.0731
13111OCT     C126221  13.835  15.553  18.571 -0.0187 -0.2374  0.3426
13111OCT     C226222  13.395  15.532  18.710  0.3362 -0.1590 -0.1519
13112OCT     C126223  17.251   5.336   8.861  0.1321 -0.0552  0.0079
13112OCT     C226224  17.526   5.607   8.555  0.3569  0.2147  0.1905
13113OCT     C126225  23.067  19.086  23.339 -0.0061 -0.0485  0.0502
13113OCT     C226226  23.157  19.042  22.863 -0.2045 -0.0930  0.0397
13114OCT     C126227  14.654   4.762   1.246  0.3296  0.3199 -0.0478
13114OCT     C226228  15.083   4.836   1.420  0.1592  0.1939  0.0892
13115OCT     C126229   8.716  17.138   4.777 -0.3568 -0.1650  0.0234
13115OCT     C226230   9.010  17.420   5.013  0.2092 -0.1104  0.3364
13116OCT     C126231  21.845  19.537  13.351 -0.0203 -0.2334  0.4377
13116OCT     C226232  22.220  19.816  13.417 -0.1692 -0.3070  0.2889
13117OCT     C126233  20.658   5.227  12.322 -0.3200  0.4836 -0.1709
13117OCT     C226234  20.882   5.071  11.965  0.1140  0.0221 -0.0676
13118OCT     C126235  22.663  16.243  10.456  0.4186  0.0386 -0.0953
13118OCT     C226236  23.058  16.019  10.367  0.2657 -0.1267 -0.1759
13119OCT     C126237  19.722   2.098   2.444  0.1423  0.0927  0.1020
13119OCT     C226238  19.743   1.999   1.920  0.2223 -0.4284 -0.4326
13120OCT     C126239  10.362   8.053   8.315 -0.1809 -0.4732  0.0607
13120OCT     C226240  10.488   7.707   8.614  0.2417 -0.1267  0.1284
13121OCT     C126241  20.199  22.687  17.149 -0.0678  0.0283 -0.1209
13121OCT     C226242  20.561  22.468  17.102  0.0074 -0.0633  0.0959
13122OCT     C126243  13.829  16.916  16.679 -0.3039 -0.0432 -0.0768
13122OCT     C226244  13.633  16.876  17.084 -0.1441  0.3905 -0.0402
13123OCT     C126245  22.293   0.328   0.616  0.0543  0.2149  0.0944
13123OCT     C226246  21.983   0.336   0.962  0.0358 -0.0104  0.0694
13124OCT     C126247  16.080   4.035   3.852  0.1024 -0.0564 -0.1414
13124OCT     C226248  15.951   4.489   3.843 -0.0902 -0.0178  0.1793
13125OCT     C126249   2.422   4.314  10.076 -0.2933 -0.0054  0.1279
13125OCT     C226250   2.740   4.087   9.766 -0.0465 -0.0204 -0.1620
13126OCT     C126251  13.762  12.293   3.780 -0.0692  0.1383 -0.3418
13126OCT     C226252  13.303  12.213   3.856 -0.0156  0.2831 -0.4452
13127OCT     C126253  13.490  17.423  19.231  0.2943  0.3987 -0.1035
13127OCT     C226254  13.871  17.423  18.924 -0.0665  0.1032  0.0152
13128OCT     C126255   8.698   6.904   7.341  0.2055  0.4205  0.0938
13128OCT     C226256   8.617   6.774   6.974  0.0242  0.1065 -0.2175
13129OCT     C126257  14.756   1.400  21.091 -0.0453  0.0351 -0.0215
13129OCT     C226258  14.418   1.678  20.954  0.2773  0.0087 -0.0341
13130OCT     C126259  16.240  14.326   9.560 -0.1720  0.2361 -0.1701
13130OCT     C226260  16.124  14.063   9.943  0.1521 -0.2361 -0.0681
13131OCT     C126261   8.890   4.103  23.080  0.1969 -0.0353  0.0078
13131OCT     C226262   8.506   4.326  23.256  0.0643 -0.0210 -0.1756
13132OCT     C126263   5.818  13.065   9.521  0.0140  0.3877 -0.1783
13132OCT     C226264   6.259  12.901   9.612 -0.1113 -0.3656  0.0848
13133OCT     C126265   5.094  19.141  20.527 -0.0650 -0.0029 -0.3734
13133OCT     C226266   4.870  19.133  20.056 -0.0410 -0.0302 -0.1859
13134OCT     C126267  18.287  14.117  19.544  0.1552  0.2060 -0.2952
13134OCT     C226268  18.142  14.541  19.473 -0.0283 -0.2404  0.0265
13135OCT     C126269  21.861  12.212   8.837  0.1506  0.0253 -0.0347
13135OCT     C226270  22.041  11.938   9.108 -0.0753 -0.4180 -0.0657
13136OCT     C126271  22.842   2.572   0.816 -0.1099 -0.0952 -0.1265
13136OCT     C226272  22.473   2.646   0.498 -0.0079 -0.5097  0.1024
13137OCT     C126273  12.339  23.162  15.228  0.4188 -0.0884  0.2638
13137OCT     C226274  12.181  23.278  15.699 -0.1175  0.1971  0.2085
13138OCT     C126275  21.011  14.904  22.635  0.0427  0.1263 -0.3849
13138OCT     C226276  21.005  15.301  22.384 -0.0517  0.0348 -0.3193
13139OCT     C126277   5.900   6.159   0.806  0.2550 -0.0596 -0.1323
13139OCT     C226278   5.919   5.823   0.452 -0.0712  0.0217 -0.1762
13140OCT     C126279  16.837  16.207  15.444 -0.3117 -0.3836 -0.1837
13140OCT     C226280  17.268  16.206  15.668  0.0673 -0.0938  0.3071
13141OCT     C126281  21.817   9.490   4.508 -0.2163  0.1305  0.0461
13141OCT     C226282  21.906   9.042   4.419  0.5483  0.0709  0.1600
13142OCT     C126283   4.267  10.949  19.199 -0.1261  0.0871 -0.2557
13142OCT     C226284   4.340  10.521  19.226  0.1614 -0.0796 -0.2267
13143OCT     C126285   3.123  22.440   6.395 -0.0215  0.2529 -0.2531
13143OCT     C226286   3.448  22.460   6.746  0.0847  0.1368  0.2529
13144OCT     C126287  13.880   8.978  20.975  0.4541 -0.3412 -0.3150
13144OCT     C226288  13.552   9.146  21.273 -0.0236 -0.0784  0.4187
13145OCT     C126289  10.691  21.671  12.143 -0.0876  0.2113 -0.1876
13145OCT     C226290  11.106  21.626  11.890  0.0242 -0.1372 -0.0634
13146OCT     C126291  13.278   0.355   7.785 -0.1417 -0.1601  0.2056
13146OCT     C226292  12.823   0.394   7.749 -0.0336  0.0487  0.1208
13147OCT     C126293  22.497  12.145   8.658 -0.0221  0.2348 -0.0835
13147OCT     C226294  22.125  11.858   8.636  0.0973 -0.1022  0.0238
13148OCT     C126295  13.904   5.504   6.963 -0.0867  0.0650 -0.1790
13148OCT     C226296  13.422   5.416   6.932 -0.0659 -0.3993 -0.1495
13149OCT     C126297  20.357  11.758   2.799 -0.0273  0.1386 -0.0105
13149OCT     C226298  20.107  11.439   3.055  0.0051 -0.4130  0.1272
13150OCT     C126299  11.003   1.998  14.649 -0.4953  0.1057  0.1198
13150OCT     C226300  10.808   2.076  15.077 -0.0949  0.1932 -0.0376
13151OCT     C126301   9.335   8.335  14.705 -0.1009 -0.1582 -0.2569
13151OCT     C226302   9.757   8.118  14.643 -0.0772  0.0422 -0.2448
13152OCT     C126303  15.820  17.200   7.230 -0.3239 -0.0751  0.1865
13152OCT     C226304  15.841  17.236   7.722 -0.2644 -0.0915  0.2845
13153OCT     C126305   8.600  16.064  21.891  0.2982  0.1612  0.0838
13153OCT     C226306   8.774  15.999  21.462  0.2078 -0.1178  0.0431
13154OCT     C126307   4.613   4.246   8.016 -0.1245 -0.2750  0.0782
13154OCT     C226308   4.826   4.115   7.671  0.0435 -0.0679 -0.2344
13155OCT     C126309   8.838  17.680   5.811 -0.2642 -0.2828 -0.0134
13155OCT     C226310   9.171  17.996   5.621 -0.1375 -0.1240  0.5270
13156OCT     C126311  18.258  21.160  14.182 -0.3133  0.3911 -0.2076
13156OCT     C226312  18.417  21.333  14.621 -0.0815  0.5348 -0.2056
13157OCT     C126313  22.562  19.140  23.049  0.2930 -0.1586  0.0231
13157OCT     C226314  22.635  18.696  22.894  0.0954 -0.2509 -0.2256
13158OCT     C126315  13.838  18.546   8.789 -0.1207  0.0135 -0.4917
13158OCT     C226316  13.687  18.865   8.434  0.1681  0.1205 -0.0402
13159OCT     C126317   0.738  10.758  22.318 -0.1634 -0.2081 -0.4305
13159OCT     C226318   0.661  10.894  22.796 -0.1776 -0.3425 -0.0986
13160OCT     C126319  10.423  18.869   8.779 -0.0358  0.2575 -0.7174
13160OCT     C226320  10.188  18.507   8.957 -0.2541 -0.3430  0.0924
13161OCT     C126321   8.184  14.109   6.724  0.3403 -0.0863 -0.0538
13161OCT     C226322   8.079  13.820   6.397  0.2391  0.0144 -0.0561
13162OCT     C126323   6.000   2.973   1.277  0.0499  0.0631  0.4911
13162OCT     C226324   6.398   3.047   1.477  0.0512  0.3318 -0.1108
13163OCT     C126325  23.198   6.775  19.052 -0.1544 -0.2426 -0.1316
13163OCT     C226326  23.112   6.335  19.165 -0.1980 -0.2013 -0.1490
13164OCT     C126327  12.476  18.310   8.672  0.0499 -0.6587  0.2937
13164OCT     C226328  12.882  18.444   8.881 -0.0772 -0.0362  0.1508
13165OCT     C126329   1.923   4.957   4.736  0.1511 -0.3911 -0.0685
13165OCT     C226330   1.436   4.989   4.922  0.0421 -0.0020  0.1056
13166OCT     C126331  14.049   4.028  17.412 -0.2480 -0.2515  0.1694
13166OCT     C226332  14.288   4.084  17.753 -0.2012 -0.1240  0.1882
13167OCT     C126333   9.657   7.357  10.949 -0.0296  0.0277 -0.1164
13167OCT     C226334   9.743   7.079  11.327  0.1734 -0.1366  0.1841
13168OCT     C126335  17.818  14.876  23.336  0.0885  0.0941 -0.3842
13168OCT     C226336  17.812  14.410  23.199  0.2691 -0.1053  0.1890
13169OCT     C126337   2.487  12.522  16.499  0.2743  0.1672 -0.0236
13169OCT     C226338   2.729  12.957  16.471 -0.1627  0.0616 -0.2272
13170OCT     C126339   4.201  22.384   0.167  0.0334 -0.4479  0.0217
13170OCT     C226340   3.785  22.429   0.478  0.1142  0.2590  0.3061
13171OCT     C126341  13.247  14.102  12.023  0.0749  0.0446  0.1850
13171OCT     C226342  12.919  14.412  12.147 -0.3492  0.2252  0.2231
13172OCT     C126343   3.955  19.270  23.456  0.1913 -0.2304 -0.0765
13172OCT     C226344   3.713  19.632  23.359  0.1381  0.0245 -0.1400
13173OCT     C126345   3.538  20.614  13.551 -0.3113 -0.0195 -0.4556
13173OCT     C226346   3.678  20.229  13.798 -0.0811 -0.4409 -0.0981
13174OCT     C126347  17.003   4.658  22.717 -0.0081  0.1334 -0.0588
13174OCT     C226348  16.608   4.573  22.864 -0.1911  0.2008  0.0764
13175OCT     C126349  14.951  21.809  10.740 -0.2919 -0.1547 -0.2026
13175OCT     C226350  14.782  22.131  10.961  0.1672  0.1598  0.1568
13176OCT     C126351   3.176   1.023  15.364 -0.1841  0.0334 -0.1675
13176OCT     C226352   3.342   0.601  15.479 -0.3081 -0.1266 -0.0332
13177OCT     C126353   9.925  20.411   5.852 -0.1387 -0.0321  0.4792
13177OCT     C226354   9.806  20.129   5.468  0.1143 -0.0988  0.0788
13178OCT     C126355  21.028   0.697  23.131  0.1300 -0.5703  0.3614
13178OCT     C226356  21.087   1.145  23.231  0.2370  0.0156 -0.1786
13179OCT     C126357  10.174   9.848   3.404 -0.0819  0.2033  0.0679
13179OCT     C226358  10.564   9.844   3.605  0.1351 -0.0726 -0.0526
13180OCT     C126359  20.148  20.349   6.895 -0.0623 -0.1044  0.2849
13180OCT     C226360  20.189  20.118   7.256  0.2362 -0.2764 -0.1795
13181OCT     C126361  22.503   3.612   3.070  0.1871 -0.3905 -0.2140
13181OCT     C226362  22.090   3.745   2.848 -0.0672 -0.0096 -0.0344
13182OCT     C126363  17.231  11.031  15.756  0.1840 -0.1167 -0.0372
13182OCT     C226364  17.417  11.020  16.169  0.0310 -0.2220  0.0153
13183OCT     C126365   0.323   2.302  17.402  0.3059  0.2690 -0.4183
13183OCT     C226366   0.081   1.944  17.198 -0.0566 -0.1314  0.0547
13184OCT     C126367   5.386   3.637   9.853  0.1628 -0.1127  0.1573
13184OCT     C226368   5.094   3.714   9.451  0.0119  0.0677 -0.1195
13185OCT     C126369  10.506  21.638  21.619 -0.2560  0.0672  0.1722
13185OCT     C226370  10.728  22.021  21.498  0.3123  0.1988  0.0329
13186OCT     C126371   3.370   0.119   2.467 -0.0458 -0.2975  0.1353
13186OCT     C226372   3.321   0.005   2.928  0.3151  0.0268 -0.0552
13187OCT     C126373   4.606   3.468   2.092 -0.0579  0.1591  0.1475
13187OCT     C226374   4.308   3.777   1.877  0.1399 -0.0073  0.2053
13188OCT     C126375  17.623  18.898  18.946 -0.0240  0.0195  0.1502
13188OCT     C226376  17.200  18.887  19.157  0.1115  0.0874  0.2062
13189OCT     C126377   5.269  17.605   9.611 -0.5569  0.1385  0.0419
13189OCT     C226378   4.882  17.390   9.775 -0.2210 -0.0487  0.1981
13190OCT     C126379   7.851  10.230   3.890 -0.1111 -0.1155  0.1882
13190OCT     C226380   8.280  10.025   3.748  0.0428  0.2389 -0.0589
13191OCT     C126381  15.285  14.351  11.185 -0.1991 -0.1557 -0.2874
13191OCT     C226382  15.477  14.419  11.639 -0.3583  0.0825  0.0786
13192OCT     C126383   1.806  11.800   1.353  0.5357  0.0994  0.3400
13192OCT     C226384   1.356  11.578   1.336 -0.2566 -0.0743  0.1416
13193OCT     C126385   1.009   2.857   6.892 -0.0912  0.1838 -0.6852
13193OCT     C226386   0.756   2.530   6.668  0.0610 -0.0553  0.1748
13194OCT     C126387  23.558  10.157   3.648 -0.0029  0.0879  0.4250
13194OCT     C226388  23.568   9.704   3.785  0.0167  0.0271  0.0950
13195OCT     C126389   7.659  12.719  20.245  0.0964 -0.1111 -0.0344
13195OCT     C226390   7.996  12.936  20.477 -0.0456 -0.0426 -0.1529
13196OCT     C126391   7.976  14.470   4.552  0.0839  0.2272 -0.2835
13196OCT     C226392   7.865  14.457   4.111  0.4917 -0.0455 -0.1265
13197OCT     C126393   3.051   3.701   8.723 -0.1955 -0.0346 -0.4086
13197OCT     C226394   3.090   3.549   9.144  0.1646 -0.2822 -0.1818
13198OCT     C126395   3.845  23.540  22.832  0.1451  0.2955 -0.1275
13198OCT     C226396   3.613  23.151  22.899 -0.0018 -0.1411  0.0436
13199OCT     C126397   6.926  10.400   4.853 -0.0953  0.1956 -0.1107
13199OCT     C226398   7.186  10.203   4.497 -0.0169 -0.0427  0.2227
13200OCT     C126399  16.549   4.779  17.038 -0.0980  0.1183 -0.0912
13200OCT     C226400  16.960   4.653  17.163  0.1480  0.2550  0.1320
13201OCT     C126401  18.724   3.134  16.495  0.3980 -0.0633 -0.0746
13201OCT     C226402  18.998   2.759  16.454 -0.3340  0.1669 -0.1645
13202OCT     C126403   3.612  12.203  13.152 -0.2491 -0.1097  0.0400
13202OCT     C226404   3.322  12.062  12.821 -0.2341 -0.1474 -0.0991
13203OCT     C126405   4.424   2.143  17.406 -0.0511 -0.1467  0.1992
13203OCT     C226406   4.682   2.570  17.423 -0.0733 -0.0494  0.0939
13204OCT     C126407   2.955   1.176  17.766 -0.0626  0.0167 -0.0733
13204OCT     C226408   2.676   1.462  17.502  0.0515  0.0560  0.1209
13205OCT     C126409   7.680  12.824   4.495  0.1895  0.3918  0.0379
13205OCT     C226410   7.998  13.152   4.602 -0.1523  0.1924 -0.1816
13206OCT     C126411  22.813   4.537  15.977 -0.0470 -0.3586 -0.4411
13206OCT     C226412  23.059   4.225  16.276  0.3810 -0.1970  0.1683
13207OCT     C126413  17.180  17.873  22.611  0.0202  0.2473  0.0547
13207OCT     C226414  17.589  17.766  22.831 -0.0023 -0.2463 -0.3049
13208OCT     C126415  16.153  19.563  22.258  0.1001 -0.0732  0.4550
13208OCT     C226416  15.878  19.245  22.294  0.5146 -0.1510 -0.0763
13209OCT     C126417   3.825   9.770  11.195 -0.2178  0.0634 -0.0560
13209OCT     C226418   3.378   9.905  11.066 -0.0189  0.0974 -0.4974
13210OCT     C126419  15.039  21.144   2.524  0.0514 -0.0875 -0.1011
13210OCT     C226420  15.189  21.552   2.752  0.0122 -0.1089 -0.0304
13211OCT     C126421  18.656  19.842  19.959  0.0342  0.1839 -0.2793
13211OCT     C226422  18.629  19.787  19.523  0.1249 -0.0261  0.3417
13212OCT     C126423   0.292   4.801  14.569  0.0388  0.1790  0.0495
13212OCT     C226424   0.225   5.118  14.906 -0.0671 -0.0174  0.0255
13213OCT     C126425  16.520  14.716  14.082  0.0424  0.0141 -0.2319
13213OCT     C226426  16.136  14.728  13.960 -0.0201 -0.1521  0.0803
13214OCT     C126427   4.308   8.583  18.385  0.3903  0.2813  0.0070
13214OCT     C226428   4.549   8.951  18.543  0.0952 -0.0595 -0.0762
13215OCT     C126429  17.961  15.172  12.314  0.0923  0.1390 -0.1764
13215OCT     C226430  18.332  15.474  12.381 -0.0466  0.2461 -0.1036
13216OCT     C126431  16.802  14.437   7.497 -0.0469 -0.1641  0.1294
13216OCT     C226432  16.794  14.615   7.901 -0.2050  0.0082 -0.0172
13217OCT     C126433  12.982   6.186  11.426  0.2131 -0.0389  0.0921
13217OCT     C226434  12.811   6.466  11.125 -0.3680 -0.2212 -0.4760
13218OCT     C126435  19.987  22.946  22.988  0.0332 -0.1068 -0.1209
13218OCT     C226436  19.820  23.068  22.575 -0.1500 -0.0368 -0.0182
13219OCT     C126437   3.425  16.936  21.885  0.2074 -0.1833 -0.2008
13219OCT     C226438   3.085  16.890  21.597  0.3306 -0.0487  0.2111
13220OCT     C126439   9.232  20.874  15.810  0.3661 -0.1678 -0.1488
13220OCT     C226440   9.486  21.033  15.510  0.2913 -0.1629 -0.0663
13221OCT     C126441  19.123  14.730  10.540 -0.2167  0.1826 -0.2717
13221OCT     C226442  19.204  14.932  10.166 -0.2534  0.2676 -0.1975
13222OCT     C126443  11.764   6.335   3.648 -0.0759  0.0444 -0.0168
13222OCT     C226444  11.665   6.407   4.098 -0.2055 -0.1318 -0.0919
13223OCT     C126445  18.911  22.161  10.276  0.0613 -0.2150  0.1374
13223OCT     C226446  18.718  22.241   9.878  0.0928  0.3099  0.2229
13224OCT     C126447  14.053   6.578  21.756 -0.0295  0.0624 -0.0484
13224OCT     C226448  14.011   6.323  22.099 -0.0680  0.1470 -0.1112
13225OCT     C126449  22.337  13.900  17.740  0.0618 -0.1377 -0.1441
13225OCT     C226450  22.284  13.527  17.472 -0.3030  0.5319 -0.1262
13226OCT     C126451   1.529  10.686   3.336  0.2370  0.2472  0.1763
13226OCT     C226452   1.164  10.539   3.626  0.0823  0.1321  0.1095
13227OCT     C126453   3.734  14.694   7.828  0.0042  0.1356 -0.0767
13227OCT     C226454   3.292  14.885   7.720 -0.3075  0.1329 -0.1085
13228OCT     C126455  19.344   6.072  19.225  0.2159 -0.1317 -0.1782
13228OCT     C226456  19.009   6.214  19.547 -0.0637  0.2597  0.2946
13229OCT     C126457   4.537  20.667   2.970  0.1745  0.0082  0.3064
13229OCT     C226458   4.764  20.540   3.378 -0.1754 -0.2875 -0.0585
13230OCT     C126459   5.773   8.657   0.048  0.1736 -0.1007 -0.2182
13230OCT     C226460   5.527   8.727  23.345  0.3572  0.1253 -0.1903
13231OCT     C126461  23.541   8.232   0.148  0.0796  0.3051 -0.0221
13231OCT     C226462   0.199   8.139   0.417 -0.0125 -0.1467  0.1925
13232OCT     C126463  15.426   7.822  17.321  0.2173 -0.0989  0.2613
13232OCT     C226464  15.857   7.695  17.294 -0.0363 -0.0087 -0.0251
13233OCT     C126465  14.583  14.079   5.558  0.1542 -0.2685 -0.1578
13233OCT     C226466  14.606  14.521   5.411  0.1940  0.1524  0.1256
13234OCT     C126467  16.012  15.348  12.782  0.1471 -0.1713  0.1348
13234OCT     C226468  16.130  15.532  12.360  0.3273 -0.0250 -0.3200
13235OCT     C126469   3.219   9.737  21.357 -0.2419 -0.0429 -0.1356
13235OCT     C226470   3.276   9.477  21.762  0.0694 -0.0995  0.3255
13236OCT     C126471   8.906  10.788  15.987 -0.0777 -0.1113  0.0883
13236OCT     C226472   8.654  10.428  16.082 -0.1192  0.2451  0.0568
13237OCT     C126473  10.199  12.388   0.881  0.0453 -0.0832  0.2033
13237OCT     C226474  10.277  12.099   1.248 -0.0728  0.1832 -0.1657
13238OCT     C126475   9.598   2.832  15.371  0.0828 -0.0125 -0.0881
13238OCT     C226476   9.766   2.428  15.206  0.1485 -0.0564 -0.1553
13239OCT     C126477   1.371   9.596   5.343  0.0029 -0.2813  0.0634
13239OCT     C226478   1.142   9.241   5.116 -0.1373 -0.2698 -0.1040
13240OCT     C126479  13.241  21.147   3.553 -0.0872 -0.2983  0.3069
13240OCT     C226480  13.658  21.127   3.337  0.0883 -0.0878 -0.1416
13241OCT     C126481   6.988  14.640   1.881  0.0029 -0.0289  0.0969
13241OCT     C226482   6.914  14.962   1.576 -0.2003  0.0483 -0.0066
13242OCT     C126483  18.109   1.508   4.979 -0.0839  0.1372  0.0366
13242OCT     C226484  17.689   1.324   5.057 -0.0245  0.0044 -0.4172
13243OCT     C126485  16.033  18.073   7.395  0.0923 -0.0573  0.3744
13243OCT     C226486  16.553  18.159   7.369 -0.0523 -0.2652 -0.2059
13244OCT     C126487  13.513  23.628   7.901  0.0556 -0.1973 -0.3985
13244OCT     C226488  13.563   0.114   7.450 -0.2627  0.1321 -0.0531
13245OCT     C126489  16.041   4.060  11.430  0.0311  0.2643  0.0181
13245OCT     C226490  16.335   4.148  11.738 -0.0130 -0.0856  0.1782
13246OCT     C126491   3.862   7.555  18.148 -0.2322  0.1477 -0.5088
13246OCT     C226492   4.274   7.700  18.169 -0.0081  0.2412  0.1785
13247OCT     C126493  22.229   3.866   4.382  0.1194 -0.2829  0.0812
13247OCT     C226494  22.130   3.398   4.558 -0.3290 -0.0064  0.1436
13248OCT     C126495  16.960  23.693  22.508  0.0553 -0.1073  0.1415
13248OCT     C226496  16.973   0.296  22.831  0.0846  0.2014  0.0851
13249OCT     C126497  11.449  21.361  17.425 -0.0881  0.1998 -0.1249
13249OCT     C226498  11.650  21.209  17.078  0.0119 -0.1192 -0.3517
13250OCT     C126499  11.936  16.636  11.926  0.0108 -0.0457  0.3292
13250OCT     C226500  11.503  16.397  11.855  0.1971  0.1744 -0.2738
13251OCT     C126501  17.960  20.052  22.098 -0.1322 -0.0958  0.1337
13251OCT     C226502  17.982  20.485  22.155 -0.0654  0.1106  0.0799
13252OCT     C126503   3.047  22.140  23.581  0.0776  0.0339 -0.0362
13252OCT     C226504   2.849  22.448  23.264  0.1806 -0.0922 -0.1361
13253OCT     C126505   6.659  19.896  22.680  0.3317  0.2633 -0.0906
13253OCT     C226506   6.861  20.223  22.356 -0.2538 -0.2029  0.1835
13254OCT     C126507  15.414  18.525   9.219  0.0023  0.3590 -0.1470
13254OCT     C226508  15.248  18.836   9.520  0.1008  0.1678 -0.1708
13255OCT     C126509  16.457  13.040  13.448  0.1689  0.2465 -0.1583
13255OCT     C226510  16.376  13.377  13.122  0.0426  0.1959  0.1928
13256OCT     C126511  23.733  20.132  22.787 -0.2060  0.1310  0.2039
13256OCT     C226512  23.312  20.084  23.016  0.0384 -0.2140  0.3333
13257OCT     C126513   9.742   7.985  21.668 -0.0486  0.0759 -0.0823
13257OCT     C226514   9.866   7.967  22.122 -0.1781  0.1295  0.3793
13258OCT     C126515  18.453  16.672  12.144 -0.1740  0.0881  0.3376
13258OCT     C226516  18.450  16.625  11.673  0.1081  0.2268 -0.2280
13259OCT     C126517  23.147  20.094   9.748  0.0831 -0.1082 -0.3770
13259OCT     C226518  22.720  20.324   9.740 -0.2659  0.2526  0.0469
13260OCT     C126519   5.574   6.066   4.431 -0.1963 -0.0426  0.1010
13260OCT     C226520   5.227   6.150   4.052 -0.2105 -0.1222 -0.0093
13261OCT     C126521   2.309   5.837  17.999 -0.0092  0.1148 -0.0120
13261OCT     C226522   2.488   5.953  18.410 -0.1000 -0.1341 -0.0023
13262OCT     C126523   6.909   4.222  17.353 -0.5132  0.1169  0.0236
13262OCT     C226524   6.667   4.033  17.735 -0.1196 -0.3367 -0.1444
13263OCT     C126525   5.845   3.238   8.333 -0.0278 -0.1184  0.4058
13263OCT     C226526   5.890   3.508   8.661 -0.0665  0.3978  0.2039
13264OCT     C126527  21.058   2.362  11.180  0.1026 -0.1732  0.2137
13264OCT     C226528  21.048   1.869  11.019  0.0196 -0.1202 -0.1483
13265OCT     C126529  10.055  22.659   5.693 -0.1481 -0.2512  0.2398
13265OCT     C226530  10.067  22.880   5.258 -0.0499  0.1270 -0.1111
13266OCT     C126531   6.642  21.381  12.518  0.2350  0.2185  0.1186
13266OCT     C226532   7.006  21.545  12.776  0.1217 -0.2005 -0.0886
13267OCT     C126533  18.408  19.310  18.177 -0.0955  0.0755  0.1896
13267OCT     C226534  18.182  19.704  18.027 -0.0815 -0.0652  0.0390
13268OCT     C126535  13.332  16.634  20.991  0.0177  0.0635 -0.2112
13268OCT     C226536  13.142  16.810  21.380 -0.2265 -0.1105  0.0726
13269OCT     C126537   5.517  23.464   6.598  0.1040 -0.2891 -0.1269
13269OCT     C226538   5.245  23.283   6.237 -0.2221  0.4195 -0.0030
13270OCT     C126539   4.172   6.683  14.452 -0.2205 -0.1824 -0.3009
13270OCT     C226540   4.287   7.129  14.306 -0.1652  0.0827  0.0513
13271OCT     C126541  17.483  15.103   3.610 -0.0336 -0.1264  0.2165
13271OCT     C226542  17.742  15.020   3.213  0.3568  0.3265  0.1370
13272OCT     C126543   2.474  15.263   8.389  0.0504  0.5095  0.0142
13272OCT     C226544   2.402  14.824   8.529  0.2883  0.0314 -0.0733
13273OCT     C126545  19.887  15.166   3.044  0.1504  0.0504 -0.3240
13273OCT     C226546  20.209  15.450   3.086 -0.0754  0.1326  0.3995
13274OCT     C126547   0.540   2.925  19.164 -0.0144 -0.3110 -0.2151
13274OCT     C226548   0.124   2.819  19.281  0.0354  0.2162  0.1978
13275OCT     C126549  12.462   3.405  22.598 -0.0351  0.3046  0.0396
13275OCT     C226550  12.485   3.400  22.171  0.0985  0.2122  0.3859
13276OCT     C126551  12.287  17.317  21.134  0.0770 -0.1965  0.1639
13276OCT     C226552  11.918  17.261  20.826 -0.1673 -0.5868  0.0846
13277OCT     C126553  22.766  20.424   2.450  0.2908  0.0542 -0.2362
13277OCT     C226554  23.036  20.491   2.110  0.2031 -0.4006 -0.1526
13278OCT     C126555  17.509  12.661  10.071  0.3488  0.0021  0.0293
13278OCT     C226556  17.744  12.999   9.835 -0.1498 -0.2502  0.3149
13279OCT     C126557   8.021   5.079  13.429 -0.4003  0.1459  0.0424
13279OCT     C226558   7.636   4.824  13.334 -0.1373 -0.1521  0.0051
13280OCT     C126559  16.110  13.388   3.655 -0.0260  0.0378  0.1412
13280OCT     C226560  15.695  13.328   3.427  0.0487 -0.2061 -0.2212
13281OCT     C126561   9.557   0.722  19.755  0.2824 -0.3405  0.2338
13281OCT     C226562   9.425   0.291  19.873 -0.1488 -0.4402 -0.1346
13282OCT     C126563   7.937   0.985  18.676 -0.1979  0.2169  0.3151
13282OCT     C226564   7.631   0.843  19.071 -0.1006 -0.6319 -0.0141
13283OCT     C126565  15.348   2.292  13.497 -0.0791  0.1261 -0.3134
13283OCT     C226566  14.877   2.244  13.507  0.0962  0.0832 -0.2369
13284OCT     C126567  19.528   4.034   3.442  0.3297  0.1714 -0.2253
13284OCT     C226568  19.924   3.930   3.239  0.0798  0.1679 -0.0679
13285OCT     C126569   8.996   9.965  13.084 -0.1149 -0.2213  0.0085
13285OCT     C226570   9.446   9.991  12.932 -0.2017  0.0781 -0.0725
13286OCT     C126571   9.860  19.940  18.641 -0.1420 -0.2503 -0.0830
13286OCT     C226572  10.303  19.809  18.624 -0.0499  0.0554  0.1382
13287OCT     C126573   2.044  15.479  15.744 -0.1541  0.1807 -0.3784
13287OCT     C226574   2.193  15.906  15.874  0.0096  0.0421 -0.0813
13288OCT     C126575   4.309  18.325  21.523 -0.1716  0.1319  0.1485
13288OCT     C226576   4.706  18.551  21.564  0.0116 -0.0152  0.3192
13289OCT     C126577   2.317  17.223   0.518  0.0318 -0.1893  0.0001
13289OCT     C226578   1.923  17.240   0.234  0.1935 -0.0294 -0.0543
13290OCT     C126579   2.239  18.544   5.594 -0.0523 -0.4006 -0.1059
13290OCT     C226580   2.040  18.938   5.607 -0.1153  0.1491  0.1303
13291OCT     C126581  19.537  11.535  22.954 -0.1338  0.1442  0.1406
13291OCT     C226582  19.564  11.216  22.609 -0.2007  0.1926 -0.1589
13292OCT     C126583   3.308   9.817   5.204 -0.1849 -0.3892 -0.0231
13292OCT     C226584   3.750   9.614   5.357  0.3141  0.0477  0.1324
13293OCT     C126585   4.491   3.051   0.558  0.0008 -0.2772  0.1123
13293OCT     C226586   4.169   3.115   0.898 -0.2706  0.1555 -0.2166
13294OCT     C126587   5.655   0.387  22.946 -0.2356 -0.0981 -0.3798
13294OCT     C226588   5.704   0.233  23.390 -0.3621  0.3024  0.0649
13295OCT     C126589  13.138   7.180   1.172 -0.2223 -0.2603  0.2234
13295OCT     C226590  13.445   6.841   1.205 -0.0321  0.3604  0.0918
13296OCT     C126591   0.303  15.305  12.788 -0.0249  0.1529 -0.3365
13296OCT     C226592  23.684  15.035  13.052  0.2252  0.0652  0.2897
13297OCT     C126593  16.082  19.062  10.568  0.0720  0.3333 -0.0813
13297OCT     C226594  16.187  19.540  10.529  0.2741 -0.1890  0.0571
13298OCT     C126595  17.484   6.464  17.862 -0.3369 -0.2303 -0.0498
13298OCT     C226596  17.472   6.435  17.408 -0.0960 -0.0902 -0.0293
13299OCT     C126597  11.336  15.006   4.149  0.1691  0.2126  0.1813
13299OCT     C226598  10.873  15.048   4.222  0.1942 -0.1018 -0.0646
13300OCT     C126599   0.885  13.670   7.009  0.1796  0.0431 -0.0114
13300OCT     C226600   0.826  13.303   7.362 -0.3572 -0.0029 -0.1116
13301OCT     C126601  22.666   9.640   0.937 -0.2399 -0.2348 -0.1339
13301OCT     C226602  22.724  10.125   0.989  0.0503 -0.3289  0.1606
13302OCT     C126603   1.991  17.440  12.116  0.0316  0.1320  0.0570
13302OCT     C226604   2.354  17.189  12.270 -0.1795  0.0542  0.3708
13303OCT     C126605  15.923  17.178   6.230  0.0419 -0.3394  0.0100
13303OCT     C226606  16.325  17.369   6.105 -0.2346  0.0698  0.0899
13304OCT     C126607  16.034   3.713   4.774 -0.3484 -0.0168 -0.2627
13304OCT     C226608  16.152   3.926   4.352  0.4621  0.0027 -0.1531
13305OCT     C126609   2.552  18.046  15.017 -0.1113  0.0124  0.2324
13305OCT     C226610   2.883  17.964  14.649  0.3582 -0.0597 -0.0917
13306OCT     C126611  12.021  14.228   2.599 -0.2255  0.0089  0.3136
13306OCT     C226612  11.967  14.683   2.631 -0.0731  0.0390 -0.2685
13307OCT     C126613  11.189  10.664  14.865 -0.0676  0.3656 -0.4686
13307OCT     C226614  10.822  10.506  14.624 -0.0245  0.1475  0.3354
13308OCT     C126615  20.235  11.157  18.789 -0.5464  0.0146 -0.0835
13308OCT     C226616  20.249  11.298  19.274  0.1542  0.0492 -0.0937
13309OCT     C126617  12.970  22.665   0.657 -0.3235 -0.0970  0.3959
13309OCT     C226618  12.665  22.442   0.325  0.0589  0.0147 -0.3638
13310OCT     C126619  17.192  20.726  12.783  0.2644  0.1717  0.1632
13310OCT     C226620  16.918  20.892  13.177 -0.0295 -0.2160  0.0217
13311OCT     C126621   2.248  16.915   7.220  0.1006 -0.0766  0.1759
13311OCT     C226622   2.118  17.084   6.799 -0.2825  0.1732  0.3767
13312OCT     C126623   6.261  11.380  22.123  0.4227 -0.0268 -0.1612
13312OCT     C226624   6.049  11.802  22.143  0.0135  0.0041  0.0259
13313OCT     C126625   6.318   4.174  10.437 -0.2606  0.1640 -0.3556
13313OCT     C226626   6.632   3.956  10.275  0.0949  0.1564 -0.2498
13314OCT     C126627  14.373   6.392   7.747  0.1114  0.0836 -0.1371
13314OCT     C226628  14.142   6.169   8.147  0.2716 -0.0708 -0.0154
13315OCT     C126629  23.144   5.071  19.210 -0.2513  0.1885 -0.1097
13315OCT     C226630  22.838   5.298  18.934 -0.1676  0.0614  0.0343
13316OCT     C126631  18.847   2.226   2.478 -0.1624  0.3009 -0.0497
13316OCT     C226632  18.550   2.079   2.814  0.1458  0.2408  0.1808
13317OCT     C126633   4.112  16.219   1.478 -0.2154 -0.5020  0.1740
13317OCT     C226634   3.959  16.663   1.337  0.1343  0.0409 -0.0361
13318OCT     C126635  14.591  14.663   3.031  0.1736  0.1009 -0.1608
13318OCT     C226636  14.279  14.410   2.829  0.0307  0.0075  0.1239
13319OCT     C126637  13.268  15.036  23.532  0.0680 -0.1931  0.2474
13319OCT     C226638  12.902  15.234  23.685  0.1908  0.1211  0.1857
13320OCT     C126639  20.063   0.231   9.646  0.0274 -0.0685  0.0430
13320OCT     C226640  19.728   0.585   9.483 -0.2699 -0.3157 -0.2042
13321OCT     C126641   3.553   3.722   5.617 -0.0327  0.0572  0.1423
13321OCT     C226642   3.199   3.440   5.495 -0.2266 -0.3582 -0.0777
13322OCT     C126643  10.671  14.542   4.065  0.1642  0.0773  0.1531
13322OCT     C226644  10.422  14.304   3.784 -0.2743 -0.0558 -0.0337
13323OCT     C126645   4.110  10.481  14.854 -0.0937  0.0544  0.1299
13323OCT     C226646   4.352  10.603  14.446 -0.2093  0.0679  0.1081
13324OCT     C126647  10.000  17.318  15.632 -0.2693 -0.0460 -0.1257
13324OCT     C226648  10.139  17.262  15.150 -0.1741  0.0181  0.1097
13325OCT     C126649  16.369   7.074  22.442  0.0893  0.2071 -0.0946
13325OCT     C226650  16.383   6.770  22.781  0.2836 -0.0490  0.0842
13326OCT     C126651   3.506  20.806  12.777  0.2514 -0.0601  0.3231
13326OCT     C226652   3.577  20.481  13.098 -0.2313 -0.1849  0.1560
13327OCT     C126653  22.993  16.656  18.192  0.1218  0.0158  0.0657
13327OCT     C226654  22.579  16.494  18.299  0.3463  0.4737  0.4599
13328OCT     C126655  17.694  19.671   0.665 -0.1844  0.1243  0.0876
13328OCT     C226656  17.561  19.930   0.295  0.0680  0.3091 -0.1853
13329OCT     C126657   1.409  10.243  13.542  0.4848 -0.0059  0.3295
13329OCT     C226658   1.295  10.523  13.139 -0.0934 -0.0791 -0.1671
13330OCT     C126659   4.963   8.980   3.977  0.0597  0.2077  0.3031
13330OCT     C226660   5.153   8.667   4.240  0.3036 -0.0396  0.1196
13331OCT     C126661  11.011   4.029  12.893  0.2697  0.1088  0.3237
13331OCT     C226662  10.628   3.719  12.855 -0.3266  0.0561 -0.2887
13332OCT     C126663  14.068   5.709   3.454  0.3013 -0.3939  0.0427
13332OCT     C226664  14.094   5.268   3.368  0.1459  0.0643  0.0335
13333OCT     C126665  14.154  12.843  11.073 -0.0040 -0.1010 -0.1477
13333OCT     C226666  13.902  12.651  11.457  0.0397  0.1714 -0.0522
13334OCT     C126667  23.632  22.626   5.709  0.0658 -0.1470  0.1113
13334OCT     C226668   0.133  22.700   6.069 -0.1856  0.0164 -0.1139
13335OCT     C126669  21.572   7.684  23.519  0.4439  0.1808  0.1140
13335OCT     C226670  21.843   7.307  23.682  0.4344 -0.4179 -0.1770
13336OCT     C126671   8.526   0.267   0.408  0.0660 -0.1938 -0.0004
13336OCT     C226672   8.205  23.682   0.323  0.0964 -0.0602 -0.2634
13337OCT     C126673  10.363   9.340  10.617 -0.3414  0.0949  0.1369
13337OCT     C226674  10.431   8.856  10.618  0.0121  0.0645  0.3086
13338OCT     C126675  15.690   4.537  16.840  0.2007 -0.0821 -0.1709
13338OCT     C226676  15.340   4.751  16.580 -0.1072 -0.1085  0.0923
13339OCT     C126677  20.727  21.724  19.513 -0.1931  0.1745 -0.1320
13339OCT     C226678  20.562  21.978  19.198  0.3469 -0.2062 -0.0123
13340OCT     C126679   1.475  21.479   7.882 -0.1605  0.2386  0.1403
13340OCT     C226680   1.858  21.563   8.137  0.1354  0.0028 -0.3588
13341OCT     C126681  14.933  19.316  22.328  0.1358 -0.1263 -0.1208
13341OCT     C226682  15.374  19.427  22.172 -0.5052  0.0667 -0.2445
13342OCT     C126683  19.542  13.998   7.945 -0.0029 -0.0476  0.2622
13342OCT     C226684  19.594  14.414   7.715  0.0177 -0.0735  0.4856
13343OCT     C126685   5.691   5.353   7.721 -0.2273 -0.1183 -0.0242
13343OCT     C226686   5.908   4.988   7.906 -0.0275 -0.2210 -0.2312
13344OCT     C126687  14.130   6.309  21.185 -0.2149 -0.0222  0.1317
13344OCT     C226688  13.991   5.840  21.136  0.2170  0.1406 -0.0103
13345OCT     C126689   2.121  15.531  23.702 -0.0114  0.2126 -0.0925
13345OCT     C226690   1.935  15.245   0.250  0.7191 -0.2335  0.4500
13346OCT     C126691  14.125   5.689   5.705  0.0756 -0.1485  0.0573
13346OCT     C226692  14.244   6.061   6.026  0.1384  0.2666 -0.3040
13347OCT     C126693  21.075   7.730  11.788  0.1250  0.1539  0.0781
13347OCT     C226694  21.299   8.017  12.122 -0.1691 -0.0614  0.2787
13348OCT     C126695   6.250  19.813  20.935  0.0808  0.0320 -0.3237
13348OCT     C226696   6.333  19.513  21.318 -0.2409 -0.0673 -0.2639
13349OCT     C126697  19.612  22.057   9.809  0.0883  0.2508  0.0237
13349OCT     C226698  19.369  22.014  10.231 -0.0200 -0.0747 -0.0476
13350OCT     C126699   8.857   9.325   0.447 -0.1360 -0.2359  0.0292
13350OCT     C226700   9.190   9.228   0.150 -0.1166  0.0428  0.1968
13351OCT     C126701   8.879  20.570   4.539 -0.1219  0.1452  0.0819
13351OCT     C226702   8.676  20.842   4.836  0.2823  0.0092 -0.2065
13352OCT     C126703  19.243  20.266  15.073  0.2906  0.0759 -0.1819
13352OCT     C226704  19.426  20.594  15.338  0.0011 -0.1344  0.1150
13353OCT     C126705  12.001  15.333   7.953  0.0644 -0.1066 -0.4350
13353OCT     C226706  11.826  15.412   7.555 -0.1675 -0.2798 -0.3347
13354OCT     C126707   7.614  18.818   6.006 -0.2720 -0.6997 -0.1500
13354OCT     C226708   7.569  18.382   6.123 -0.1419  0.0989 -0.1186
13355OCT     C126709  19.179  16.492  12.634  0.0792 -0.4009 -0.2821
13355OCT     C226710  18.938  16.291  12.938 -0.1749  0.0552 -0.2780
13356OCT     C126711   0.032  20.797  18.297 -0.0654  0.0105 -0.2850
13356OCT     C226712   0.141  21.124  17.940 -0.0153  0.2680 -0.1125
13357OCT     C126713   6.109   6.692   4.151 -0.1852  0.1470 -0.0741
13357OCT     C226714   6.056   6.992   4.520 -0.2338 -0.0107 -0.1886
13358OCT     C126715  12.015   2.147  21.938 -0.0937 -0.2874  0.1884
13358OCT     C226716  11.913   2.198  22.404  0.1712  0.0202  0.3090
13359OCT     C126717  19.099  16.981   3.440  0.5211 -0.1164  0.1772
13359OCT     C226718  19.569  16.986   3.563  0.4539 -0.3212 -0.2299
13360OCT     C126719   8.239   0.227  10.621  0.0575  0.3118 -0.1765
13360OCT     C226720   8.380   0.283  11.029  0.2774 -0.3081 -0.3203
13361OCT     C126721   7.010   7.526  12.823 -0.1036  0.1166  0.1305
13361OCT     C226722   7.450   7.277  12.848  0.1620 -0.0612 -0.1459
13362OCT     C126723  16.062   5.524  15.333 -0.2586  0.2254  0.2270
13362OCT     C226724  16.120   5.267  14.940  0.0962  0.3752  0.1474
13363OCT     C126725  20.856  23.135   0.608 -0.2486 -0.7530  0.1747
13363OCT     C226726  21.295  23.177   0.595 -0.5616  0.0466 -0.0482
13364OCT     C126727   2.762   9.501   1.088  0.1788 -0.1223  0.1045
13364OCT     C226728   2.911   9.399   1.537 -0.1940 -0.5223  0.3140
13365OCT     C126729   4.282  13.289  14.789  0.2709 -0.0668 -0.2380
13365OCT     C226730   4.630  13.006  14.957 -0.3279 -0.0564 -0.0171
13366OCT     C126731  21.775  11.775  21.553 -0.2186  0.2875  0.0447
13366OCT     C226732  21.645  11.796  22.000 -0.0031  0.1690  0.3768
13367OCT     C126733  22.649   0.333  22.548 -0.5397 -0.0998 -0.1047
13367OCT     C226734  22.528   0.626  22.867 -0.2596 -0.1915  0.2929
13368OCT     C126735  17.310  17.448  15.012 -0.0175  0.2664 -0.1307
13368OCT     C226736  17.414  17.780  15.319 -0.0262  0.1526  0.2686
13369OCT     C126737  22.201  19.311  21.394 -0.3699 -0.2478 -0.3505
13369OCT     C226738  22.032  19.045  21.063  0.0440  0.2711  0.2615
13370OCT     C126739  13.025  22.070   8.929  0.1363 -0.0430  0.1550
13370OCT     C226740  12.588  21.895   8.829  0.1049 -0.0481  0.2000
13371OCT     C126741   8.960  13.459   7.848  0.0880 -0.0678 -0.0836
13371OCT     C226742   9.339  13.279   8.048 -0.4455 -0.1502  0.0688
13372OCT     C126743  22.047  18.843   1.516  0.1902 -0.1673 -0.0163
13372OCT     C226744  22.187  19.288   1.571  0.1805  0.1837  0.3682
13373OCT     C126745   9.543  16.570  13.731 -0.4620  0.1432 -0.0037
13373OCT     C226746   9.775  16.842  13.995  0.2493 -0.0964 -0.2522
13374OCT     C126747   6.380  18.059  11.535  0.2436 -0.0570 -0.3027
13374OCT     C226748   6.584  17.879  11.949  0.3989  0.2058  0.1317
13375OCT     C126749  21.376  17.928   8.887 -0.3815 -0.2205 -0.3100
13375OCT     C226750  21.594  18.205   9.176  0.1336 -0.1351 -0.1310
13376OCT     C126751   1.436  20.971   6.141  0.0087  0.0235 -0.2301
13376OCT     C226752   1.057  20.863   6.336 -0.3380  0.0251  0.2827
13377OCT     C126753  17.623   5.226  18.939  0.0945 -0.1610 -0.0255
13377OCT     C226754  17.853   5.539  19.221  0.0916  0.1390 -0.3117
13378OCT     C126755   9.652  10.079  23.306 -0.1641  0.2131  0.0261
13378OCT     C226756   9.409   9.735  23.598  0.0308  0.1652  0.1528
13379OCT     C126757  13.000  23.697   7.335  0.0513 -0.2755 -0.6790
13379OCT     C226758  13.300  23.706   7.004 -0.1512 -0.0310  0.2963
13380OCT     C126759  12.508  18.609   5.751 -0.0010 -0.2001 -0.0257
13380OCT     C226760  12.965  18.633   5.565 -0.0317  0.1144 -0.1598
13381OCT     C126761  16.273  15.583  23.179  0.1335  0.0156  0.2079
13381OCT     C226762  16.155  15.276  22.780 -0.3651 -0.0018 -0.1531
13382OCT     C126763  15.561   3.293  12.637 -0.0169 -0.2291  0.1780
13382OCT     C226764  15.140   3.386  12.452  0.1438  0.0629  0.2989
13383OCT     C126765  10.930  15.641   6.311 -0.3056  0.1575 -0.1575
13383OCT     C226766  11.121  15.450   5.956 -0.3967 -0.0408  0.1441
13384OCT     C126767  10.155  19.314   5.526  0.1859 -0.3388  0.1197
13384OCT     C226768  10.241  19.244   5.078 -0.2906  0.2707  0.2478
13385OCT     C126769  13.065  23.375  19.417  0.0878  0.0205 -0.0021
13385OCT     C226770  12.637  23.272  19.215 -0.3546  0.0935 -0.0960
13386OCT     C126771   1.219   3.071  22.227 -0.0437  0.4169 -0.1855
13386OCT     C226772   1.591   3.340  22.053  0.0791  0.2030  0.1321
13387OCT     C126773  11.593  20.019  21.172  0.1109 -0.0483  0.1590
13387OCT     C226774  11.397  20.443  21.004  0.1299 -0.3898 -0.3569
13388OCT     C126775  15.166   0.838   9.496  0.0944 -0.1231 -0.0568
13388OCT     C226776  15.465   0.466   9.487 -0.2772  0.5492  0.1633
13389OCT     C126777  16.393   9.676   9.491 -0.0033 -0.0411  0.1644
13389OCT     C226778  16.755   9.627   9.726  0.2310  0.0991 -0.1678
13390OCT     C126779   0.149  20.406  15.357  0.0852 -0.1992 -0.1759
13390OCT     C226780   0.364  20.660  15.684  0.1050 -0.2002  0.0077
13391OCT     C126781   3.867   4.964  12.016  0.1087 -0.2627 -0.1500
13391OCT     C226782   3.675   5.311  12.275  0.2202 -0.0401  0.2143
13392OCT     C126783   7.275  19.911  21.603 -0.0889 -0.0180 -0.1291
13392OCT     C226784   7.133  19.541  21.355 -0.0939  0.1195 -0.3411
13393OCT     C126785  10.790  21.467  13.359 -0.1702 -0.1146  0.2186
13393OCT     C226786  11.064  21.729  13.588 -0.1528 -0.0219 -0.4935
13394OCT     C126787  17.721  21.661   9.596 -0.0898  0.3157  0.2866
13394OCT     C226788  17.638  21.465  10.002 -0.0585 -0.0878 -0.1922
13395OCT     C126789   1.904  17.143  11.499  0.1878  0.0261  0.2736
13395OCT     C226790   1.734  17.031  11.070  0.0848 -0.1802  0.0067
13396OCT     C126791  21.654  11.776  11.807  0.2547 -0.2281  0.1413
13396OCT     C226792  21.621  12.139  12.129 -0.0670  0.1884  0.2961
13397OCT     C126793  16.925  14.814   6.461 -0.1220  0.0876 -0.1921
13397OCT     C226794  17.107  14.563   6.914 -0.0833 -0.0493  0.2068
13398OCT     C126795  14.457  18.130  10.125  0.2650 -0.0126  0.1951
13398OCT     C226796  14.293  18.274   9.697  0.1010 -0.0522 -0.1871
13399OCT     C126797  20.257   0.886  16.902  0.2675 -0.0428  0.0312
13399OCT     C226798  20.201   0.417  16.975 -0.2655  0.2877  0.0028
13400OCT     C126799   4.945  11.390   7.407 -0.1294 -0.1463  0.4154
13400OCT     C226800   5.087  11.635   7.758  0.0060 -0.0767  0.0688
13401OCT     C126801  21.746  16.454   9.290  0.0041  0.0343 -0.1682
13401OCT     C226802  22.093  16.233   9.201 -0.0301 -0.0683 -0.1872
13402OCT     C126803   5.967   4.633  21.637  0.0625 -0.2771  0.3594
13402OCT     C226804   6.155   4.963  21.915  0.2698 -0.2027 -0.1283
13403OCT     C126805  16.032   0.222  15.010 -0.2843  0.1325  0.0279
13403OCT     C226806  16.391  23.654  14.947  0.2144  0.1874  0.2093
13404OCT     C126807  18.627  15.380  13.500 -0.2324  0.0938 -0.0257
13404OCT     C226808  18.319  15.610  13.220  0.1352 -0.0941  0.5370
13405OCT     C126809   6.821  20.539  21.927  0.1641 -0.1434  0.2033
13405OCT     C226810   6.760  20.091  21.865  0.3087  0.2107 -0.2273
13406OCT     C126811   4.334  13.960   8.120 -0.0511 -0.1489  0.0263
13406OCT     C226812   3.998  13.724   7.900  0.2347 -0.2411  0.0563
13407OCT     C126813  16.791  18.960   2.300  0.0583  0.0309 -0.3805
13407OCT     C226814  16.768  18.487   2.200 -0.2275 -0.0665  0.2222
13408OCT     C126815  12.879   8.270  22.254  0.3635 -0.0017 -0.0897
13408OCT     C226816  12.830   8.692  22.349  0.3756 -0.3019 -0.1084
13409OCT     C126817  15.248   0.273  15.307 -0.0158 -0.0120 -0.0829
13409OCT     C226818  15.330  23.549  15.171  0.0287 -0.1811  0.2815
13410OCT     C126819   1.628  23.707  19.725 -0.1845 -0.0479 -0.3637
13410OCT     C226820   2.070   0.076  19.622 -0.2767  0.1674  0.0115
13411OCT     C126821   7.180   3.839  21.656 -0.2518  0.1558  0.3867
13411OCT     C226822   7.198   4.264  21.512 -0.0798  0.3668 -0.3579
13412OCT     C126823   5.549   6.209   3.141  0.0929 -0.0736 -0.1139
13412OCT     C226824   5.185   5.873   3.163 -0.3163  0.3955  0.3686
13413OCT     C126825   7.732   0.438   6.168 -0.3729  0.5998  0.1481
13413OCT     C226826   7.468   0.562   5.799 -0.2079  0.0834 -0.0874
13414OCT     C126827   9.056   3.274   5.271  0.2394 -0.1172  0.1893
13414OCT     C226828   9.553   3.321   5.426 -0.2147 -0.1877  0.0955
13415OCT     C126829   2.236  15.031   2.276 -0.3191  0.0491  0.1489
13415OCT     C226830   1.873  14.877   2.549  0.2948 -0.1374  0.0930
13416OCT     C126831   2.552  11.674   6.138  0.5216  0.0778  0.0007
13416OCT     C226832   2.689  12.092   5.955  0.2909 -0.0662 -0.0862
13417OCT     C126833  22.554  15.816  22.945 -0.0016  0.1254 -0.5103
13417OCT     C226834  22.241  15.726  22.626 -0.3330 -0.3677  0.3601
13418OCT     C126835   2.885  17.365  10.570 -0.0014 -0.3361 -0.2560
13418OCT     C226836   2.862  17.571  10.177 -0.0628  0.1248 -0.1841
13419OCT     C126837   8.072   4.945  11.681 -0.3854 -0.2415  0.0122
13419OCT     C226838   8.038   4.588  11.973  0.0008  0.0191  0.3209
13420OCT     C126839  11.084  22.114  15.959 -0.3376 -0.1370  0.4205
13420OCT     C226840  11.105  22.338  16.338  0.2390  0.1041 -0.3373
13421OCT     C126841  17.312  16.682   1.615 -0.4281 -0.1653 -0.1214
13421OCT     C226842  16.897  16.682   1.902 -0.3618  0.2338  0.0946
13422OCT     C126843  20.689   8.607  13.117 -0.0085 -0.2332  0.0178
13422OCT     C226844  21.108   8.783  12.915  0.3411  0.1314  0.1985
13423OCT     C126845   5.924   7.702  22.488  0.2932 -0.0676  0.3010
13423OCT     C226846   6.222   7.536  22.830  0.2133  0.0085  0.0397
13424OCT     C126847   4.969  21.744  11.185 -0.3321  0.0676  0.1236
13424OCT     C226848   5.052  21.931  10.822  0.1650  0.0727  0.3264
13425OCT     C126849  13.644  14.844  23.367 -0.2851  0.2232 -0.3238
13425OCT     C226850  14.016  15.109  23.329  0.2234 -0.2361 -0.2305
13426OCT     C126851   9.421   4.901   8.880 -0.1649 -0.4334  0.0581
13426OCT     C226852   9.089   4.644   9.157 -0.1849 -0.0411 -0.2178
13427OCT     C126853   2.137   9.538  14.454  0.3704 -0.1691 -0.1990
13427OCT     C226854   2.423   9.848  14.422 -0.2337  0.1464  0.3054
13428OCT     C126855  17.298   3.522   6.602  0.0833 -0.0981 -0.2185
13428OCT     C226856  17.240   3.106   6.339 -0.3219 -0.2660 -0.2977
13429OCT     C126857  14.804  11.572   4.166 -0.2098 -0.0984 -0.0104
13429OCT     C226858  14.605  11.923   4.374  0.2169  0.1045  0.0597
13430OCT     C126859   1.091   6.030   1.037 -0.1393  0.1982  0.2525
13430OCT     C226860   1.025   6.520   1.049 -0.0413  0.0171 -0.1454
13431OCT     C126861   9.748   9.519  11.900 -0.0183 -0.3638 -0.8609
13431OCT     C226862   9.743   9.250  12.278 -0.0962 -0.3791 -0.2258
13432OCT     C126863  17.946  12.481  10.010 -0.0367 -0.1786 -0.2477
13432OCT     C226864  18.235  12.650   9.710  0.1663 -0.4602  0.1771
13433OCT     C126865  19.057   1.117   9.198 -0.2016 -0.1160 -0.3113
13433OCT     C226866  19.153   1.541   9.301  0.0667  0.1738  0.1109
13434OCT     C126867  12.164  20.706  10.027 -0.1237 -0.1094 -0.1849
13434OCT     C226868  12.511  20.703   9.702  0.0656  0.3924 -0.1030
13435OCT     C126869  16.804   3.249   2.083 -0.2065 -0.1721  0.0764
13435OCT     C226870  16.718   3.448   1.648 -0.2288 -0.0842  0.1220
13436OCT     C126871  13.570  17.504   2.555  0.3392  0.0005 -0.2538
13436OCT     C226872  13.732  17.708   2.176  0.0408  0.0936 -0.0996
13437OCT     C126873  18.311  23.423  23.405  0.2426 -0.2569 -0.1924
13437OCT     C226874  18.604   0.028  23.354 -0.2399  0.2522 -0.1551
13438OCT     C126875  10.616   0.964   5.826 -0.1500  0.1609  0.2293
13438OCT     C226876  10.482   0.544   5.673  0.0995  0.1926  0.0083
13439OCT     C126877  17.038  15.978   9.284 -0.2920 -0.1635  0.1958
13439OCT     C226878  17.379  16.198   9.107  0.1825  0.1181  0.1145
13440OCT     C126879  10.494  20.713  18.067  0.1750 -0.0376  0.2311
13440OCT     C226880  10.327  20.260  17.862 -0.1258  0.0649  0.3168
13441OCT     C126881  17.302  11.300  22.987 -0.1229  0.2663 -0.0160
13441OCT     C226882  17.020  11.597  22.766  0.4036 -0.1816  0.1083
13442OCT     C126883   5.239  17.142   4.789 -0.1824  0.2538 -0.1924
13442OCT     C226884   5.091  16.756   4.606 -0.0315 -0.3983 -0.2947
13443OCT     C126885  19.913   7.041   5.746 -0.2114  0.1205  0.0817
13443OCT     C226886  19.457   7.184   5.889  0.3186 -0.1005  0.0224
13444OCT     C126887   7.514  11.437  16.412 -0.1252 -0.0548  0.2528
13444OCT     C226888   7.280  11.773  16.675  0.6253  0.0971  0.1866
13445OCT     C126889   6.028  10.781  17.542  0.2115  0.0999  0.1193
13445OCT     C226890   6.366  10.556  17.801  0.2155  0.3990 -0.1314
13446OCT     C126891   3.969  14.260   8.360  0.2480  0.6978 -0.1940
13446OCT     C226892   3.987  14.543   8.733  0.1667  0.1898 -0.3569
13447OCT     C126893  21.285  14.490  15.694 -0.3086  0.3110  0.0624
13447OCT     C226894  21.091  14.645  16.107 -0.0041  0.0890 -0.0855
13448OCT     C126895  10.421  21.888  14.212 -0.1381 -0.1126  0.0726
13448OCT     C226896  10.152  21.591  14.465  0.3258  0.3471  0.2729
13449OCT     C126897   6.841  13.193  14.373 -0.0501  0.1199  0.0165
13449OCT     C226898   6.631  13.503  14.641 -0.0979  0.3978  0.0337
13450OCT     C126899   2.012   3.732   6.708  0.4811 -0.2545  0.3882
13450OCT     C226900   1.721   3.357   6.813  0.0233  0.1240 -0.1371
13451OCT     C126901   7.059   3.523  20.676 -0.0431  0.1419 -0.4490
13451OCT     C226902   7.061   3.713  20.225  0.0582  0.1675 -0.1257
13452OCT     C126903  18.359   0.274  18.018 -0.1457 -0.3274  0.1903
13452OCT     C226904  18.034  23.711  18.265 -0.0862 -0.0033  0.2710
13453OCT     C126905  13.648  18.651  16.722  0.0641 -0.0800 -0.3420
13453OCT     C226906  13.532  18.346  17.065  0.2799  0.4325  0.2538
13454OCT     C126907  22.218   9.178  21.230 -0.1685  0.2019  0.0536
13454OCT     C226908  22.611   9.008  20.990 -0.3451  0.0324 -0.0461
13455OCT     C126909  11.909  22.891   1.182 -0.0528 -0.3483 -0.1066
13455OCT     C226910  12.104  22.474   1.213  0.3047  0.1596 -0.1242
13456OCT     C126911  22.936   2.741   6.499 -0.1943  0.2346  0.4934
13456OCT     C226912  23.065   3.137   6.716  0.1557 -0.1941 -0.1599
13457OCT     C126913  22.466  16.285  17.004  0.2235 -0.0810  0.2445
13457OCT     C226914  22.695  16.161  17.400  0.3377 -0.0910 -0.1428
13458OCT     C126915  10.334  16.357  21.505 -0.1163  0.1152 -0.0160
13458OCT     C226916  10.044  16.715  21.314 -0.3373 -0.2380  0.0014
13459OCT     C126917  11.717  18.467  14.542  0.1051  0.2280 -0.1152
13459OCT     C226918  11.655  18.163  14.901 -0.0976 -0.2174  0.1072
13460OCT     C126919  21.358  19.270  17.135 -0.3071 -0.1675  0.1993
13460OCT     C226920  21.276  19.694  17.306  0.2207 -0.3759 -0.1048
13461OCT     C126921  12.713  15.957  12.579  0.3266 -0.0281 -0.0634
13461OCT     C226922  12.328  15.814  12.321  0.0500  0.3324  0.3361
13462OCT     C126923  20.294  18.398  18.371 -0.2325 -0.0053  0.4872
13462OCT     C226924  20.653  18.509  18.121 -0.0547 -0.0935  0.0798
13463OCT     C126925   3.613  11.805  17.181 -0.1254 -0.2411 -0.0246
13463OCT     C226926   3.983  11.843  16.945 -0.2409 -0.0754  0.4357
13464OCT     C126927   1.234  20.173  17.407 -0.1025  0.0020 -0.0234
13464OCT     C226928   1.540  19.970  17.726 -0.3029 -0.0187  0.4567
13465OCT     C126929  20.115   6.081   4.749 -0.2170  0.1311 -0.1400
13465OCT     C226930  19.954   5.642   4.664  0.1539 -0.3187 -0.5510
13466OCT     C126931   3.354   2.136  23.606  0.2587  0.5877  0.4695
13466OCT     C226932   3.109   2.534   0.057  0.0954  0.1756 -0.1048
13467OCT     C126933   0.996  13.130  11.258  0.1865  0.2061  0.4263
13467OCT     C226934   0.876  12.666  11.198 -0.1926 -0.1332  0.1235
13468OCT     C126935   0.286  13.163   7.355  0.1029  0.1276  0.1044
13468OCT     C226936   0.412  13.468   7.638  0.0835 -0.5392  0.0018
13469OCT     C126937  20.279  18.534  19.951 -0.1248  0.3250  0.0040
13469OCT     C226938  20.159  18.798  19.556 -0.0863 -0.0788 -0.3179
13470OCT     C126939  23.265   6.279  13.247  0.0239  0.0769  0.1472
13470OCT     C226940  23.225   6.633  13.561  0.0073  0.1369 -0.0942
13471OCT     C126941  12.353  15.163   7.256  0.1118 -0.2312 -0.0723
13471OCT     C226942  12.061  14.996   7.567 -0.1214 -0.0047 -0.2631
13472OCT     C126943   0.131   4.384   4.654  0.3250  0.0701  0.6435
13472OCT     C226944   0.218   4.356   5.078  0.0576  0.3442  0.0401
13473OCT     C126945  22.582   9.236   8.410  0.0752 -0.2136 -0.2890
13473OCT     C226946  22.973   9.329   8.171 -0.2825 -0.1980 -0.0486
13474OCT     C126947  20.203  15.125  17.162 -0.0860  0.0302  0.1693
13474OCT     C226948  19.756  14.976  17.351  0.0675  0.0728 -0.5529
13475OCT     C126949  15.447   5.140  22.891  0.1603 -0.0031 -0.0390
13475OCT     C226950  15.501   4.749  23.254  0.0669  0.1613 -0.1126
13476OCT     C126951   2.268  10.744   0.109 -0.4283 -0.2238 -0.0341
13476OCT     C226952   2.441  10.368  23.675 -0.1395  0.2214 -0.0389
13477OCT     C126953  20.240  20.316   1.725  0.3386 -0.4432 -0.0948
13477OCT     C226954  20.601  20.650   1.766  0.1475 -0.1967 -0.2078
13478OCT     C126955   5.425   1.410  20.716  0.3506  0.5422 -0.3747
13478OCT     C226956   5.144   1.022  20.777 -0.1577  0.0085  0.1328
13479OCT     C126957  13.615  12.523  10.931 -0.0679 -0.1334  0.0252
13479OCT     C226958  13.611  12.987  11.009  0.2459 -0.2539 -0.1217
13480OCT     C126959  22.065   0.123  23.399 -0.0496  0.2444 -0.3950
13480OCT     C226960  22.412   0.104  23.031  0.2814  0.0615 -0.1495
13481OCT     C126961  15.060   7.046   1.037 -0.0126  0.2340 -0.1217
13481OCT     C226962  15.062   6.837   1.439 -0.3008  0.3205  0.3754
13482OCT     C126963   4.937   4.776  15.416  0.2488  0.1561 -0.2573
13482OCT     C226964   4.960   4.289  15.391  0.0593 -0.2167 -0.0512
13483OCT     C126965   6.517   2.540   6.675 -0.0250 -0.2301  0.0571
13483OCT     C226966   6.308   2.443   6.237 -0.4044 -0.1236 -0.0948
13484OCT     C126967  17.628  21.838  16.132  0.0569 -0.1158  0.4030
13484OCT     C226968  17.773  21.430  16.004 -0.0710  0.2428 -0.3933
13485OCT     C126969   4.129  18.938   4.995 -0.1387  0.1409  0.0787
13485OCT     C226970   4.394  19.332   5.163  0.0942 -0.2689 -0.0218
13486OCT     C126971  11.483   3.233  12.315 -0.4114  0.3652  0.0454
13486OCT     C226972  11.914   3.227  12.510  0.1025  0.1634 -0.0657
13487OCT     C126973  13.419  12.881  22.957  0.0835  0.1607 -0.1395
13487OCT     C226974  13.035  13.026  23.110  0.3171 -0.0490  0.1914
13488OCT     C126975  22.194   1.594  11.761 -0.0607 -0.3256  0.0308
13488OCT     C226976  22.594   1.539  12.008  0.1302  0.1291  0.0551
13489OCT     C126977   4.398   5.880  13.375  0.0052  0.1093 -0.0358
13489OCT     C226978   4.762   6.107  13.189 -0.3769  0.0504  0.0814
13490OCT     C126979   5.703  17.902  15.124  0.1659  0.1096  0.2928
13490OCT     C226980   6.149  17.901  15.168 -0.3510  0.3120  0.0703
13491OCT     C126981   7.227  14.178   6.885  0.2844  0.0965 -0.4523
13491OCT     C226982   6.848  14.229   6.708 -0.2380 -0.1109 -0.2434
13492OCT     C126983  16.663  11.834  21.265  0.2645 -0.4033  0.0910
13492OCT     C226984  16.616  11.438  21.455  0.1124  0.0116  0.1676
13493OCT     C126985   8.375   3.102   5.212  0.1785  0.2380  0.2745
13493OCT     C226986   8.746   2.797   5.162 -0.0299 -0.0983 -0.0316
13494OCT     C126987  14.016  16.985   6.667  0.2404 -0.0232 -0.2068
13494OCT     C226988  14.011  16.755   6.194 -0.0279 -0.2290 -0.2569
13495OCT     C126989   2.179  19.480  11.715  0.2367 -0.2357  0.1794
13495OCT     C226990   1.971  19.069  11.716  0.1939  0.3313  0.2323
13496OCT     C126991   1.416  10.028  20.794  0.3976  0.3235  0.0193
13496OCT     C226992   1.021  10.251  20.888 -0.2006 -0.0989 -0.0756
13497OCT     C126993  15.933  16.660   0.972  0.1972  0.0960 -0.2128
13497OCT     C226994  16.050  16.415   1.339  0.0013 -0.3970  0.1044
13498OCT     C126995  13.365   2.377  21.021 -0.1169 -0.2007 -0.4056
13498OCT     C226996  13.836   2.267  20.866  0.0520  0.1032 -0.0590
13499OCT     C126997  14.742   1.755  10.632  0.0182 -0.3142 -0.0280
13499OCT     C226998  14.478   1.663  10.989 -0.1055 -0.1141 -0.2169
13500OCT     C126999  12.235  11.370  12.955 -0.3140  0.0980 -0.1650
13500OCT     C227000  12.635  11.483  12.761  0.0047 -0.2314 -0.0390
13501OCT     C127001   4.128   5.930   7.678  0.0027  0.4736  0.0954
13501OCT     C227002   4.451   6.306   7.597  0.0636  0.0336  0.0166
13502OCT     C127003  13.718  23.009  21.887  0.1053 -0.1575 -0.1024
13502OCT     C227004  13.689  23.043  21.439 -0.2167 -0.2060  0.1691
13503OCT     C127005  10.638   0.390   8.223 -0.1057  0.0562  0.1460
13503OCT     C227006  10.882   0.127   7.870 -0.2538  0.0416 -0.0470
13504OCT     C127007  22.316   7.393  11.397 -0.3637  0.3535  0.0690
13504OCT     C227008  22.488   7.736  11.607  0.0615  0.0705  0.3641
13505OCT     C127009   4.535   0.784  15.943 -0.2863 -0.2732  0.1175
13505OCT     C227010   4.180   0.642  16.183  0.2159  0.1405  0.1198
13506OCT     C127011  11.018  20.924  15.378  0.1056 -0.1395  0.0468
13506OCT     C227012  11.177  21.099  15.756 -0.2135  0.2218  0.0592
13507OCT     C127013  14.314   2.200  20.856  0.1230  0.1175 -0.2464
13507OCT     C227014  14.132   2.619  20.658 -0.0653 -0.1951  0.0491
13508OCT     C127015   8.995  15.698   0.996  0.1831 -0.2683 -0.1159
13508OCT     C227016   9.084  15.250   1.086  0.0889  0.1752  0.3796
13509OCT     C127017  23.588   5.496  22.052  0.1172 -0.0879  0.4442
13509OCT     C227018   0.234   5.693  22.261 -0.0555 -0.1888  0.2599
13510OCT     C127019  15.005   3.411  23.033  0.2722  0.3531  0.3743
13510OCT     C227020  15.164   3.278  23.477 -0.4545 -0.0880 -0.2928
13511OCT     C127021  22.972  15.189   9.077  0.2831 -0.0998 -0.2948
13511OCT     C227022  23.264  15.558   9.088 -0.0920 -0.3797 -0.0432
13512OCT     C127023   5.395  14.741   9.606  0.1314 -0.2842 -0.3365
13512OCT     C227024   5.060  14.715   9.927 -0.0750 -0.0027  0.3476
13513OCT     C127025   1.684  15.752   8.295  0.0705  0.1729 -0.1810
13513OCT     C227026   1.325  15.567   8.484  0.0063  0.1678  0.1858
13514OCT     C127027   2.711  14.194  15.952  0.0040  0.0168  0.1632
13514OCT     C227028   3.140  14.144  15.854 -0.0078 -0.2180  0.4545
13515OCT     C127029  13.270  14.472   9.777  0.2312 -0.0885 -0.0612
13515OCT     C227030  13.183  14.483  10.220  0.1934 -0.0707  0.1595
13516OCT     C127031   6.142   8.107   8.660  0.0650  0.1375 -0.0783
13516OCT     C227032   5.776   8.015   9.044 -0.0213  0.0433  0.0756
13517OCT     C127033  17.948   2.446  19.994  0.0353 -0.1080  0.2033
13517OCT     C227034  17.697   2.077  20.135  0.3024  0.0715  0.0721
13518OCT     C127035  12.257   2.900  20.220  0.3916  0.1861 -0.0090
13518OCT     C227036  12.373   3.330  20.052 -0.0044 -0.0444  0.2533
13519OCT     C127037  19.187   0.248  20.830  0.0013 -0.1251  0.3933
13519OCT     C227038  19.327   0.335  20.419 -0.0411 -0.2733 -0.0903
13520OCT     C127039  15.433  10.146   9.638  0.0505 -0.2736  0.3139
13520OCT     C227040  15.389  10.262   9.093  0.0615  0.1837 -0.2023
13521OCT     C127041   9.537   7.489   7.482 -0.3138 -0.1595 -0.1352
13521OCT     C227042   9.516   7.071   7.342 -0.0686 -0.2644 -0.0185
13522OCT     C127043  16.526   6.353  11.475  0.1325 -0.1036  0.4400
13522OCT     C227044  16.493   6.748  11.747 -0.0060 -0.1981  0.2256
13523OCT     C127045  20.059   6.034   7.577 -0.0687 -0.0841 -0.2579
13523OCT     C227046  20.523   6.152   7.445  0.3707  0.3303  0.2467
13524OCT     C127047  11.672  13.859  23.320  0.0849  0.0516 -0.2231
13524OCT     C227048  11.741  13.381  23.437  0.4885  0.2666 -0.2879
13525OCT     C127049   6.431  13.859   7.429  0.0243 -0.1980 -0.2142
13525OCT     C227050   6.729  13.622   7.625  0.2585  0.0832 -0.1651
13526OCT     C127051  10.634  17.424   1.747 -0.1063 -0.1110  0.0995
13526OCT     C227052  10.336  17.767   1.615 -0.3147 -0.0100  0.0918
13527OCT     C127053   7.910   9.057  23.623  0.2928  0.1229 -0.0283
13527OCT     C227054   8.308   8.879   0.056  0.1187  0.3253 -0.2131
13528OCT     C127055   7.468   0.479  13.587 -0.0341  0.1430  0.2480
13528OCT     C227056   7.927   0.640  13.640 -0.4358 -0.4763 -0.2578
13529OCT     C127057   6.034  14.480   8.051  0.2749  0.1025  0.2181
13529OCT     C227058   5.563  14.527   7.992 -0.1446 -0.1576  0.2125
13530OCT     C127059   8.675  12.422   9.646 -0.0213 -0.2037  0.1453
13530OCT     C227060   8.880  12.078   9.927 -0.1122 -0.2271  0.1013
13531OCT     C127061   3.990   0.548  21.955 -0.1604 -0.3977 -0.3633
13531OCT     C227062   4.401   0.693  22.162 -0.2097  0.0503 -0.0198
13532OCT     C127063  17.765   8.135  23.103  0.0538  0.0474  0.1342
13532OCT     C227064  18.123   7.787  23.203 -0.2715  0.1506 -0.1519
13533OCT     C127065  12.342  11.449  11.563 -0.0939 -0.3121 -0.0181
13533OCT     C227066  11.875  11.422  11.347  0.1774 -0.3630  0.0031
13534OCT     C127067  17.330   6.180   3.053  0.2630  0.0795  0.0960
13534OCT     C227068  17.093   5.861   2.878 -0.0403 -0.0636 -0.1763
13535OCT     C127069  17.175  15.436  21.825 -0.2725  0.1995  0.0901
13535OCT     C227070  17.320  15.526  21.375 -0.0057  0.0146  0.0975
13536OCT     C127071   2.516   0.095  17.683 -0.1358  0.2548 -0.2560
13536OCT     C227072   2.104   0.005  17.503  0.0605 -0.3023 -0.0378
13537OCT     C127073  14.804  10.458  20.034 -0.1289 -0.1603 -0.1302
13537OCT     C227074  15.152  10.458  20.353  0.0486 -0.0418 -0.2929
13538OCT     C127075  20.168  10.497  20.473 -0.1166 -0.3187  0.0069
13538OCT     C227076  19.741  10.400  20.301  0.1375 -0.1365 -0.0548
13539OCT     C127077   7.016   1.805   2.891  0.1405 -0.2539  0.0387
13539OCT     C227078   6.934   1.831   2.448  0.1413  0.3664 -0.0044
13540OCT     C127079  17.208  20.990   0.552 -0.1786  0.1121 -0.2410
13540OCT     C227080  17.401  20.733   0.856  0.0597  0.1623  0.2737
13541OCT     C127081  20.466   0.673  12.973 -0.0882 -0.0735  0.1142
13541OCT     C227082  20.140   0.427  13.244  0.2964  0.1904  0.1987
13542OCT     C127083  15.142   1.918  18.765 -0.2029 -0.1303  0.2201
13542OCT     C227084  14.936   2.273  18.519 -0.0772  0.0245 -0.2033
13543OCT     C127085  15.110  10.927  20.556  0.5527 -0.2481  0.1774
13543OCT     C227086  15.108  10.957  20.074  0.2305 -0.1052  0.1465
13544OCT     C127087  22.320   8.044  16.103  0.0528 -0.1433 -0.2254
13544OCT     C227088  22.671   8.161  16.395 -0.6353  0.2580  0.0617
13545OCT     C127089  17.387   3.840  14.161  0.0052  0.0595  0.0800
13545OCT     C227090  17.161   4.016  13.875 -0.2630  0.0365  0.0580
13546OCT     C127091  22.297  18.024  19.587  0.2192 -0.2331  0.1003
13546OCT     C227092  21.900  18.078  19.381  0.0753  0.0852  0.1529
13547OCT     C127093   0.102  17.992  17.487 -0.1006 -0.0756  0.0609
13547OCT     C227094   0.507  17.931  17.726 -0.2994  0.0370  0.3569
13548OCT     C127095   5.469  17.945  11.467  0.1830  0.1167  0.0672
13548OCT     C227096   5.561  17.695  11.105 -0.0633 -0.0132 -0.3296
13549OCT     C127097  16.196   1.927   7.514  0.1469  0.0736 -0.3968
13549OCT     C227098  15.937   2.095   7.891 -0.1998 -0.0136  0.0213
13550OCT     C127099   7.934  17.030   5.194 -0.4641 -0.3433  0.3221
13550OCT     C227100   7.829  16.711   5.483 -0.3418  0.2997 -0.1082
13551OCT     C127101  21.234  23.471  20.230 -0.3710  0.0653 -0.1375
13551OCT     C227102  21.444  23.173  20.500  0.0610  0.1917  0.0242
13552OCT     C127103  12.433   7.526  12.620  0.0563  0.1984 -0.1432
13552OCT     C227104  11.975   7.689  12.711  0.1313  0.0032 -0.0663
13553OCT     C127105   9.947  11.935  16.477  0.1440  0.1143  0.2587
13553OCT     C227106   9.941  11.447  16.397  0.1206  0.1318  0.2123
13554OCT     C127107   8.954  18.644  11.343  0.2724  0.0999  0.0272
13554OCT     C227108   8.970  18.175  11.360  0.2841 -0.1471  0.2841
13555OCT     C127109  10.609  20.373   9.490 -0.3153  0.1377 -0.1323
13555OCT     C227110  10.546  19.972   9.279 -0.0317  0.0106 -0.1938
13556OCT     C127111   7.416  13.249  23.430 -0.1332  0.0421  0.1134
13556OCT     C227112   7.709  13.088  23.706 -0.1488  0.1169  0.0600
13557OCT     C127113  21.561   9.779   3.311 -0.0496  0.2316  0.0238
13557OCT     C227114  21.908   9.837   2.985  0.0635  0.1298  0.1113
13558OCT     C127115  17.159  15.600   6.284  0.3199 -0.0829 -0.2109
13558OCT     C227116  16.903  15.322   6.541 -0.3547  0.1957 -0.0362
13559OCT     C127117   1.594  15.364   3.342 -0.1165 -0.3006  0.3436
13559OCT     C227118   1.614  15.397   3.806  0.1143  0.0069  0.0138
13560OCT     C127119   8.183  20.703  12.835  0.0522 -0.0361  0.1224
13560OCT     C227120   8.358  20.284  12.910 -0.0091  0.0203 -0.1307
13561OCT     C127121  10.045   4.646  14.223 -0.4511 -0.0867  0.1111
13561OCT     C227122  10.390   4.980  14.175 -0.1695  0.2522  0.2194
13562OCT     C127123  17.670  16.994   4.453  0.0165 -0.1632  0.1365
13562OCT     C227124  17.788  16.673   4.142  0.2792  0.1564  0.4157
13563OCT     C127125  11.992   4.912   6.030 -0.0792  0.2755 -0.3451
13563OCT     C227126  11.774   4.786   5.625  0.2551  0.2403 -0.0082
13564OCT     C127127   6.190   3.485  18.911  0.2502  0.0263 -0.2612
13564OCT     C227128   6.287   3.120  19.173  0.0228  0.2433 -0.0380
13565OCT     C127129  20.659  20.174   6.922  0.1832 -0.1059  0.2111
13565OCT     C227130  21.132  20.123   7.114 -0.0604 -0.0552 -0.0124
13566OCT     C127131  15.062  15.333  17.268 -0.1119 -0.1339  0.0238
13566OCT     C227132  15.001  14.868  17.211  0.0282 -0.1851  0.1707
13567OCT     C127133  15.231  19.132  20.568  0.1009 -0.0508 -0.2447
13567OCT     C227134  14.886  18.760  20.434  0.3038 -0.1234  0.1521
13568OCT     C127135  18.734   4.031  17.515  0.2962 -0.0007  0.1346
13568OCT     C227136  18.642   3.944  17.036 -0.0157  0.0224 -0.1581
13569OCT     C127137  12.555  11.027  20.523 -0.2797  0.1028  0.1871
13569OCT     C227138  12.811  11.331  20.250  0.1836 -0.1064  0.0409
13570OCT     C127139   7.784   1.363   7.585 -0.4327  0.1417  0.3393
13570OCT     C227140   7.969   1.326   7.155 -0.0676  0.4142  0.1758
13571OCT     C127141   8.393   7.473   9.936  0.2566  0.3728 -0.2131
13571OCT     C227142   8.325   7.753  10.269  0.1646 -0.2031  0.0687
13572OCT     C127143  21.609  20.703  22.104 -0.1077 -0.3878  0.0286
13572OCT     C227144  21.603  20.252  21.960 -0.1348 -0.1891 -0.0699
13573OCT     C127145   9.924  13.616  20.999 -0.2400  0.2548 -0.1209
13573OCT     C227146  10.320  13.677  21.251  0.1161  0.1101  0.4306
13574OCT     C127147   9.421  20.712   0.975  0.0678 -0.2402 -0.0034
13574OCT     C227148   9.463  21.166   1.028 -0.2172  0.1609 -0.1315
13575OCT     C127149   7.108  10.641  18.513  0.1397  0.1632 -0.1157
13575OCT     C227150   7.566  10.649  18.596  0.0516 -0.0854 -0.2348
13576OCT     C127151   2.382   3.050  10.674 -0.0373  0.1835  0.2003
13576OCT     C227152   2.091   2.711  10.665 -0.1474  0.3028  0.0481
13577OCT     C127153  13.658  17.693   7.065  0.0357 -0.1037  0.2258
13577OCT     C227154  14.050  17.949   6.899 -0.2632 -0.2035  0.4831
13578OCT     C127155  17.049  18.569  15.721 -0.1559  0.4426 -0.3130
13578OCT     C227156  16.660  18.570  15.489  0.1749 -0.1099 -0.0320
13579OCT     C127157  22.590  20.198  17.637 -0.1752  0.0645 -0.1458
13579OCT     C227158  22.165  20.299  17.773 -0.0885 -0.1104 -0.0057
13580OCT     C127159  10.552  19.130  10.770 -0.1730 -0.2686 -0.0661
13580OCT     C227160  10.681  18.734  10.976  0.1683  0.3794 -0.1903
13581OCT     C127161  10.075   5.726   4.233 -0.0340 -0.1358 -0.3121
13581OCT     C227162   9.922   6.107   4.426  0.3132 -0.4188  0.1285
13582OCT     C127163  21.958   6.039   8.893  0.5459 -0.0109 -0.1926
13582OCT     C227164  22.116   5.694   9.225 -0.2521 -0.2367 -0.1983
13583OCT     C127165   4.158  18.372  13.233 -0.1298 -0.1731  0.0795
13583OCT     C227166   4.142  17.906  13.459 -0.1750  0.1757  0.2153
13584OCT     C127167   3.749  12.117  16.510 -0.6128  0.0567 -0.3344
13584OCT     C227168   3.708  12.556  16.417 -0.0334  0.0608 -0.2634
13585OCT     C127169   5.396  15.629   5.042  0.2516  0.0485  0.1012
13585OCT     C227170   5.363  15.820   5.470  0.3035 -0.0530 -0.0402
13586OCT     C127171   6.693  17.692  16.599  0.3232 -0.3110 -0.0535
13586OCT     C227172   6.261  17.800  16.797 -0.2818 -0.2113 -0.0492
13587OCT     C127173  12.675   6.377  22.890  0.0227 -0.1209 -0.0579
13587OCT     C227174  12.747   6.510  23.395 -0.0451  0.1495  0.0892
13588OCT     C127175  19.928   4.972  16.254 -0.0470  0.1147 -0.0222
13588OCT     C227176  20.008   5.444  16.453 -0.1428 -0.0749 -0.1400
13589OCT     C127177  21.013  18.755   5.193 -0.4097  0.0766 -0.2541
13589OCT     C227178  21.242  18.347   5.102  0.4482  0.0776 -0.3400
13590OCT     C127179   1.328   8.958   3.730 -0.2022  0.1579  0.1636
13590OCT     C227180   1.004   9.088   4.071 -0.0047 -0.1620 -0.2742
13591OCT     C127181  12.887  11.801  22.076 -0.1004  0.1401  0.6094
13591OCT     C227182  12.775  12.268  22.019  0.2095 -0.1640 -0.1344
13592OCT     C127183   5.983  17.656   6.651  0.0670 -0.0085 -0.1251
13592OCT     C227184   5.690  17.342   6.838 -0.6579  0.1758 -0.0246
13593OCT     C127185   5.539   7.876   7.942  0.0335  0.0100 -0.2823
13593OCT     C227186   5.319   7.869   8.356 -0.1926  0.2523 -0.1183
13594OCT     C127187  17.793  18.028  15.609  0.3196 -0.0322 -0.1156
13594OCT     C227188  17.821  18.446  15.756  0.4048  0.0964 -0.0974
13595OCT     C127189   0.355  14.564  10.805 -0.1159 -0.0873 -0.0232
13595OCT     C227190   0.160  14.255  11.137  0.4201 -0.3185 -0.4035
13596OCT     C127191   8.531  20.614  17.013  0.0704 -0.2496  0.0990
13596OCT     C227192   8.100  20.530  17.071  0.0617 -0.0065 -0.1744
13597OCT     C127193  22.907  10.899  15.437  0.3323 -0.0098  0.2514
13597OCT     C227194  22.629  10.847  15.008 -0.0762  0.1483 -0.2485
13598OCT     C127195   8.058  10.681  16.468  0.2376 -0.1024  0.0041
13598OCT     C227196   8.505  10.788  16.542 -0.0616 -0.0988  0.1415
13599OCT     C127197  11.801   9.070  20.165  0.0551 -0.0876  0.1507
13599OCT     C227198  11.927   8.615  20.174  0.0455 -0.2633 -0.1870
13600OCT     C127199  12.856   5.999   3.305 -0.0458  0.1583 -0.3028
13600OCT     C227200  12.531   6.032   2.975  0.0247 -0.0993  0.1170
13601OCT     C127201  20.399  21.769   1.878 -0.3009  0.0823 -0.0269
13601OCT     C227202  19.969  21.667   2.056 -0.1351  0.0557 -0.1351
13602OCT     C127203  21.882  21.583  19.174  0.1299  0.0234  0.2346
13602OCT     C227204  21.960  21.158  19.245  0.4570 -0.2884  0.3479
13603OCT     C127205  22.364  14.717  15.872 -0.0220  0.5181 -0.2069
13603OCT     C227206  22.153  14.361  16.151 -0.2358  0.3211 -0.2502
13604OCT     C127207  19.141  22.326   7.132  0.2755 -0.1635  0.0752
13604OCT     C227208  18.727  22.462   7.361  0.0081 -0.2615  0.1985
13605OCT     C127209  15.334   8.480  12.736  0.0765  0.1789 -0.0372
13605OCT     C227210  15.679   8.657  12.542 -0.0962  0.2058 -0.7070
13606OCT     C127211  10.367  18.485   2.651  0.0218 -0.0273 -0.1492
13606OCT     C227212  10.674  18.573   2.235 -0.1611 -0.0325  0.0313
13607OCT     C127213  23.340  17.020  11.165  0.0626 -0.1270  0.2688
13607OCT     C227214   0.104  17.029  11.294  0.1530 -0.0207  0.1926
13608OCT     C127215  11.732  23.350  22.693 -0.1649  0.2934  0.0885
13608OCT     C227216  12.022  23.207  23.051  0.2008 -0.2383 -0.1434
13609OCT     C127217  14.890  23.003  15.978 -0.1715 -0.0885 -0.0723
13609OCT     C227218  14.833  22.525  15.911 -0.0959  0.4227  0.0492
13610OCT     C127219  17.265   7.575  12.781 -0.0916 -0.0745 -0.2407
13610OCT     C227220  16.882   7.530  13.048  0.1496 -0.0273 -0.0267
13611OCT     C127221  10.666  17.826   4.192 -0.0669 -0.0464 -0.1268
13611OCT     C227222  10.976  17.427   4.232 -0.0412  0.2033  0.0567
13612OCT     C127223   6.745   8.414  14.393 -0.0147 -0.1694 -0.0257
13612OCT     C227224   6.936   8.210  13.975  0.1041  0.1530  0.1026
13613OCT     C127225  21.891  18.962  23.733  0.1686 -0.1289 -0.0379
13613OCT     C227226  22.119  18.860   0.365 -0.0161  0.0920  0.5118
13614OCT     C127227   6.297   6.393   5.051 -0.3444  0.0326  0.0108
13614OCT     C227228   6.383   6.878   5.272  0.1647 -0.1419  0.0247
13615OCT     C127229   6.774  14.587  20.216  0.3321 -0.0449  0.0877
13615OCT     C227230   7.153  14.744  20.408  0.0374 -0.0866 -0.2515
13616OCT     C127231  21.211  17.084   9.347  0.5425 -0.1078 -0.0975
13616OCT     C227232  20.877  17.034   9.696 -0.4183  0.1249 -0.0227
13617OCT     C127233  12.126   2.926  15.686  0.1052  0.0567  0.5058
13617OCT     C227234  11.803   2.869  16.027  0.0561 -0.3206  0.1423
13618OCT     C127235  18.399   3.974   5.485 -0.0589  0.1746 -0.1375
13618OCT     C227236  18.731   4.154   5.768  0.0450 -0.2090  0.0204
13619OCT     C127237   8.504  12.571  21.427 -0.1111  0.0719  0.1011
13619OCT     C227238   8.520  12.940  21.137  0.1557 -0.3193  0.5005
13620OCT     C127239   6.044  19.482   2.576  0.0727  0.2672 -0.3227
13620OCT     C227240   6.274  19.391   2.211  0.2298  0.1326 -0.1248
13621OCT     C127241  18.295   5.554  12.872 -0.3582 -0.2221  0.1484
13621OCT     C227242  18.501   5.950  12.780  0.2015 -0.0417  0.0861
13622OCT     C127243  19.240   3.597   8.862 -0.1862  0.1263 -0.2707
13622OCT     C227244  19.269   3.535   9.310 -0.0301 -0.0981  0.1514
13623OCT     C127245   2.216   1.038   5.032  0.1984 -0.0389 -0.0765
13623OCT     C227246   2.201   0.610   5.129  0.1704 -0.2862  0.2487
13624OCT     C127247   8.440  19.804   6.984 -0.0195 -0.0308 -0.0821
13624OCT     C227248   8.535  19.401   7.105 -0.1221 -0.0615 -0.2022
13625OCT     C127249   6.932   0.837   2.370  0.0618  0.0426  0.0604
13625OCT     C227250   6.901   0.891   2.862 -0.0094  0.1370  0.0475
13626OCT     C127251   8.449  11.323   8.853 -0.1145 -0.2188 -0.3196
13626OCT     C227252   7.988  11.405   8.694  0.4880 -0.0139 -0.1647
13627OCT     C127253  14.256  15.127   4.892 -0.0791 -0.0432 -0.3146
13627OCT     C227254  14.347  15.603   4.639 -0.7514 -0.0223  0.1031
13628OCT     C127255  23.387  21.501  16.190 -0.0416 -0.0471 -0.1102
13628OCT     C227256  23.318  21.998  16.301  0.0532  0.0271  0.2542
13629OCT     C127257  23.276   5.602  19.444 -0.1665 -0.1116  0.2888
13629OCT     C227258  22.996   5.598  19.828  0.1249 -0.2759 -0.2006
13630OCT     C127259   5.512   4.957   6.910 -0.1878  0.2481 -0.0083
13630OCT     C227260   5.687   4.692   6.522  0.0243 -0.2760 -0.0695
13631OCT     C127261  11.408  19.045   6.922 -0.1111 -0.0469 -0.0393
13631OCT     C227262  11.749  19.244   6.685 -0.1942 -0.0070 -0.3712
13632OCT     C127263  13.383  19.246   5.362 -0.1429 -0.0950  0.1095
13632OCT     C227264  13.692  19.063   5.060 -0.2985 -0.1787 -0.0901
13633OCT     C127265   4.459  15.417   8.099 -0.3566  0.1543  0.0178
13633OCT     C227266   4.671  14.965   8.079 -0.0690 -0.0165  0.0795
13634OCT     C127267  21.917   5.235  23.624 -0.2794  0.0679 -0.4916
13634OCT     C227268  22.167   5.232  23.218 -0.0584  0.3168 -0.1608
13635OCT     C127269   5.393  17.936  18.211 -0.0330  0.0822  0.0874
13635OCT     C227270   5.116  17.658  18.456  0.1159 -0.0042 -0.0360
13636OCT     C127271   8.746   9.719  13.779 -0.1821 -0.1939  0.0926
13636OCT     C227272   8.927   9.274  13.823  0.1630  0.3574 -0.0048
13637OCT     C127273   9.679  21.362   3.198 -0.1016  0.2920  0.1834
13637OCT     C227274   9.702  21.562   2.732 -0.2588  0.2038  0.0669
13638OCT     C127275   2.481  20.633  17.193  0.4003 -0.0615  0.2334
13638OCT     C227276   2.067  20.605  17.449 -0.2705  0.2333  0.0718
13639OCT     C127277  12.623  23.660   7.668  0.2800  0.3432 -0.0323
13639OCT     C227278  12.266  23.319   7.560 -0.5540 -0.1591  0.2197
13640OCT     C127279   6.305  17.341  20.314 -0.0206 -0.3814 -0.2728
13640OCT     C227280   6.110  16.902  20.250 -0.0758 -0.1310 -0.0561
13641OCT     C127281   8.342  15.649   3.613 -0.0924 -0.0562  0.0215
13641OCT     C227282   7.936  15.556   3.402  0.0186 -0.0084  0.4828
13642OCT     C127283   9.147  12.185  14.794 -0.1365 -0.1263  0.0289
13642OCT     C227284   9.090  12.542  15.161 -0.1041  0.1153  0.0347
13643OCT     C127285  12.212   5.395   6.805  0.1400  0.0751  0.1923
13643OCT     C227286  12.617   5.134   6.764 -0.0804 -0.1313  0.1067
13644OCT     C127287   0.071   8.810  16.392  0.2531  0.2831  0.1608
13644OCT     C227288   0.419   8.931  16.742  0.0708 -0.4740 -0.1376
13645OCT     C127289   5.334   1.515   3.269 -0.1148 -0.1104 -0.0857
13645OCT     C227290   5.722   1.569   3.069 -0.3177 -0.2009  0.1871
13646OCT     C127291  22.337   1.624  20.055 -0.0054 -0.0884 -0.0625
13646OCT     C227292  22.758   1.415  20.191  0.0197 -0.1325 -0.2838
13647OCT     C127293  15.471   1.432   9.050 -0.0587 -0.0682 -0.0086
13647OCT     C227294  15.680   1.074   9.245  0.0625  0.0845  0.2731
13648OCT     C127295  15.050   6.569   4.269  0.2426  0.3163 -0.0469
13648OCT     C227296  14.907   6.179   4.493  0.0725  0.0210  0.1503
13649OCT     C127297   5.557  11.402   1.784 -0.3384 -0.0182  0.1994
13649OCT     C227298   5.334  11.299   1.438  0.4151 -0.1323 -0.2175
13650OCT     C127299  18.633   8.165  23.499 -0.2594  0.1388 -0.0394
13650OCT     C227300  18.857   7.906  23.741 -0.1979 -0.1450  0.1298
13651OCT     C127301  22.764  10.953  23.296 -0.1325 -0.2116  0.0925
13651OCT     C227302  22.761  11.362  23.451  0.1039 -0.1328  0.1808
13652OCT     C127303   8.359   4.755   9.021 -0.0131  0.0338  0.0547
13652OCT     C227304   8.555   5.016   9.409  0.0552  0.5574  0.1254
13653OCT     C127305  22.444   0.905   8.525  0.3635 -0.1899 -0.1088
13653OCT     C227306  22.527   1.364   8.447  0.1638  0.2938  0.0748
13654OCT     C127307  17.844  18.698   2.884 -0.2603  0.1665 -0.0213
13654OCT     C227308  17.978  19.125   2.928  0.0322  0.1546 -0.1802
13655OCT     C127309  12.101  12.590   9.864  0.0617  0.0341 -0.0042
13655OCT     C227310  12.413  12.470   9.528 -0.2054  0.3269  0.0437
13656OCT     C127311  18.844   7.161  11.879  0.1390  0.0193 -0.0909
13656OCT     C227312  19.187   7.337  11.582 -0.1407 -0.0156  0.4457
13657OCT     C127313   7.189  18.536  20.137 -0.0107  0.2998 -0.2255
13657OCT     C227314   7.065  18.880  20.395 -0.0533 -0.1815  0.2353
13658OCT     C127315   8.396  23.518   5.001 -0.2967 -0.0455  0.4953
13658OCT     C227316   8.584  23.246   4.720  0.1260 -0.1190 -0.1289
13659OCT     C127317   5.331   5.764  18.032 -0.2203  0.4360 -0.0184
13659OCT     C227318   5.491   5.386  18.312  0.2260 -0.1281 -0.0981
13660OCT     C127319  12.092  12.587  19.966 -0.1750  0.2991  0.1223
13660OCT     C227320  11.778  12.265  19.842  0.3490 -0.0874 -0.1608
13661OCT     C127321   7.777  16.181   0.501 -0.0362  0.0265  0.1655
13661OCT     C227322   7.524  15.952   0.822  0.2365 -0.1583 -0.0041
13662OCT     C127323  14.241   1.740   0.590 -0.1700  0.3719 -0.0529
13662OCT     C227324  14.334   1.271   0.699 -0.0799  0.1293  0.1582
13663OCT     C127325   4.111   0.423  18.354 -0.0203  0.0247  0.0773
13663OCT     C227326   4.104   0.262  18.806 -0.0172 -0.0554  0.2613
13664OCT     C127327  15.692   7.708   5.564  0.0505 -0.1014  0.1529
13664OCT     C227328  15.595   7.302   5.554  0.2280  0.0833 -0.2717
13665OCT     C127329  10.859   0.063  12.941 -0.2020 -0.2262 -0.1759
13665OCT     C227330  10.719  23.500  12.638 -0.0179  0.0641 -0.1911
13666OCT     C127331  15.286   8.769  18.661 -0.2819  0.1781 -0.0785
13666OCT     C227332  15.355   8.682  18.217 -0.0851  0.0972  0.0632
13667OCT     C127333   0.085  21.037   9.729  0.0399 -0.3741  0.4142
13667OCT     C227334   0.114  21.042   9.215 -0.2514 -0.3938  0.2973
13668OCT     C127335  15.398  17.089  15.623  0.1584 -0.4807 -0.1224
13668OCT     C227336  15.847  16.942  15.660  0.0191  0.0389 -0.2930
13669OCT     C127337   1.413  17.304   9.420  0.1358  0.1186 -0.1442
13669OCT     C227338   1.728  16.952   9.210  0.0527  0.2015 -0.3443
13670OCT     C127339   3.633  10.158  17.912 -0.1204 -0.1476 -0.0453
13670OCT     C227340   3.692  10.534  17.673 -0.1338  0.2625 -0.0207
13671OCT     C127341  21.220   2.216  14.048  0.4170  0.3031 -0.2659
13671OCT     C227342  20.855   1.979  13.931 -0.4342 -0.2341  0.0799
13672OCT     C127343   7.208   5.936  17.676  0.2928 -0.1564 -0.3242
13672OCT     C227344   7.092   5.676  17.284 -0.0415 -0.0148  0.3023
13673OCT     C127345  23.235  15.457  13.040  0.2992  0.4014 -0.3735
13673OCT     C227346  23.140  15.937  13.094  0.1389  0.2325  0.4390
13674OCT     C127347  11.630  11.991   1.334  0.1621  0.0910 -0.1304
13674OCT     C227348  11.783  12.355   1.569 -0.2990 -0.1870  0.1216
13675OCT     C127349  16.795  16.335   7.876 -0.0892  0.1647 -0.4107
13675OCT     C227350  16.667  16.431   8.304 -0.1855 -0.1778 -0.1780
13676OCT     C127351  16.320  19.741   0.225 -0.6668  0.0501 -0.0685
13676OCT     C227352  16.117  19.986   0.605  0.1781  0.1284  0.3075
13677OCT     C127353  11.487   3.970   8.489 -0.1209  0.3921 -0.1570
13677OCT     C227354  11.801   4.057   8.127  0.0083  0.3261  0.1052
13678OCT     C127355  17.908   3.003  17.207 -0.2019 -0.1684 -0.1089
13678OCT     C227356  18.339   3.304  17.142  0.0295  0.0416 -0.0418
13679OCT     C127357  22.233  23.729  21.541 -0.0024 -0.1566 -0.0491
13679OCT     C227358  22.484  23.467  21.827 -0.0270  0.4811  0.0270
13680OCT     C127359  11.891  21.532  16.811 -0.1073 -0.0841 -0.0523
13680OCT     C227360  11.633  21.779  16.550 -0.4124 -0.1852 -0.2521
13681OCT     C127361  22.717   3.220  17.833 -0.0445  0.1672 -0.1309
13681OCT     C227362  22.355   3.015  17.976 -0.1213 -0.0068 -0.0914
13682OCT     C127363   0.602   1.619  11.321 -0.0391 -0.1382  0.0787
13682OCT     C227364   0.620   1.397  11.679 -0.2186  0.3529 -0.0157
13683OCT     C127365   7.378  10.526  19.052  0.4718  0.1819 -0.0723
13683OCT     C227366   7.714  10.854  18.996 -0.0072  0.2687 -0.3090
13684OCT     C127367   1.635  12.649  14.456  0.1668 -0.1938 -0.0370
13684OCT     C227368   1.524  12.346  14.102  0.1105  0.1922  0.2649
13685OCT     C127369  14.838   8.396  22.066 -0.2235  0.0792 -0.1270
13685OCT     C227370  14.897   8.478  22.538  0.1180 -0.4047  0.0596
13686OCT     C127371  17.046  19.038  15.803  0.1265 -0.1241  0.1336
13686OCT     C227372  16.918  19.415  16.004 -0.0441  0.1927  0.0758
13687OCT     C127373  10.546  15.723  20.261 -0.0838  0.4323 -0.1658
13687OCT     C227374  10.073  15.726  20.170 -0.1099  0.0122 -0.2219
13688OCT     C127375   8.380  15.335   2.756 -0.2346  0.0112 -0.1395
13688OCT     C227376   8.800  15.569   2.815 -0.3556 -0.2861 -0.0475
13689OCT     C127377   0.594   2.136   4.611 -0.0568 -0.0628  0.1895
13689OCT     C227378   0.380   2.267   5.034 -0.1046 -0.1401 -0.1926
13690OCT     C127379  12.363   0.944  12.322  0.0187  0.1948  0.2487
13690OCT     C227380  12.225   0.621  12.610  0.1515  0.0746  0.2014
13691OCT     C127381   2.540   4.679   8.004 -0.1639  0.2835 -0.1276
13691OCT     C227382   2.632   4.387   7.706  0.1885  0.0197  0.1177
13692OCT     C127383  17.767   7.518  12.255 -0.0035 -0.2476  0.2106
13692OCT     C227384  17.347   7.782  12.302 -0.0803  0.2732 -0.1169
13693OCT     C127385   6.840  21.737  17.808 -0.0081 -0.0236 -0.4026
13693OCT     C227386   6.387  21.558  17.789 -0.2314  0.0114  0.4598
13694OCT     C127387  21.924  11.163  22.106  0.2526  0.5540  0.2691
13694OCT     C227388  22.054  10.704  22.072 -0.0898  0.0813  0.2514
13695OCT     C127389  16.874  12.263  19.213  0.0989 -0.3333  0.0764
13695OCT     C227390  16.632  12.289  18.812  0.0523 -0.0756  0.1559
13696OCT     C127391  13.165   3.706  20.680  0.3899  0.1730 -0.2313
13696OCT     C227392  13.628   3.848  20.704 -0.1842 -0.1217 -0.2793
13697OCT     C127393  19.355  19.891  12.931  0.5471 -0.3245 -0.2663
13697OCT     C227394  18.874  19.686  12.973 -0.0590 -0.3014 -0.2183
13698OCT     C127395   4.729  11.372  15.412 -0.3296 -0.3778  0.1813
13698OCT     C227396   4.403  11.075  15.626  0.3656  0.0910 -0.1799
13699OCT     C127397  23.543   1.109   6.033 -0.2438  0.0986 -0.0929
13699OCT     C227398   0.296   1.194   6.078  0.2765 -0.4837 -0.0433
13700OCT     C127399   8.776   2.726   6.805 -0.2113  0.2496 -0.1614
13700OCT     C227400   8.714   3.061   7.098  0.0191  0.1914  0.2345
13701OCT     C127401  12.474   5.187  18.299 -0.3399  0.0528 -0.0725
13701OCT     C227402  12.083   5.139  18.128  0.1194 -0.2236  0.1131
13702OCT     C127403  19.378   9.569  14.968 -0.1777  0.0004 -0.1919
13702OCT     C227404  19.083   9.442  15.268  0.1274  0.2840  0.1279
13703OCT     C127405  15.179  23.183  20.383 -0.1411 -0.3207 -0.2793
13703OCT     C227406  14.837  22.922  20.021  0.1345 -0.0872 -0.2386
13704OCT     C127407  12.931  18.708   6.920 -0.4247  0.2688  0.0526
13704OCT     C227408  12.509  18.649   7.161 -0.1096  0.3275 -0.0805
13705OCT     C127409  10.600  10.297  20.712  0.4618 -0.0999  0.0940
13705OCT     C227410  10.667   9.960  20.349  0.2206  0.0440 -0.1180
13706OCT     C127411  16.968   9.534  17.799 -0.1197  0.3004  0.4185
13706OCT     C227412  16.816   9.530  18.234  0.0337 -0.2308 -0.1488
13707OCT     C127413  21.016  20.400   1.651 -0.3122 -0.4938  0.1322
13707OCT     C227414  20.761  20.211   1.985 -0.0149  0.0675 -0.2517
13708OCT     C127415   8.024  22.418   4.898  0.2665 -0.1218 -0.0458
13708OCT     C227416   7.749  22.783   5.043  0.0888 -0.2320  0.1198
13709OCT     C127417   7.470  10.933   2.452  0.3767 -0.1591  0.3447
13709OCT     C227418   7.175  10.724   2.178  0.3387  0.0461 -0.0491
13710OCT     C127419  14.198  22.033  14.223 -0.0628  0.1657 -0.1704
13710OCT     C227420  13.724  22.019  14.395  0.0365  0.0555 -0.2115
13711OCT     C127421  18.297   2.695  15.071 -0.1776 -0.1074  0.2119
13711OCT     C227422  18.233   2.440  15.473 -0.1535 -0.0571  0.1498
13712OCT     C127423  17.971   2.823   4.890 -0.3055 -0.0553  0.0699
13712OCT     C227424  18.158   2.380   4.955 -0.0866  0.3506  0.4196
13713OCT     C127425   5.917   4.004  15.307 -0.0760  0.0084  0.2045
13713OCT     C227426   5.868   4.281  14.932  0.1385  0.2399 -0.0181
13714OCT     C127427  17.691  11.510   4.907 -0.1375  0.2502  0.2676
13714OCT     C227428  17.635  11.999   4.981  0.1156 -0.2255 -0.4119
13715OCT     C127429  16.107  13.987   3.674  0.0329  0.0185 -0.2660
13715OCT     C227430  15.905  14.344   3.500 -0.2359  0.5302 -0.0417
13716OCT     C127431  13.654   7.350  10.553 -0.0885  0.1263  0.0014
13716OCT     C227432  13.528   7.578  10.163  0.0013  0.2013  0.3739
13717OCT     C127433   4.308  14.344   1.446 -0.0018  0.0946  0.0261
13717OCT     C227434   4.650  14.576   1.475 -0.0269 -0.0970  0.1711
13718OCT     C127435  17.528   8.245  15.488 -0.0488  0.0005 -0.0171
13718OCT     C227436  17.605   7.796  15.685 -0.0564 -0.2888  0.0741
13719OCT     C127437  23.018  19.441   6.968 -0.0359 -0.0172  0.0484
13719OCT     C227438  23.421  19.669   7.032  0.2539 -0.6407  0.0837
13720OCT     C127439  15.438   9.080   5.626  0.1978  0.1887 -0.0957
13720OCT     C227440  15.306   9.463   5.767 -0.2502 -0.0667 -0.2016
13721OCT     C127441  17.251  12.653  15.954  0.0562 -0.0869  0.0184
13721OCT     C227442  16.897  12.758  15.661 -0.1577 -0.0012  0.0340
13722OCT     C127443  19.228   0.294   1.339  0.0612  0.2259 -0.2779
13722OCT     C227444  19.634   0.250   1.517  0.2043  0.3165  0.1478
13723OCT     C127445  14.695   6.125  23.408 -0.1300  0.3194  0.0499
13723OCT     C227446  14.974   6.445  23.553  0.0516  0.1247  0.0705
13724OCT     C127447  16.982  18.628   4.330  0.0805 -0.2038  0.1096
13724OCT     C227448  16.660  18.953   4.265 -0.0684  0.4667 -0.4397
13725OCT     C127449  11.695   1.389  13.094 -0.1270 -0.1801 -0.1678
13725OCT     C227450  11.837   1.315  13.522 -0.2067 -0.3177  0.0351
13726OCT     C127451  15.910  19.169  18.249  0.1438 -0.0449 -0.2606
13726OCT     C227452  15.962  19.609  18.065  0.3200  0.1013  0.0800
13727OCT     C127453   7.680  22.664   6.222  0.0684  0.2173  0.2727
13727OCT     C227454   7.574  22.185   6.222  0.1269  0.2629 -0.1618
13728OCT     C127455  23.328   1.168  12.265  0.0570 -0.0357 -0.2448
13728OCT     C227456  23.143   1.132  11.815 -0.1927  0.1405  0.0658
13729OCT     C127457  21.410   1.598   9.706  0.2300  0.1762  0.0590
13729OCT     C227458  21.379   1.912   9.362 -0.0154 -0.0037  0.3019
13730OCT     C127459  21.173   5.013   1.647 -0.0118  0.0247 -0.0284
13730OCT     C227460  20.986   4.641   1.400 -0.0613  0.0597 -0.2780
13731OCT     C127461  13.547  15.248   6.443 -0.1965 -0.4261 -0.1331
13731OCT     C227462  13.650  14.846   6.634 -0.4083  0.3050 -0.4272
13732OCT     C127463  12.303  10.951   8.411 -0.0143  0.0030 -0.1056
13732OCT     C227464  12.317  10.509   8.362  0.1605 -0.2338  0.1243
13733OCT     C127465  15.386   0.108  10.511 -0.1851 -0.0917  0.0298
13733OCT     C227466  14.962   0.007  10.242 -0.3973  0.1407  0.0969
13734OCT     C127467   2.919  20.794  18.114  0.4557 -0.2787  0.1144
13734OCT     C227468   2.946  21.220  18.288 -0.1551 -0.2639  0.1920
13735OCT     C127469   7.030  12.109  20.440  0.1006 -0.1423 -0.0603
13735OCT     C227470   6.736  12.373  20.244  0.2000 -0.3113  0.0246
13736OCT     C127471   4.070  14.564  21.822  0.1072 -0.0955  0.0080
13736OCT     C227472   4.164  14.973  22.042  0.0643  0.4121 -0.4830
13737OCT     C127473  19.778  20.361   6.562 -0.2465  0.3006 -0.1265
13737OCT     C227474  19.294  20.170   6.603 -0.1000 -0.2089  0.0056
13738OCT     C127475  22.563  23.497   7.670  0.0010 -0.0837  0.2207
13738OCT     C227476  22.818  23.372   8.041  0.0208 -0.0952 -0.1143
13739OCT     C127477  13.802   2.336   0.096 -0.1053 -0.2760  0.2149
13739OCT     C227478  13.928   2.612  23.497 -0.4842  0.1314 -0.0382
13740OCT     C127479  22.067   0.478   5.229  0.3379  0.2237 -0.0762
13740OCT     C227480  22.187   0.069   5.114 -0.2904  0.1070  0.0208
13741OCT     C127481   0.632  11.724  23.077  0.0253  0.1255 -0.1182
13741OCT     C227482   0.306  11.386  23.260 -0.0398 -0.1735  0.4019
13742OCT     C127483   1.938  18.458  14.383 -0.3056  0.1253 -0.0027
13742OCT     C227484   2.033  18.593  13.879  0.1539  0.6137  0.0706
13743OCT     C127485  10.370   9.421   2.688 -0.1095  0.3014  0.0954
13743OCT     C227486  10.518   9.793   2.510  0.3452 -0.0465  0.0680
13744OCT     C127487   4.515   5.550   5.652 -0.2375  0.2021  0.0353
13744OCT     C227488   4.386   5.969   5.541 -0.1357 -0.2369  0.3175
13745OCT     C127489  22.836  17.740  22.993  0.0100 -0.1160  0.2743
13745OCT     C227490  22.958  17.989  23.385 -0.0598  0.0347  0.1028
13746OCT     C127491  17.218   2.173  10.335 -0.0287  0.1372 -0.0287
13746OCT     C227492  17.377   2.508  10.536 -0.0021 -0.0965 -0.3937
13747OCT     C127493  22.091  11.337   7.851  0.0644 -0.1188 -0.0134
13747OCT     C227494  21.973  11.282   7.382  0.1132  0.1775 -0.0281
13748OCT     C127495  15.943  19.158   2.369  0.1603  0.2195  0.3750
13748OCT     C227496  15.594  19.279   2.018  0.0486 -0.4918 -0.1598
13749OCT     C127497   5.903  12.783  12.188  0.0323  0.0684 -0.2396
13749OCT     C227498   6.346  13.018  12.211 -0.3180 -0.2476  0.0840
13750OCT     C127499  17.876   5.770  21.005 -0.1603 -0.0815  0.2209
13750OCT     C227500  17.922   5.743  21.480 -0.2092  0.0345 -0.2408
13751OCT     C127501   7.376   4.564  10.559  0.0088 -0.2747  0.0504
13751OCT     C227502   7.776   4.287  10.619  0.2420  0.1264 -0.2444
13752OCT     C127503   8.978  13.236  23.274 -0.1373  0.3659 -0.2108
13752OCT     C227504   8.646  13.118  23.576  0.1401  0.0714 -0.3373
13753OCT     C127505  12.938  13.497   7.510 -0.2220  0.1079  0.2881
13753OCT     C227506  12.508  13.315   7.452 -0.3158  0.1407 -0.0111
13754OCT     C127507   2.352  16.566  22.417 -0.2732 -0.1385  0.3300
13754OCT     C227508   1.961  16.346  22.296 -0.1223 -0.1580  0.0036
13755OCT     C127509   4.361   5.729  14.522  0.0985  0.0814  0.0712
13755OCT     C227510   4.559   5.461  14.225  0.0318 -0.1471 -0.1391
13756OCT     C127511  22.973  23.019   4.033  0.1387  0.3863  0.4354
13756OCT     C227512  23.408  23.007   3.884 -0.0578 -0.0927 -0.1416
13757OCT     C127513   5.516   3.574   1.697  0.2054  0.1544 -0.1497
13757OCT     C227514   5.569   3.154   1.502  0.1865 -0.1452  0.1703
13758OCT     C127515  14.288   4.489   0.680  0.0215  0.0295  0.0109
13758OCT     C227516  13.908   4.771   0.795 -0.0318  0.1889  0.1964
13759OCT     C127517   1.637   4.393  12.577  0.1573 -0.1480 -0.3742
13759OCT     C227518   1.617   3.978  12.350  0.2598  0.0278 -0.0046
13760OCT     C127519  15.227  13.457  14.129 -0.0195 -0.2234  0.1565
13760OCT     C227520  14.915  13.869  14.157 -0.2506  0.0906 -0.0408
13761OCT     C127521  22.959  12.849   8.095  0.1924  0.1398 -0.3799
13761OCT     C227522  23.161  12.593   8.372 -0.0850  0.1243 -0.1898
13762OCT     C127523  16.189  19.260   6.097  0.0521 -0.2158  0.1677
13762OCT     C227524  16.333  19.646   6.400 -0.4032  0.1889 -0.1802
13763OCT     C127525   2.028  14.974  18.576 -0.1659  0.4214 -0.1154
13763OCT     C227526   2.390  15.247  18.543  0.3682  0.1371 -0.0576
13764OCT     C127527   7.852   1.235   4.010 -0.1163 -0.1649  0.1404
13764OCT     C227528   7.721   1.301   3.535 -0.0744  0.1070 -0.1497
13765OCT     C127529   0.539   6.338   6.386 -0.0099  0.3094  0.1938
13765OCT     C227530   0.365   6.725   6.379  0.0959  0.2188  0.0088
13766OCT     C127531  11.760  11.179  17.066  0.1381 -0.1748  0.2989
13766OCT     C227532  11.882  11.137  16.575 -0.0813  0.0961 -0.4493
13767OCT     C127533   8.414   1.342   6.042 -0.0798 -0.0798 -0.1907
13767OCT     C227534   8.592   0.920   5.882  0.1478 -0.3557  0.3072
13768OCT     C127535  11.777  22.258  23.228 -0.0267  0.1417 -0.0193
13768OCT     C227536  11.632  22.638  23.019 -0.0146  0.1442 -0.1980
13769OCT     C127537   5.067  15.642   3.564  0.2193  0.4168 -0.0458
13769OCT     C227538   5.206  16.089   3.438  0.3265  0.1767  0.2738
13770OCT     C127539   8.433  12.826   8.471  0.1681 -0.0533  0.3484
13770OCT     C227540   8.374  12.671   8.957  0.1624 -0.3702  0.1228
13771OCT     C127541  23.520  20.884  17.759  0.4057  0.0079 -0.3123
13771OCT     C227542  23.563  20.608  17.398  0.3129  0.2449  0.2889
13772OCT     C127543   3.436   1.292  17.613 -0.1877  0.2072  0.1217
13772OCT     C227544   3.392   0.955  17.947  0.1496 -0.2068 -0.1005
13773OCT     C127545  17.461  13.613   3.649 -0.0841  0.1688  0.2566
13773OCT     C227546  17.402  13.612   4.147  0.3541 -0.3490  0.0705
13774OCT     C127547  16.323  18.903  11.127 -0.1907 -0.0800 -0.3984
13774OCT     C227548  15.895  19.085  11.086 -0.1018 -0.1577  0.0916
13775OCT     C127549   6.013  16.507  11.047 -0.2246 -0.2032  0.1734
13775OCT     C227550   6.292  16.335  10.717  0.0601 -0.0523 -0.2366
13776OCT     C127551   6.607  21.749   7.390 -0.2049  0.0637 -0.1122
13776OCT     C227552   6.546  22.231   7.443  0.0505  0.2513 -0.3397
13777OCT     C127553   6.576  16.654  11.535 -0.0548 -0.3533  0.0932
13777OCT     C227554   6.337  16.263  11.358  0.0105 -0.0929 -0.0433
13778OCT     C127555  21.928  17.955  18.076 -0.1261  0.0513  0.1236
13778OCT     C227556  22.019  17.570  18.316  0.0896  0.2619 -0.2422
13779OCT     C127557  13.056  15.578   1.601  0.2469 -0.0765 -0.2370
13779OCT     C227558  12.642  15.496   1.747  0.4502 -0.1738 -0.1071
13780OCT     C127559  18.968   4.142  22.137  0.0384  0.2303 -0.1225
13780OCT     C227560  19.356   4.125  22.307 -0.1588  0.0860 -0.2286
13781OCT     C127561  10.350  17.116  10.215  0.2496  0.0604  0.1172
13781OCT     C227562   9.877  17.100  10.052 -0.1688 -0.1055  0.3488
13782OCT     C127563   3.008  19.283   7.144 -0.1675 -0.0800 -0.0477
13782OCT     C227564   2.789  18.988   6.925 -0.0353  0.1863 -0.0704
13783OCT     C127565  13.086   7.430  22.442 -0.2829  0.2661 -0.2630
13783OCT     C227566  13.326   7.567  22.846 -0.0507 -0.2340 -0.1595
13784OCT     C127567  18.636   6.523   3.792 -0.0062  0.0332  0.3713
13784OCT     C227568  18.885   6.250   3.502 -0.1694  0.1497  0.2651
13785OCT     C127569   0.518  17.752  12.711 -0.2041  0.0158 -0.0700
13785OCT     C227570   0.731  18.028  12.963 -0.2833 -0.2964 -0.0194
13786OCT     C127571   3.961  10.659  19.547  0.0071 -0.1501  0.0053
13786OCT     C227572   4.266  10.902  19.729  0.1130 -0.2779 -0.2264
13787OCT     C127573  11.525   7.486  13.990 -0.0523 -0.1441 -0.2754
13787OCT     C227574  11.435   7.921  13.912 -0.0666 -0.2045 -0.0290
13788OCT     C127575  17.811  19.578  14.861  0.0775 -0.2826  0.1006
13788OCT     C227576  17.827  19.409  14.446 -0.1315 -0.4602 -0.2265
13789OCT     C127577  22.502   8.799  17.035 -0.1394  0.0915  0.1971
13789OCT     C227578  22.558   8.419  16.834  0.3172 -0.1922 -0.0653
13790OCT     C127579  20.352  11.145   2.225  0.3582  0.3827  0.0695
13790OCT     C227580  20.064  10.770   2.309 -0.3365 -0.0141  0.1771
13791OCT     C127581  16.427  22.898  13.246 -0.1469 -0.1567  0.0033
13791OCT     C227582  16.800  23.047  12.983 -0.1440  0.0812  0.0107
13792OCT     C127583   3.817   9.856  11.819  0.1511  0.1172  0.1023
13792OCT     C227584   4.017  10.298  11.784  0.1633 -0.0825 -0.2624
13793OCT     C127585   8.033   5.380  12.988  0.1077 -0.1770 -0.3557
13793OCT     C227586   8.224   5.172  12.606 -0.2737 -0.0761  0.0730
13794OCT     C127587  12.324   6.809   3.084 -0.0070  0.1478  0.1760
13794OCT     C227588  12.460   7.289   3.038 -0.0034  0.1389 -0.2814
13795OCT     C127589   9.170   6.077  18.190 -0.1426  0.0419 -0.0122
13795OCT     C227590   9.163   5.627  18.284 -0.1448 -0.0553  0.3193
13796OCT     C127591   8.942   6.097  13.768 -0.0934  0.2311 -0.1651
13796OCT     C227592   9.371   5.891  13.865  0.0016  0.1801 -0.0731
13797OCT     C127593   1.750   9.574  12.979  0.1916 -0.2014  0.1461
13797OCT     C227594   2.060   9.311  13.188  0.2480 -0.0393  0.2017
13798OCT     C127595   7.419   9.041  16.683  0.1166  0.0958  0.0446
13798OCT     C227596   7.764   8.766  16.532 -0.1099  0.1309 -0.0050
13799OCT     C127597   0.753  11.346   7.250  0.1623 -0.1533  0.0486
13799OCT     C227598   0.687  11.632   7.563 -0.0533 -0.2161 -0.1965
13800OCT     C127599  17.574  11.559   5.486  0.0790  0.0841 -0.0386
13800OCT     C227600  17.906  11.354   5.736 -0.0643 -0.0950 -0.1117
13801OCT     C127601  11.334  14.563  19.807  0.0510 -0.2467  0.0828
13801OCT     C227602  11.112  14.333  19.452  0.2675 -0.0796  0.1795
13802OCT     C127603   4.595   2.862   6.527 -0.2420 -0.1553  0.0445
13802OCT     C227604   4.182   2.781   6.400  0.3443 -0.0041  0.4286
13803OCT     C127605  15.107  12.056   7.089 -0.1554 -0.2965  0.1375
13803OCT     C227606  15.494  12.026   7.319 -0.0005 -0.1674 -0.0492
13804OCT     C127607   5.439   6.497  11.358 -0.1266 -0.2797 -0.3727
13804OCT     C227608   5.127   6.651  11.036 -0.2112 -0.4724  0.4602
13805OCT     C127609  18.275  20.058  11.074  0.0056  0.1192  0.1501
13805OCT     C227610  18.475  19.722  11.307 -0.0475  0.2967 -0.0705
13806OCT     C127611  11.465  11.454  18.298  0.3006  0.0657 -0.2213
13806OCT     C227612  10.997  11.360  18.323 -0.3380  0.2125  0.0098
13807OCT     C127613   0.952  12.721  20.068 -0.0963 -0.1071  0.1917
13807OCT     C227614   1.378  12.557  19.874  0.6876 -0.2632 -0.0023
13808OCT     C127615   2.114  13.513  19.788 -0.0665 -0.2560  0.1207
13808OCT     C227616   1.991  13.534  19.317  0.1379 -0.2074  0.3456
13809OCT     C127617   0.645  19.294   6.263 -0.0059  0.3003  0.4117
13809OCT     C227618   1.026  19.167   6.484 -0.0189  0.0730  0.3496
13810OCT     C127619  18.467  15.551  17.620  0.0788 -0.0282 -0.0032
13810OCT     C227620  18.663  15.819  17.271  0.0857  0.0754  0.0046
13811OCT     C127621  23.521   9.671  11.555  0.3181  0.2297  0.1350
13811OCT     C227622  23.478   9.326  11.262 -0.4148 -0.0048 -0.0797
13812OCT     C127623   4.482  20.715   4.921 -0.0302 -0.0022  0.1471
13812OCT     C227624   4.511  20.270   4.869 -0.2384 -0.0796  0.3057
13813OCT     C127625   6.301   6.830  17.097  0.1776  0.2307 -0.2111
13813OCT     C227626   6.585   6.570  17.451 -0.1768  0.3030 -0.0516
13814OCT     C127627  12.240  20.662   3.669  0.1868 -0.0995  0.1955
13814OCT     C227628  12.424  20.392   3.972  0.2841 -0.2122 -0.2487
13815OCT     C127629  11.404   6.852   1.580 -0.1511 -0.2072  0.1755
13815OCT     C227630  11.750   6.601   1.800  0.2276  0.1878  0.1777
13816OCT     C127631   5.608   5.247   6.381 -0.1493 -0.3927 -0.2288
13816OCT     C227632   5.156   5.357   6.340 -0.0869  0.3440  0.1815
13817OCT     C127633  10.141  10.883  15.620  0.1754  0.0824 -0.2441
13817OCT     C227634   9.994  10.907  15.158  0.0921 -0.5740 -0.2221
13818OCT     C127635  21.931  19.224   2.368 -0.1362 -0.1501  0.3573
13818OCT     C227636  21.857  18.786   2.490  0.0225 -0.0662  0.3842
13819OCT     C127637  22.576  15.657   9.506  0.5618  0.0419 -0.2506
13819OCT     C227638  22.971  15.915   9.360  0.0904 -0.3450  0.1923
13820OCT     C127639  12.559  19.572   6.742  0.1363 -0.1397  0.2354
13820OCT     C227640  12.939  19.873   6.795  0.2651 -0.1605 -0.1450
13821OCT     C127641  13.658  22.903  17.636  0.3172 -0.2815 -0.0884
13821OCT     C227642  13.876  22.523  17.819  0.1331 -0.2420 -0.1125
13822OCT     C127643  10.230   1.903   3.292  0.0015  0.2041  0.0447
13822OCT     C227644   9.954   2.243   3.533 -0.5588 -0.0345  0.2487
13823OCT     C127645  20.779  15.515   1.762  0.3489  0.2698  0.1178
13823OCT     C227646  20.453  15.346   2.082 -0.2203 -0.1493 -0.0883
13824OCT     C127647  11.798  15.866   7.806 -0.2763 -0.2946  0.1292
13824OCT     C227648  11.405  15.663   7.886 -0.0137  0.1614 -0.0192
13825OCT     C127649  10.453   0.337  13.210  0.2486 -0.1294  0.1756
13825OCT     C227650  10.008   0.125  13.125 -0.2368 -0.3913  0.3040
13826OCT     C127651   8.904  18.442  23.559 -0.0005  0.1953  0.0896
13826OCT     C227652   9.137  18.089  23.706  0.1067  0.0041  0.1780
13827OCT     C127653   9.009  22.118  16.491  0.4479  0.4278  0.2007
13827OCT     C227654   9.261  22.439  16.609 -0.2801  0.1360 -0.1128
13828OCT     C127655  16.609   2.658   2.899  0.1055  0.0665 -0.0889
13828OCT     C227656  16.817   2.276   3.165 -0.0764  0.2975 -0.0898
13829OCT     C127657  11.293  22.150   0.772  0.4093 -0.1030  0.2525
13829OCT     C227658  10.855  22.065   0.881  0.3035  0.1245 -0.0921
13830OCT     C127659   4.993  22.109  17.580 -0.0365  0.1195  0.0982
13830OCT     C227660   4.866  21.699  17.719  0.2759 -0.1047  0.0394
13831OCT     C127661  11.953   2.572   9.341 -0.0552 -0.0937 -0.0615
13831OCT     C227662  11.763   2.512   8.926 -0.0017 -0.1179 -0.1511
13832OCT     C127663  20.106  16.544   3.455  0.0882 -0.2444  0.2484
13832OCT     C227664  19.990  16.987   3.305 -0.3941  0.6907 -0.2671
13833OCT     C127665  10.970   3.681   7.554 -0.5162  0.0101 -0.1372
13833OCT     C227666  10.785   4.022   7.774  0.1761 -0.1769  0.0269
13834OCT     C127667  19.400   2.486   6.813  0.1001 -0.1404 -0.1119
13834OCT     C227668  19.042   2.807   6.691 -0.0702 -0.1149 -0.0123
13835OCT     C127669  20.168  15.318   0.438 -0.0633  0.1292 -0.3283
13835OCT     C227670  20.478  15.269   0.776  0.2101 -0.0848  0.0712
13836OCT     C127671  18.150  18.552   6.781  0.2522 -0.0930 -0.0395
13836OCT     C227672  18.017  18.193   7.065 -0.0621 -0.3296 -0.1367
13837OCT     C127673  15.945   1.825  23.538  0.2658 -0.0589  0.1149
13837OCT     C227674  15.501   1.749  23.437  0.1033 -0.0472  0.3000
13838OCT     C127675  17.961   0.605   1.050  0.0008 -0.1267 -0.0884
13838OCT     C227676  17.912   0.618   0.564  0.4937 -0.1899 -0.3051
13839OCT     C127677  15.429  17.828  14.867 -0.0361 -0.0204  0.2237
13839OCT     C227678  15.701  17.436  14.836 -0.2621  0.2731 -0.1817
13840OCT     C127679  19.953  20.393  17.226  0.0867 -0.1102  0.2059
13840OCT     C227680  19.559  20.238  16.938 -0.1466 -0.6531 -0.2544
13841OCT     C127681  12.519   5.285  13.187  0.2175 -0.2123  0.0290
13841OCT     C227682  12.354   5.667  12.998  0.3967 -0.0900 -0.1182
13842OCT     C127683   9.388   6.228   7.210  0.0350 -0.0509  0.2179
13842OCT     C227684   9.461   6.559   7.495  0.2534 -0.1994 -0.1240
13843OCT     C127685  11.885  19.912  13.447  0.1348 -0.0844  0.0399
13843OCT     C227686  11.818  20.111  13.050  0.4220 -0.0015  0.4373
13844OCT     C127687  23.028  20.232   4.859  0.0498  0.2174 -0.0075
13844OCT     C227688  22.617  20.429   4.983 -0.0120  0.0724 -0.0113
13845OCT     C127689  18.329  16.923   2.032  0.2813 -0.0942 -0.0232
13845OCT     C227690  17.919  16.758   2.211 -0.2208  0.0954 -0.2610
13846OCT     C127691   8.522  19.987  17.652  0.1273  0.1224 -0.1689
13846OCT     C227692   8.823  19.793  17.294  0.0672 -0.3710 -0.1230
13847OCT     C127693   2.923  15.041  22.607 -0.0601 -0.0660 -0.0761
13847OCT     C227694   2.991  15.273  22.172 -0.4452 -0.2121 -0.2091
13848OCT     C127695  18.119   5.917  23.498  0.0878 -0.0778 -0.1742
13848OCT     C227696  17.711   5.724  23.646 -0.3927  0.4280  0.1713
13849OCT     C127697  21.558  11.825   9.213  0.0534 -0.1091 -0.1706
13849OCT     C227698  21.866  11.931   9.565  0.2894  0.1809 -0.2472
13850OCT     C127699   1.989   1.136   4.256  0.1907  0.2342  0.2941
13850OCT     C227700   2.071   0.753   4.073  0.1027 -0.0020  0.0429
13851OCT     C127701   8.363  10.438   9.231 -0.3317 -0.0789  0.1899
13851OCT     C227702   8.656  10.045   9.342  0.2471 -0.2050  0.1104
13852OCT     C127703  15.212  13.796   0.185 -0.0026 -0.0797  0.0024
13852OCT     C227704  15.672  13.937   0.237  0.2305  0.0276 -0.2669
13853OCT     C127705  12.529  10.602  16.747  0.0434 -0.1097 -0.0054
13853OCT     C227706  12.404  10.160  16.912 -0.0937  0.0218 -0.2070
13854OCT     C127707  23.185  18.714  19.266 -0.0750  0.1271  0.0605
13854OCT     C227708  23.128  19.073  19.539  0.4570 -0.2225 -0.1429
13855OCT     C127709   1.274   0.198   9.620  0.3148 -0.2088 -0.1603
13855OCT     C227710   1.097   0.392  10.007 -0.0083  0.0167  0.1495
13856OCT     C127711  19.949  17.582   9.068  0.2165 -0.0751  0.0257
13856OCT     C227712  19.641  17.377   8.721 -0.0653 -0.1434  0.0084
13857OCT     C127713  13.799  21.431   0.734  0.0272 -0.0290  0.0010
13857OCT     C227714  13.822  21.211   1.143 -0.0661  0.2664 -0.0669
13858OCT     C127715  15.526  15.989  11.345  0.3357  0.1440  0.0245
13858OCT     C227716  15.611  15.777  11.716 -0.1843  0.1605 -0.0138
13859OCT     C127717   2.606  10.022   6.565  0.0188  0.0431 -0.0818
13859OCT     C227718   2.516   9.621   6.327 -0.0699 -0.1275 -0.2268
13860OCT     C127719  10.847  15.535  14.220  0.5204 -0.0478 -0.0710
13860OCT     C227720  10.973  15.109  14.251 -0.0121  0.0643 -0.5329
13861OCT     C127721  19.205  16.476   9.602 -0.0087  0.1115  0.2501
13861OCT     C227722  19.344  16.596   9.181 -0.0660 -0.0986  0.1956
13862OCT     C127723   5.294  17.405  11.840  0.0264 -0.3358 -0.4579
13862OCT     C227724   4.940  17.761  11.889 -0.0574  0.3247 -0.3375
13863OCT     C127725  11.320  15.561  19.634  0.2404  0.0483  0.0370
13863OCT     C227726  10.923  15.732  19.888 -0.2638 -0.0131  0.0595
13864OCT     C127727  15.150  11.958  13.393  0.2149  0.0766  0.1755
13864OCT     C227728  15.178  12.420  13.463  0.1235 -0.2463  0.0760
13865OCT     C127729  17.202   4.544  14.887  0.0796  0.0741 -0.2944
13865OCT     C227730  16.869   4.282  14.968  0.1662  0.0140  0.2007
13866OCT     C127731  21.132   9.504   0.669  0.3756  0.0258 -0.1936
13866OCT     C227732  20.862   9.149   0.645 -0.1493  0.1234 -0.2032
13867OCT     C127733  12.859  11.065   7.316 -0.0254 -0.0660  0.0168
13867OCT     C227734  13.169  11.175   7.621  0.1719 -0.1543  0.4221
13868OCT     C127735   5.834  12.567  10.230 -0.2503 -0.1461  0.0452
13868OCT     C227736   5.960  12.170  10.453  0.0769  0.1116 -0.1626
13869OCT     C127737  22.644   7.251   1.386  0.1085  0.1497  0.0895
13869OCT     C227738  23.014   7.429   1.648 -0.0446  0.3795 -0.2706
13870OCT     C127739   3.714   8.573  17.600 -0.0040 -0.1797  0.2260
13870OCT     C227740   3.494   8.911  17.406  0.3346 -0.3433 -0.2026
13871OCT     C127741  22.523  16.820   5.422 -0.1822  0.0992 -0.3748
13871OCT     C227742  22.187  16.941   5.156  0.0945  0.0742 -0.1028
13872OCT     C127743  23.685  16.231   5.659 -0.0234  0.2330 -0.0184
13872OCT     C227744  23.286  16.393   5.827  0.0503  0.3937 -0.1604
13873OCT     C127745  18.307  15.702  11.948  0.2073 -0.0983 -0.1323
13873OCT     C227746  18.032  15.510  11.569 -0.0177 -0.2335 -0.3462
13874OCT     C127747  23.170  23.528   2.662 -0.2850 -0.4183  0.0152
13874OCT     C227748  23.261   0.070   2.278  0.1950 -0.3450 -0.0618
13875OCT     C127749   5.411  16.987   0.919 -0.0110 -0.0621 -0.0008
13875OCT     C227750   5.156  16.632   0.975  0.0768  0.3486 -0.0588
13876OCT     C127751   6.282   5.959  22.880  0.0286  0.0582 -0.1256
13876OCT     C227752   6.170   6.268  23.276 -0.0775  0.1098 -0.2558
13877OCT     C127753  21.484  12.194  17.448 -0.3739  0.0947 -0.1362
13877OCT     C227754  21.422  11.837  17.152  0.4156 -0.3493 -0.1972
13878OCT     C127755   4.191   5.717  16.349  0.0136 -0.0576  0.1479
13878OCT     C227756   4.661   5.619  16.203 -0.4388  0.2673  0.3092
13879OCT     C127757   8.331  17.614   5.742 -0.4226 -0.2452  0.0988
13879OCT     C227758   8.284  17.104   5.694 -0.4380 -0.6091 -0.2167
13880OCT     C127759   5.581   5.245  23.001  0.3216  0.2510  0.4281
13880OCT     C227760   5.382   5.103  23.347  0.3137  0.0032  0.0433
13881OCT     C127761  14.617  11.048   4.235  0.2061 -0.1791 -0.3970
13881OCT     C227762  15.024  10.916   4.063 -0.0244  0.3225 -0.0593
13882OCT     C127763  18.634  20.860  22.790 -0.0864 -0.4034  0.2325
13882OCT     C227764  18.860  20.685  23.227  0.1627  0.0581  0.0560
13883OCT     C127765  14.645  13.169  23.105 -0.0226  0.2589  0.2873
13883OCT     C227766  14.510  13.079  22.698  0.1646 -0.1082 -0.0669
13884OCT     C127767   5.147   7.897   6.967  0.3911 -0.1605 -0.0090
13884OCT     C227768   5.533   7.873   6.714 -0.1583  0.0002  0.1492
13885OCT     C127769  13.804   3.049   1.896 -0.1116 -0.0674 -0.1015
13885OCT     C227770  13.823   3.240   2.295 -0.0680  0.3638  0.0500
13886OCT     C127771   5.230  19.205   8.749 -0.0830  0.1010  0.3367
13886OCT     C227772   4.936  18.941   8.510 -0.2560 -0.0227 -0.3905
13887OCT     C127773   0.227   8.642   2.362 -0.1430  0.0716 -0.0855
13887OCT     C227774  23.584   8.709   2.201  0.0842 -0.2129 -0.2381
13888OCT     C127775  15.505  20.218   5.432  0.2315  0.1577  0.1405
13888OCT     C227776  15.755  20.602   5.377  0.2193 -0.0026  0.4106
13889OCT     C127777  22.907  23.569  17.960 -0.1253 -0.1119 -0.0824
13889OCT     C227778  22.901  23.196  18.263 -0.0776 -0.0023 -0.1111
13890OCT     C127779   0.170  10.869   1.065  0.0369  0.1390 -0.2032
13890OCT     C227780   0.473  11.180   0.907  0.0306 -0.4732  0.1005
13891OCT     C127781  20.108  23.272   5.826  0.2061  0.0778 -0.3899
13891OCT     C227782  20.205  23.734   5.912 -0.2063  0.2918  0.2934
13892OCT     C127783   8.126  19.455   3.005  0.0888  0.3054 -0.0161
13892OCT     C227784   8.006  19.658   2.671 -0.1482 -0.0111 -0.0144
13893OCT     C127785  19.742   7.184  21.632  0.1643  0.1493  0.3396
13893OCT     C227786  19.642   7.632  21.720 -0.1752 -0.0401  0.0260
13894OCT     C127787   5.723  22.756   4.419 -0.3477 -0.2335  0.2169
13894OCT     C227788   5.941  22.476   4.104  0.1188 -0.1897  0.0277
13895OCT     C127789  20.145   9.951  22.300  0.3125  0.2166 -0.1684
13895OCT     C227790  20.423  10.277  22.177  0.0403 -0.0258  0.1536
13896OCT     C127791   2.983  20.763  17.211 -0.1033 -0.0090  0.0949
13896OCT     C227792   2.884  20.493  17.547 -0.0518  0.0348 -0.1925
13897OCT     C127793  15.682  20.145  18.250  0.0297  0.0257 -0.1286
13897OCT     C227794  16.073  20.090  18.552  0.0099 -0.2601  0.0318
13898OCT     C127795   5.150  10.856   4.640  0.3771  0.6131 -0.0071
13898OCT     C227796   4.747  10.537   4.814  0.0855 -0.1074 -0.0877
13899OCT     C127797   0.293  19.312  17.332  0.0989 -0.2972 -0.4163
13899OCT     C227798   0.340  19.768  17.248  0.2434  0.2116  0.1500
13900OCT     C127799  16.344  16.657  20.103 -0.0560 -0.1410  0.1640
13900OCT     C227800  16.458  17.143  20.056  0.3005 -0.0075  0.1106
13901OCT     C127801   8.298   6.999  12.284  0.1284 -0.0540  0.0876
13901OCT     C227802   8.245   7.338  11.950  0.2390  0.2404 -0.3671
13902OCT     C127803  14.542  13.103  20.308  0.2626  0.2979  0.1626
13902OCT     C227804  14.803  13.224  20.670 -0.1545  0.1545  0.1833
13903OCT     C127805  16.952   7.482  10.103  0.1798  0.2911 -0.1608
13903OCT     C227806  17.180   7.874  10.251  0.1366 -0.2731 -0.1789
13904OCT     C127807   3.573  15.897   4.903 -0.0421  0.2821  0.0389
13904OCT     C227808   3.663  15.801   4.447  0.3227 -0.0587 -0.2133
13905OCT     C127809  20.343   3.962   9.779  0.0142 -0.0370  0.2003
13905OCT     C227810  20.759   3.866   9.963  0.3047  0.2289  0.0015
13906OCT     C127811   4.178  15.834   8.049  0.0111 -0.1938  0.2962
13906OCT     C227812   4.159  15.624   8.469 -0.0448  0.0709  0.2788
13907OCT     C127813  18.892  21.151   2.771 -0.0995  0.3129  0.1293
13907OCT     C227814  18.544  21.438   2.640 -0.0400  0.0830  0.1512
13908OCT     C127815   7.495   9.863  13.775  0.1465 -0.1231  0.0343
13908OCT     C227816   7.515  10.203  13.440  0.1347  0.0940  0.0419
13909OCT     C127817  16.593   9.104  23.103  0.3631  0.2024 -0.3834
13909OCT     C227818  16.902   9.421  23.327 -0.2815  0.2967  0.1733
13910OCT     C127819   1.201   4.700   1.550 -0.0081  0.1244 -0.0964
13910OCT     C227820   0.769   4.897   1.529 -0.0112  0.2462 -0.3581
13911OCT     C127821  19.528  14.261   0.057  0.0025 -0.1084  0.0619
13911OCT     C227822  19.305  14.687   0.067  0.4919 -0.3398  0.3491
13912OCT     C127823  15.249  18.686  19.540  0.0887  0.0717 -0.0540
13912OCT     C227824  15.209  19.107  19.686  0.1850  0.3854 -0.0780
13913OCT     C127825   6.942  13.079  19.655  0.2457 -0.3298  0.1970
13913OCT     C227826   6.924  13.131  19.200  0.0377 -0.2789 -0.1238
13914OCT     C127827  10.477   8.573   2.642 -0.1222 -0.0813 -0.0793
13914OCT     C227828  10.224   8.422   2.315 -0.2235 -0.3091 -0.1788
13915OCT     C127829  22.694  17.101   1.181  0.0733 -0.0264 -0.3481
13915OCT     C227830  22.989  16.957   1.528  0.3700 -0.0192 -0.0404
13916OCT     C127831   5.433   6.673  16.254 -0.1823 -0.1442  0.3762
13916OCT     C227832   5.598   6.230  16.186 -0.0152 -0.1331 -0.0908
13917OCT     C127833  15.781   7.836  15.607  0.1223 -0.0491  0.3426
13917OCT     C227834  16.233   7.870  15.682 -0.1094 -0.2640  0.0464
13918OCT     C127835  14.416   0.097  10.846 -0.3806  0.1362 -0.1825
13918OCT     C227836  14.911   0.059  10.820 -0.3340  0.1331 -0.1428
13919OCT     C127837  19.826  21.110   7.194 -0.1074  0.1940 -0.2092
13919OCT     C227838  20.209  20.879   7.338  0.2240  0.3666 -0.1866
13920OCT     C127839   5.821  15.342   7.566 -0.0945  0.0428 -0.1228
13920OCT     C227840   5.521  15.329   7.955  0.1121  0.2372 -0.0112
13921OCT     C127841   2.534  13.242  12.581 -0.4062 -0.0941  0.0367
13921OCT     C227842   2.455  13.496  12.272 -0.1065 -0.0940  0.2362
13922OCT     C127843  22.279   1.375   3.042 -0.1052  0.1361 -0.2250
13922OCT     C227844  22.721   1.485   3.178 -0.0111 -0.1337  0.0624
13923OCT     C127845   9.295   1.353   2.916 -0.3196 -0.0879 -0.3138
13923OCT     C227846   9.022   1.533   3.294  0.3198 -0.0109  0.0040
13924OCT     C127847  18.592  17.466  19.551  0.2187 -0.2211 -0.0154
13924OCT     C227848  19.062  17.562  19.614 -0.0307  0.3462  0.2836
13925OCT     C127849  11.019  16.049  13.387 -0.2493 -0.0564 -0.3380
13925OCT     C227850  11.392  15.791  13.506 -0.1423  0.0131  0.1544
13926OCT     C127851  23.068  10.025  17.776  0.0128 -0.0832 -0.1892
13926OCT     C227852  23.509  10.123  17.727 -0.5544  0.1850 -0.2009
13927OCT     C127853  15.250  19.022  21.563 -0.2002  0.1092 -0.0916
13927OCT     C227854  15.577  18.837  21.240 -0.2862 -0.1698 -0.1083
13928OCT     C127855   9.990  10.743   3.177  0.3476  0.2590 -0.1602
13928OCT     C227856   9.505  10.776   3.297  0.0916  0.0913  0.0357
13929OCT     C127857   5.115  11.984  10.419  0.1512 -0.2065  0.3704
13929OCT     C227858   4.830  11.982  10.805 -0.3860  0.1557  0.3593
13930OCT     C127859   2.283   3.559  13.831  0.1104  0.0479 -0.1612
13930OCT     C227860   2.520   3.369  13.471 -0.1011  0.2022 -0.1481
13931OCT     C127861   2.889  19.687  15.639  0.3395  0.4162 -0.0588
13931OCT     C227862   3.303  19.527  15.614  0.0291 -0.2067  0.1468
13932OCT     C127863  20.999  19.982  12.129 -0.1267 -0.1130 -0.3887
13932OCT     C227864  20.829  20.116  11.671  0.1946  0.1738 -0.0999
13933OCT     C127865  21.362  19.739   4.787  0.0865 -0.1812 -0.2604
13933OCT     C227866  21.289  20.078   4.994  0.1456 -0.3882 -0.1584
13934OCT     C127867   4.413   8.043  12.580  0.1470 -0.0524 -0.0361
13934OCT     C227868   4.817   7.898  12.332  0.3302 -0.1974  0.3976
13935OCT     C127869   0.129  20.918   8.586  0.1984  0.0736 -0.2536
13935OCT     C227870  23.528  21.061   8.313  0.1733  0.2249 -0.0686
13936OCT     C127871  17.010  10.833  14.193 -0.1012 -0.1961 -0.2183
13936OCT     C227872  17.444  10.596  14.044  0.4913 -0.0539 -0.0097
13937OCT     C127873  12.340   5.480   0.357  0.0769  0.3381 -0.2287
13937OCT     C227874  12.388   5.975   0.447 -0.0267  0.1428  0.0462
13938OCT     C127875   7.001   9.928   1.734 -0.1038 -0.1844  0.2265
13938OCT     C227876   7.234  10.301   1.912  0.1593  0.0668  0.0369
13939OCT     C127877   5.673   4.953  22.554  0.4128 -0.1021  0.0904
13939OCT     C227878   5.271   5.196  22.561  0.1889  0.2316  0.1500
13940OCT     C127879  23.224  11.238  19.354 -0.1034  0.1560 -0.0811
13940OCT     C227880  23.247  11.638  19.600  0.1963 -0.2372 -0.0497
13941OCT     C127881   5.997   2.688   6.554 -0.3161  0.3221 -0.0588
13941OCT     C227882   5.690   2.367   6.555 -0.1214  0.1390 -0.1991
13942OCT     C127883   4.371   5.271  21.368 -0.2098 -0.0829  0.1548
13942OCT     C227884   3.971   5.139  21.291 -0.0837 -0.0353 -0.2683
13943OCT     C127885   1.403  15.030   2.798 -0.1337 -0.3297 -0.0487
13943OCT     C227886   1.527  15.270   2.410 -0.1399  0.0886 -0.5465
13944OCT     C127887  20.951   8.859  12.143  0.2822 -0.0402  0.1093
13944OCT     C227888  20.734   8.623  11.779  0.0244  0.3778  0.1805
13945OCT     C127889  23.487  11.032  17.703 -0.0632  0.0315 -0.0284
13945OCT     C227890  23.661  11.063  17.301 -0.0512  0.2011  0.0543
13946OCT     C127891  19.524  10.741  11.461  0.3293 -0.2752  0.0860
13946OCT     C227892  19.957  10.636  11.292  0.0745  0.4079  0.0334
13947OCT     C127893  11.595  16.969  13.567  0.1943  0.2045  0.3011
13947OCT     C227894  11.376  17.092  13.216 -0.0567 -0.5600  0.3013
13948OCT     C127895  16.223  20.997   7.662 -0.1482  0.1438 -0.3325
13948OCT     C227896  16.441  21.119   8.061  0.0441 -0.1058 -0.3815
13949OCT     C127897  10.702  19.237   5.466 -0.5159  0.1105  0.2577
13949OCT     C227898  10.870  19.663   5.543  0.1378  0.3090  0.0730
13950OCT     C127899  19.684  15.419   5.230 -0.1323 -0.1102  0.2089
13950OCT     C227900  19.659  15.888   5.307  0.2834 -0.1462  0.0933
13951OCT     C127901   0.018  14.232  15.365  0.2033 -0.0465  0.1758
13951OCT     C227902   0.314  14.356  15.747 -0.1397 -0.2070  0.1265
13952OCT     C127903  17.961   3.144   5.296 -0.3425 -0.0551  0.0724
13952OCT     C227904  18.374   2.871   5.273  0.0303 -0.2387  0.1398
13953OCT     C127905   6.186   1.193  16.755 -0.1520  0.2894 -0.4423
13953OCT     C227906   6.136   1.643  16.907  0.1903 -0.0778 -0.1443
13954OCT     C127907  22.684  13.550  16.703 -0.1555  0.0180 -0.0531
13954OCT     C227908  23.092  13.641  16.490 -0.0922 -0.2491 -0.1567
13955OCT     C127909  17.790  12.397   6.789  0.1547  0.1925 -0.2909
13955OCT     C227910  18.183  12.361   7.078  0.0778 -0.1201  0.3905
13956OCT     C127911  15.267  21.386   6.835  0.4493 -0.0286  0.2390
13956OCT     C227912  15.695  21.290   6.967 -0.0752 -0.3933  0.2166
13957OCT     C127913  23.085  15.185  22.935  0.0196 -0.1003  0.1846
13957OCT     C227914  23.531  15.149  22.853 -0.0778  0.0692  0.0996
13958OCT     C127915   9.000   7.807  15.855  0.0015  0.0470  0.1789
13958OCT     C227916   8.716   7.759  16.243  0.0493 -0.0020 -0.2886
13959OCT     C127917   0.528  22.398   6.660  0.2364  0.1901  0.4729
13959OCT     C227918   0.148  22.335   6.350 -0.1726  0.1434  0.0061
13960OCT     C127919  17.102  10.511  20.517 -0.3521  0.2425 -0.0397
13960OCT     C227920  16.738  10.722  20.415 -0.0112 -0.1539  0.3996
13961OCT     C127921  13.960  11.364   7.305  0.0059 -0.2447  0.2193
13961OCT     C227922  14.372  11.191   7.354 -0.0559  0.1603 -0.1409
13962OCT     C127923   2.610   9.161  20.687  0.1462  0.1829 -0.0849
13962OCT     C227924   2.560   8.972  21.103  0.1093  0.1272  0.2458
13963OCT     C127925   0.274   1.176  16.172 -0.1679  0.0325  0.0017
13963OCT     C227926  23.655   1.051  15.888 -0.0689 -0.0292  0.0481
13964OCT     C127927  13.892   9.950  14.329 -0.0883  0.1730  0.3131
13964OCT     C227928  13.705   9.523  14.301 -0.1554 -0.0941 -0.1535
13965OCT     C127929  22.581  13.731  11.581 -0.3964 -0.1090  0.1481
13965OCT     C227930  22.489  13.239  11.568 -0.0040  0.0990  0.1606
13966OCT     C127931  20.294   6.154  13.389 -0.0416 -0.2612 -0.2089
13966OCT     C227932  19.859   6.177  13.170  0.1068 -0.1626 -0.3058
13967OCT     C127933   6.399  14.473  11.206  0.1783  0.2071 -0.0529
13967OCT     C227934   6.124  14.170  11.419 -0.0162 -0.0355  0.1918
13968OCT     C127935   9.775  15.179  19.816  0.1352  0.2880  0.1137
13968OCT     C227936   9.953  14.740  19.818  0.2104 -0.0226 -0.3156
13969OCT     C127937  15.327  18.631  12.107  0.1948 -0.0503  0.1921
13969OCT     C227938  15.304  18.189  12.047  0.0562 -0.5354  0.0031
13970OCT     C127939   6.401   1.347   5.265  0.2214 -0.2796  0.1280
13970OCT     C227940   6.279   0.949   5.503  0.1741 -0.2361  0.0368
13971OCT     C127941  16.228  13.957  20.668  0.0100 -0.0862 -0.6350
13971OCT     C227942  15.766  13.851  20.672  0.1834 -0.1858  0.2744
13972OCT     C127943  12.167  10.760   0.555 -0.0994  0.1529 -0.2042
13972OCT     C227944  12.252  10.331   0.558  0.1466  0.1561  0.0767
13973OCT     C127945   4.547   0.505  18.737  0.0108 -0.4143 -0.0005
13973OCT     C227946   4.993   0.737  18.645 -0.1185  0.0812 -0.0811
13974OCT     C127947   1.449   4.947  10.921 -0.0787  0.0196  0.5152
13974OCT     C227948   1.207   4.952  11.318 -0.0177 -0.2430 -0.0359
13975OCT     C127949   8.324  16.927   7.430 -0.0231  0.0697 -0.0352
13975OCT     C227950   7.916  17.060   7.419 -0.1072  0.3482 -0.0396
13976OCT     C127951   2.567  22.661  16.343  0.1339 -0.1233 -0.0276
13976OCT     C227952   2.176  22.623  16.166  0.1177  0.0788 -0.2991
13977OCT     C127953   3.411  19.007  10.202 -0.1799 -0.1865 -0.2478
13977OCT     C227954   3.466  18.572  10.051  0.0097 -0.3824 -0.1244
13978OCT     C127955   1.636   2.311  22.306  0.0458 -0.1784  0.3659
13978OCT     C227956   1.726   1.895  22.108  0.1825 -0.0791  0.3286
13979OCT     C127957  15.198  13.274   0.979 -0.0311  0.1418 -0.2149
13979OCT     C227958  14.882  13.644   0.829  0.2169 -0.0149 -0.0082
13980OCT     C127959  23.173  10.443  16.593  0.1369 -0.1632  0.2829
13980OCT     C227960  23.509  10.446  16.215  0.3654  0.2379 -0.1634
13981OCT     C127961  18.166  15.283   8.423 -0.2392  0.1188  0.2214
13981OCT     C227962  17.917  15.585   8.151  0.1434  0.0051  0.0030
13982OCT     C127963   3.276   2.521  22.693 -0.0893 -0.0153 -0.4037
13982OCT     C227964   3.423   2.156  22.782 -0.0354 -0.1501  0.4884
13983OCT     C127965  12.277  18.759   2.211  0.0636 -0.1800 -0.1483
13983OCT     C227966  12.467  18.359   2.142 -0.1110 -0.2155  0.0565
13984OCT     C127967   7.238   0.366   6.231  0.2684 -0.1775  0.2035
13984OCT     C227968   6.999   0.674   5.982 -0.2445 -0.0139 -0.1179
13985OCT     C127969   7.521   4.924   9.559  0.1622  0.1643  0.2168
13985OCT     C227970   7.229   4.573   9.629 -0.2709  0.0254  0.0622
13986OCT     C127971  16.317  21.358   3.161  0.0194 -0.1007  0.0548
13986OCT     C227972  16.274  20.863   3.028  0.4522 -0.2720 -0.3538
13987OCT     C127973  14.858  19.424   1.294  0.0176  0.6006  0.0629
13987OCT     C227974  15.105  19.797   1.265  0.0008 -0.0214  0.2287
13988OCT     C127975  20.875  13.040  20.249  0.0280  0.1953 -0.0145
13988OCT     C227976  20.576  13.130  20.548  0.1520  0.0813  0.2370
13989OCT     C127977  13.488  15.151   8.224 -0.1023  0.0032  0.0601
13989OCT     C227978  13.293  14.908   7.978 -0.0481 -0.1457  0.1627
13990OCT     C127979  22.658  20.462  21.389 -0.0622 -0.3413  0.0948
13990OCT     C227980  22.282  20.229  21.521  0.1801 -0.0721 -0.2558
13991OCT     C127981   7.851  10.672  10.821  0.0966  0.1405  0.1778
13991OCT     C227982   8.062  10.672  11.245  0.0944  0.0372 -0.0225
13992OCT     C127983  23.015   2.899  21.101  0.2268 -0.1628  0.2278
13992OCT     C227984  22.804   3.239  20.874  0.1869  0.1453 -0.4126
13993OCT     C127985  14.401   1.099   3.688 -0.0996  0.2184 -0.2313
13993OCT     C227986  14.211   0.765   4.035  0.0406  0.1200  0.1843
13994OCT     C127987  11.366  11.576  14.083 -0.1884 -0.4411 -0.2506
13994OCT     C227988  11.267  11.702  14.528 -0.4148  0.0887  0.1930
13995OCT     C127989  11.290  18.406  14.045  0.1184  0.0812 -0.0438
13995OCT     C227990  11.026  18.539  13.684  0.1769 -0.2403 -0.1748
13996OCT     C127991   8.792  13.697  12.574  0.2628  0.0254  0.1313
13996OCT     C227992   9.215  13.600  12.342 -0.1032  0.0444  0.0516
13997OCT     C127993  19.989   4.884  21.096  0.2671 -0.0547  0.2074
13997OCT     C227994  20.279   4.560  20.852 -0.1777 -0.0928  0.1026
13998OCT     C127995  23.023  16.877  18.696 -0.0332  0.4570 -0.2994
13998OCT     C227996  22.601  16.888  18.556 -0.3005 -0.1294  0.3094
13999OCT     C127997  15.721   4.740   6.700 -0.1778 -0.0328  0.0902
13999OCT     C227998  16.126   4.587   6.849 -0.0813 -0.2049  0.2252
14000OCT     C127999   3.665  20.351   0.587  0.1126 -0.0434 -0.0096
14000OCT     C228000   3.793  20.699   0.249  0.0412 -0.5401  0.2746
14001OCT     C128001  10.561  10.732  18.671  0.4995  0.3080 -0.1544
14001OCT     C228002  10.621  11.011  18.326  0.2201 -0.1213 -0.0722
14002OCT     C128003  16.225   3.940  12.241 -0.2940  0.2112  0.2495
14002OCT     C228004  16.271   3.678  12.620  0.4617 -0.3580 -0.0800
14003OCT     C128005  20.055  11.644   1.343  0.5825 -0.0701  0.0084
14003OCT     C228006  20.377  11.428   1.195 -0.3668  0.0366 -0.1251
14004OCT     C128007  12.392  11.385  22.385  0.1146 -0.0832 -0.1960
14004OCT     C228008  12.510  10.998  22.190 -0.5088 -0.0812 -0.1692
14005OCT     C128009   7.157  19.634  18.239 -0.3271 -0.1166  0.1582
14005OCT     C228010   7.437  19.905  18.521  0.1873 -0.2198 -0.0992
14006OCT     C128011   9.293  12.202  14.246  0.1767 -0.1019  0.0963
14006OCT     C228012   8.908  12.528  14.334  0.2730  0.2448 -0.2000
14007OCT     C128013  17.455   7.816   1.042  0.3219  0.1886  0.1614
14007OCT     C228014  17.377   7.552   1.435  0.2669 -0.2252 -0.3135
14008OCT     C128015   3.133  10.585  17.868  0.2074  0.2736  0.2131
14008OCT     C228016   3.317  10.877  17.571  0.1745 -0.1421 -0.1703
14009OCT     C128017  12.072  23.417   2.255 -0.1861  0.1177  0.2298
14009OCT     C228018  12.110   0.143   2.391  0.0659  0.2436  0.2107
14010OCT     C128019  21.140   5.640   7.484  0.4340  0.1457 -0.1348
14010OCT     C228020  21.522   5.862   7.655 -0.1633  0.3862  0.1089
14011OCT     C128021   1.366   0.934   6.436  0.0210  0.2990 -0.1014
14011OCT     C228022   1.104   0.955   6.045 -0.1684 -0.2382  0.5031
14012OCT     C128023   5.960   5.200  19.920  0.1652  0.0539 -0.2922
14012OCT     C228024   5.685   5.551  19.776 -0.2627  0.1514  0.5313
14013OCT     C128025  18.241  18.703   9.273 -0.0161 -0.3555 -0.1656
14013OCT     C228026  18.148  19.087   9.465  0.0787 -0.0665  0.0921
14014OCT     C128027   9.346  11.927  16.799 -0.1849 -0.2122  0.1583
14014OCT     C228028   9.798  11.947  16.985 -0.2474 -0.0218 -0.2883
14015OCT     C128029  23.366  23.629  19.856 -0.0657  0.1925 -0.0345
14015OCT     C228030  23.105   0.166  20.160  0.2665 -0.3126  0.0320
14016OCT     C128031   4.577  13.618   7.445 -0.0139  0.2032  0.0002
14016OCT     C228032   4.353  13.390   7.790 -0.0427 -0.2090  0.3294
14017OCT     C128033   4.981   7.880  18.893  0.1465 -0.2974 -0.0338
14017OCT     C228034   5.004   8.121  18.477  0.1193 -0.3684 -0.1454
14018OCT     C128035  18.424  22.334   1.144  0.1118  0.2283  0.2487
14018OCT     C228036  18.106  22.075   1.494  0.2187  0.2736 -0.0169
14019OCT     C128037  20.673  15.752  22.227 -0.1855  0.2905  0.0557
14019OCT     C228038  20.351  16.004  22.067  0.3697 -0.2054  0.0891
14020OCT     C128039   5.862   7.751  10.371 -0.0171 -0.2910 -0.0502
14020OCT     C228040   5.909   8.201  10.526  0.2418  0.1618 -0.1620
14021OCT     C128041  21.686   2.656   8.297 -0.0119  0.3449  0.0373
14021OCT     C228042  21.346   2.441   8.024 -0.0730  0.0710 -0.2787
14022OCT     C128043   5.869  15.070  22.159 -0.0676 -0.0855  0.0685
14022OCT     C228044   5.786  15.430  21.910 -0.3050 -0.0917 -0.1753
14023OCT     C128045  13.996  20.589   6.545 -0.0584 -0.0329 -0.0776
14023OCT     C228046  14.276  20.302   6.624 -0.2255  0.0117 -0.2690
14024OCT     C128047  13.011  21.452   6.906 -0.6233 -0.0611 -0.1107
14024OCT     C228048  13.016  21.806   7.217 -0.1405 -0.0075 -0.1191
14025OCT     C128049   2.315   0.085  20.067 -0.2776 -0.0260  0.3252
14025OCT     C228050   2.465  23.487  19.768 -0.2658 -0.0814 -0.0693
14026OCT     C128051  18.963  11.725  14.194  0.0858 -0.2133 -0.1224
14026OCT     C228052  18.836  12.082  14.445  0.0432 -0.1553 -0.2155
14027OCT     C128053   1.481  20.985  19.997 -0.4254  0.1998  0.1503
14027OCT     C228054   1.152  20.878  20.287 -0.3146  0.2564 -0.0309
14028OCT     C128055   7.880  11.080  18.407 -0.2059  0.0160 -0.2456
14028OCT     C228056   7.685  11.435  18.647  0.3748  0.0336 -0.0927
14029OCT     C128057  17.184  21.376  21.702 -0.2345  0.1822 -0.2572
14029OCT     C228058  17.064  21.652  21.371 -0.2984  0.0924  0.4096
14030OCT     C128059   3.210   7.118  19.612 -0.1592 -0.0376  0.3378
14030OCT     C228060   3.337   6.707  19.747 -0.0855  0.4456 -0.2492
14031OCT     C128061  11.818   4.336  22.721  0.0192 -0.0496  0.1617
14031OCT     C228062  11.709   3.923  22.589  0.4010 -0.2754 -0.0458
14032OCT     C128063   3.939  16.279  16.609 -0.1219  0.1252  0.3641
14032OCT     C228064   3.767  15.839  16.454  0.0996 -0.0207  0.1901
14033OCT     C128065   9.160  15.206   4.861  0.1106  0.0142 -0.0953
14033OCT     C228066   9.003  14.962   4.485  0.2233 -0.3061  0.2741
14034OCT     C128067   7.382  16.347   4.281  0.0608 -0.2409 -0.0809
14034OCT     C228068   7.380  16.620   3.898  0.2518  0.0267  0.3511
14035OCT     C128069   4.635  13.183  21.936  0.0686 -0.0164  0.1728
14035OCT     C228070   4.816  13.327  22.361 -0.0400  0.0364  0.2429
14036OCT     C128071   3.003  17.555  13.786 -0.1257  0.1023 -0.0408
14036OCT     C228072   3.293  17.384  13.459 -0.0604  0.3350  0.4714
14037OCT     C128073  20.579  12.732  13.307 -0.3216 -0.3791  0.0179
14037OCT     C228074  20.136  12.606  13.419  0.1373 -0.1195  0.0144
14038OCT     C128075   3.295   4.746  23.681  0.0285 -0.2360 -0.3783
14038OCT     C228076   3.151   4.997  23.313  0.1359  0.0079 -0.4025
14039OCT     C128077   0.110  10.425   9.850  0.2192 -0.0908  0.0632
14039OCT     C228078  23.713  10.538   9.452  0.4956  0.0904 -0.0894
14040OCT     C128079  13.381   2.896  18.673 -0.0747  0.0690  0.0830
14040OCT     C228080  13.145   3.165  18.967 -0.1390 -0.2489 -0.2596
14041OCT     C128081   4.337   5.500  20.336 -0.0155  0.2033  0.2552
14041OCT     C228082   4.411   5.884  20.363  0.2909 -0.2319 -0.0339
14042OCT     C128083  10.692  15.460   0.426  0.0311 -0.1798  0.3114
14042OCT     C228084  11.151  15.481   0.451 -0.2231 -0.2887 -0.0229
14043OCT     C128085   1.685  14.337   7.852 -0.1331 -0.2331  0.3874
14043OCT     C228086   1.571  14.543   7.375 -0.0221  0.4960  0.0149
14044OCT     C128087   9.102  10.712   3.831 -0.1902  0.1659 -0.1887
14044OCT     C228088   9.034  11.148   3.704 -0.0246 -0.2184 -0.1991
14045OCT     C128089  13.487  15.240   6.999  0.4119 -0.1802 -0.0304
14045OCT     C228090  13.969  15.191   7.007  0.3378 -0.1071 -0.1073
14046OCT     C128091   6.713  10.472   6.759 -0.0335  0.0405  0.1003
14046OCT     C228092   6.464  10.262   7.083 -0.0345  0.2580  0.1625
14047OCT     C128093  10.274  14.915  23.377 -0.4252  0.0107  0.0985
14047OCT     C228094  10.005  15.286  23.216 -0.1353 -0.0468 -0.1456
14048OCT     C128095  11.606  13.065  21.614  0.0378  0.0457 -0.4507
14048OCT     C228096  11.629  13.292  22.047 -0.0979 -0.2800 -0.2501
14049OCT     C128097  16.419   4.678  10.663  0.2128  0.0968  0.2107
14049OCT     C228098  16.181   4.952  10.967  0.2339 -0.3181  0.4170
14050OCT     C128099   9.089   5.906   7.457  0.3706 -0.0447  0.0937
14050OCT     C228100   9.151   5.734   7.839 -0.1715  0.4040  0.0705
14051OCT     C128101   0.644   2.968   0.523 -0.3992 -0.1215  0.1223
14051OCT     C228102   0.267   3.243   0.353  0.2234 -0.0260 -0.1388
14052OCT     C128103  22.071  15.864   6.844  0.1640  0.3059  0.1094
14052OCT     C228104  21.729  15.666   7.029 -0.2802  0.0749  0.3554
14053OCT     C128105   2.896  13.049  11.563 -0.2991 -0.2729 -0.5767
14053OCT     C228106   3.260  13.182  11.272  0.0166  0.2136  0.0910
14054OCT     C128107   2.587   8.074  16.647  0.4510  0.0738 -0.0153
14054OCT     C228108   2.918   7.814  16.786  0.0630  0.0150  0.2470
14055OCT     C128109   3.278  17.910   4.988 -0.0252 -0.2494  0.1412
14055OCT     C228110   3.518  18.294   4.885  0.0548 -0.3436  0.2487
14056OCT     C128111  23.661   9.381  22.932 -0.2186  0.3472 -0.0508
14056OCT     C228112  23.427   9.396  23.356  0.1449 -0.5063  0.2103
14057OCT     C128113  20.625  16.710  16.101 -0.1041 -0.2034  0.1070
14057OCT     C228114  20.398  16.326  15.864 -0.0661  0.1606 -0.1651
14058OCT     C128115   0.449  12.251   3.745  0.1351 -0.1457 -0.2291
14058OCT     C228116   0.689  11.874   3.560  0.4284  0.2221 -0.0152
14059OCT     C128117  16.730   3.339  15.566  0.2001  0.2022  0.0703
14059OCT     C228118  16.829   3.378  15.108  0.1835 -0.3357  0.2363
14060OCT     C128119   3.105   9.534  18.322  0.2408  0.5779  0.0668
14060OCT     C228120   3.477   9.630  18.486  0.1121  0.1833 -0.3881
14061OCT     C128121  10.315  22.344  13.801 -0.0735 -0.1890 -0.0256
14061OCT     C228122  10.315  22.396  13.323  0.2605 -0.0321  0.0571
14062OCT     C128123  18.357  11.993  16.441  0.0398  0.0898 -0.1642
14062OCT     C228124  18.780  12.025  16.331  0.1332 -0.1327 -0.3645
14063OCT     C128125   6.631  20.304  11.550 -0.2041  0.1594 -0.0957
14063OCT     C228126   6.403  19.983  11.736 -0.0251 -0.2003 -0.0819
14064OCT     C128127   5.649  17.846   2.739  0.2497 -0.1589  0.0554
14064OCT     C228128   6.102  17.696   2.642  0.2891 -0.2581  0.3405
14065OCT     C128129  15.287   2.732   1.203 -0.2701  0.0138  0.2172
14065OCT     C228130  15.691   2.779   0.891  0.0336  0.1496 -0.1073
14066OCT     C128131  21.844   4.464   4.905 -0.0708 -0.2746  0.0939
14066OCT     C228132  21.921   4.023   5.009  0.0886  0.1985  0.4648
14067OCT     C128133  21.712  21.863   8.764 -0.1323  0.0522 -0.1877
14067OCT     C228134  21.396  22.238   8.807  0.0852  0.0156  0.0026
14068OCT     C128135  15.653  20.417   7.058  0.1452 -0.3632 -0.2026
14068OCT     C228136  15.220  20.334   6.867 -0.2333 -0.3783  0.2727
14069OCT     C128137  17.946  10.042   0.169  0.0191  0.0214 -0.0586
14069OCT     C228138  17.941   9.561   0.217 -0.0929  0.2495  0.1285
14070OCT     C128139  11.023   3.070  13.137  0.0521  0.2761  0.3865
14070OCT     C228140  10.834   3.276  12.776  0.0419 -0.2480 -0.0116
14071OCT     C128141  23.228  21.986  10.673  0.1361  0.0276  0.3469
14071OCT     C228142  23.334  22.326  10.370 -0.3319 -0.3365 -0.2332
14072OCT     C128143  12.810   4.477  20.478 -0.3113  0.2160  0.5092
14072OCT     C228144  12.852   4.836  20.705  0.1973  0.1562  0.2103
14073OCT     C128145   1.767   0.802  17.199 -0.0648 -0.0873 -0.2049
14073OCT     C228146   1.500   1.120  17.453 -0.0371  0.2873 -0.0658
14074OCT     C128147  17.455   4.706  12.375 -0.2712  0.1308 -0.0303
14074OCT     C228148  17.424   4.547  11.922 -0.2372  0.0596  0.0191
14075OCT     C128149  19.324   8.086  12.890  0.1861  0.0327  0.1196
14075OCT     C228150  19.122   7.740  13.054 -0.1549 -0.3395 -0.0475
14076OCT     C128151  10.897   6.270   7.123 -0.1654  0.0635  0.3068
14076OCT     C228152  11.191   5.981   7.407  0.0170  0.0887 -0.0602
14077OCT     C128153  20.679   0.318  13.306  0.0870  0.0007 -0.2737
14077OCT     C228154  20.873   0.759  13.346  0.0859 -0.2550 -0.1489
14078OCT     C128155  10.500  23.601  15.859 -0.4016  0.2697  0.3299
14078OCT     C228156  10.430   0.256  16.125 -0.3460 -0.0769 -0.0638
14079OCT     C128157  22.153  22.835   5.086 -0.0691  0.0423 -0.0274
14079OCT     C228158  22.381  22.400   5.011 -0.1736 -0.1486 -0.1719
14080OCT     C128159  21.419  18.929   0.984  0.1893 -0.0313 -0.1497
14080OCT     C228160  21.231  19.326   0.884 -0.0309  0.4216  0.1168
14081OCT     C128161  14.188   8.863  16.349  0.1342 -0.0482  0.0672
14081OCT     C228162  14.543   8.849  16.717  0.1076 -0.0498  0.0951
14082OCT     C128163   3.730  20.968  15.908 -0.0865  0.0702 -0.1591
14082OCT     C228164   3.998  20.621  16.038 -0.1909 -0.1118  0.0443
14083OCT     C128165  22.315  12.299   9.801  0.0963  0.4592  0.2869
14083OCT     C228166  21.893  12.447   9.765  0.2892 -0.3310 -0.0395
14084OCT     C128167   9.917  21.804   2.401  0.0628  0.2065 -0.2866
14084OCT     C228168   9.684  22.064   2.710  0.1353 -0.1883  0.2043
14085OCT     C128169  14.460  16.807   7.875  0.1217  0.0751 -0.1500
14085OCT     C228170  14.069  16.504   7.907 -0.0936 -0.0827  0.0987
14086OCT     C128171   1.516   2.528   6.728 -0.0689 -0.4386 -0.0620
14086OCT     C228172   1.423   2.976   6.621 -0.1130 -0.0799 -0.1297
14087OCT     C128173  10.885  19.264  19.850  0.1128 -0.0474  0.2000
14087OCT     C228174  10.531  19.506  19.694  0.1455  0.2728 -0.3397
14088OCT     C128175   9.865  18.874  10.046  0.0963 -0.2156 -0.0118
14088OCT     C228176   9.822  19.291   9.868 -0.0238 -0.1108 -0.3198
14089OCT     C128177   2.494   5.742  13.681  0.2833 -0.0890  0.0668
14089OCT     C228178   2.682   5.890  14.009  0.3850 -0.0690  0.0915
14090OCT     C128179  15.815  22.136   8.667  0.3120 -0.0473 -0.0222
14090OCT     C228180  16.011  22.363   8.301 -0.0157 -0.1165  0.1025
14091OCT     C128181  22.174   3.062   6.504 -0.1593  0.1523 -0.0917
14091OCT     C228182  21.757   3.254   6.433 -0.0157  0.0900  0.0023
14092OCT     C128183  18.662  13.646   2.046  0.2207 -0.1031 -0.2311
14092OCT     C228184  18.197  13.708   2.158  0.0536  0.2970 -0.3237
14093OCT     C128185  23.652  10.885   0.183  0.2234 -0.3104  0.0989
14093OCT     C228186  23.245  11.002   0.032 -0.0778 -0.2502 -0.3148
14094OCT     C128187   7.158  15.430   1.072 -0.1675  0.1828  0.0230
14094OCT     C228188   6.997  15.842   1.254  0.1124  0.0779  0.1892
14095OCT     C128189  18.491  22.009   2.235  0.2946  0.0767  0.1168
14095OCT     C228190  18.951  22.140   2.176 -0.0920 -0.1178  0.1442
14096OCT     C128191  15.158   0.381  14.475  0.0482 -0.5139 -0.3581
14096OCT     C228192  15.557   0.424  14.284 -0.0575  0.1271 -0.0154
14097OCT     C128193  10.184   7.271   7.753  0.6968 -0.2455  0.1562
14097OCT     C228194  10.303   7.678   7.954 -0.0146  0.0854 -0.2985
14098OCT     C128195  12.435   5.003   0.337 -0.1200 -0.2063 -0.2829
14098OCT     C228196  12.626   4.637   0.469  0.3154  0.0049  0.0937
14099OCT     C128197  16.311   3.667  13.666  0.0652 -0.1938 -0.3135
14099OCT     C228198  16.233   4.062  13.407 -0.3043 -0.0072  0.2624
14100OCT     C128199  18.557   2.525   6.474  0.0709  0.2199 -0.2087
14100OCT     C228200  18.684   2.083   6.410  0.0279 -0.0225 -0.1910
14101OCT     C128201  15.994   4.834  10.283  0.1548 -0.3653 -0.2704
14101OCT     C228202  15.967   5.255  10.227 -0.0568 -0.1383 -0.2641
14102OCT     C128203   0.419   0.511   4.813  0.3054  0.1729  0.1218
14102OCT     C228204   0.086   0.587   4.519  0.4793 -0.0770 -0.1593
14103OCT     C128205  23.472  14.644  15.301  0.4994  0.1716  0.2266
14103OCT     C228206  23.282  14.293  15.555  0.0399  0.0533 -0.1188
14104OCT     C128207   4.772   0.234  18.053 -0.0017 -0.2037 -0.1206
14104OCT     C228208   4.885  23.561  17.796 -0.2821  0.0767  0.0261
14105OCT     C128209  13.236   9.467  22.502  0.0651 -0.1606  0.2188
14105OCT     C228210  12.945   9.731  22.142 -0.0748  0.1979 -0.2789
14106OCT     C128211  11.600  17.501  10.655  0.1475 -0.3013 -0.1595
14106OCT     C228212  11.432  17.654  11.042 -0.0401  0.1284  0.0220
14107OCT     C128213   3.443   9.558  22.890  0.3142  0.0214  0.0089
14107OCT     C228214   3.091   9.555  22.559  0.2831  0.1772  0.1343
14108OCT     C128215  11.622   4.301   2.750  0.0344  0.0885  0.0818
14108OCT     C228216  11.167   4.332   2.952  0.0069  0.1479 -0.1681
14109OCT     C128217   6.353  17.625  18.364 -0.1040  0.0985  0.3042
14109OCT     C228218   6.780  17.524  18.232  0.0981 -0.0280  0.2756
14110OCT     C128219   1.102  12.692   4.201 -0.1086 -0.3289 -0.2548
14110OCT     C228220   0.801  12.863   3.858 -0.1415 -0.1016  0.0778
14111OCT     C128221   7.045   8.812   6.700  0.4101 -0.1035  0.1507
14111OCT     C228222   6.750   9.080   6.856 -0.0251  0.2255 -0.2622
14112OCT     C128223   7.597  13.829  18.626  0.3407 -0.2633  0.0256
14112OCT     C228224   7.881  14.081  18.820 -0.1331  0.0994 -0.0793
14113OCT     C128225  10.370  22.236  17.100 -0.2203  0.1438  0.0434
14113OCT     C228226  10.444  21.973  17.453 -0.0637 -0.0122  0.1751
14114OCT     C128227  23.102  22.945  19.739  0.0476  0.0758  0.0289
14114OCT     C228228  23.066  22.748  19.291 -0.2231  0.2396 -0.2879
14115OCT     C128229   8.074  12.904  21.345 -0.1325  0.2665  0.1048
14115OCT     C228230   8.190  12.689  20.906  0.0281  0.1953 -0.1864
14116OCT     C128231  18.477   8.068  22.672  0.0677 -0.1815 -0.2755
14116OCT     C228232  18.245   8.301  22.970  0.1977  0.2365 -0.4524
14117OCT     C128233   0.795  19.798   7.314  0.0068 -0.1486 -0.2337
14117OCT     C228234   0.560  19.676   7.669 -0.1676  0.0406  0.0843
14118OCT     C128235  12.171   6.694  15.898 -0.4904 -0.3129 -0.3169
14118OCT     C228236  12.117   6.320  16.099 -0.0838 -0.1514  0.1899
14119OCT     C128237   7.351   6.973   8.932 -0.0707 -0.0711  0.0521
14119OCT     C228238   7.450   6.927   8.499  0.0914 -0.2281 -0.1080
14120OCT     C128239  18.428  13.574  13.712 -0.0010  0.0378 -0.4094
14120OCT     C228240  18.101  13.839  13.898 -0.0359  0.1182 -0.0048
14121OCT     C128241   3.286  22.887  15.500 -0.2602  0.1776  0.1817
14121OCT     C228242   3.258  22.466  15.519 -0.0720 -0.1689  0.5855
14122OCT     C128243  13.582  18.015  12.824 -0.0802  0.1099  0.1007
14122OCT     C228244  13.753  18.433  12.915 -0.1028  0.1699  0.3288
14123OCT     C128245   7.106  16.855   9.791  0.1691 -0.0655  0.2505
14123OCT     C228246   7.434  16.909   9.478  0.1219  0.1407  0.2836
14124OCT     C128247  15.367   3.063   0.248 -0.1647  0.0794 -0.0035
14124OCT     C228248  15.221   3.375   0.565  0.0852  0.1817 -0.2525
14125OCT     C128249  12.959  10.555   2.283  0.0027 -0.1912 -0.1562
14125OCT     C228250  12.554  10.429   2.099 -0.4921  0.0453  0.0414
14126OCT     C128251  10.181  18.036  21.726  0.1182 -0.0122 -0.0082
14126OCT     C228252  10.485  18.442  21.713 -0.1588  0.5518 -0.3528
14127OCT     C128253  11.066   8.631  16.530 -0.2566  0.3899  0.0723
14127OCT     C228254  11.050   8.559  17.013 -0.0993  0.2490 -0.1056
14128OCT     C128255   7.078  17.213  17.807 -0.0639 -0.2923  0.4801
14128OCT     C228256   7.217  16.779  17.953 -0.2249 -0.1732 -0.5288
14129OCT     C128257  12.788   6.593  18.460 -0.4160  0.1404  0.4177
14129OCT     C228258  13.049   6.299  18.705 -0.2049  0.1592 -0.0085
14130OCT     C128259   0.581  18.081  21.733  0.1018 -0.2891 -0.0746
14130OCT     C228260   0.787  18.150  22.139  0.1614 -0.2011  0.1387
14131OCT     C128261   5.269   4.895   3.793 -0.0653 -0.1823  0.1500
14131OCT     C228262   5.600   4.553   3.867  0.0883 -0.1585  0.1243
14132OCT     C128263  16.299   4.418   8.744 -0.0153  0.2320 -0.2709
14132OCT     C228264  16.405   4.011   8.986  0.3666 -0.2889  0.2264
14133OCT     C128265  11.721  22.010  16.033  0.0404 -0.3211 -0.0828
14133OCT     C228266  11.591  22.237  16.395 -0.0108 -0.2245  0.3102
14134OCT     C128267  13.877  12.709  13.208 -0.0864 -0.1812 -0.0992
14134OCT     C228268  13.869  12.681  13.657  0.3907 -0.0781 -0.0275
14135OCT     C128269   9.431  17.306  13.228  0.2007 -0.2022 -0.1366
14135OCT     C228270   9.455  17.628  13.543  0.3767  0.2067 -0.4040
14136OCT     C128271  13.394  16.040  17.365 -0.0282 -0.1245 -0.0561
14136OCT     C228272  13.579  16.356  17.108  0.2763  0.0555  0.0011
14137OCT     C128273  11.684   2.819  18.364 -0.1367  0.1046 -0.2631
14137OCT     C228274  11.812   2.642  17.904 -0.1753 -0.2371  0.0434
14138OCT     C128275  23.123  19.585  10.009 -0.2699 -0.4498  0.1628
14138OCT     C228276  23.010  19.840  10.441 -0.1773 -0.0272  0.2286
14139OCT     C128277  14.931  16.710   3.108  0.0553 -0.0988 -0.0672
14139OCT     C228278  15.112  17.148   3.047 -0.1319  0.1650  0.0089
14140OCT     C128279   7.195  16.744  13.812  0.0262  0.2078  0.3983
14140OCT     C228280   6.878  16.688  14.146 -0.1526  0.1043  0.3799
14141OCT     C128281   0.493   0.844  17.110 -0.0991  0.3393 -0.0833
14141OCT     C228282   0.042   0.762  16.979 -0.2579  0.0003 -0.4679
14142OCT     C128283   6.521   4.435  23.076  0.0614 -0.1943 -0.1219
14142OCT     C228284   6.826   4.219  23.352 -0.1248  0.0840 -0.0596
14143OCT     C128285  10.422  14.342   7.294 -0.0294  0.1392 -0.3762
14143OCT     C228286  10.139  14.549   7.590 -0.4094 -0.1202 -0.2857
14144OCT     C128287  17.149   6.033   5.205 -0.2109  0.2047  0.2237
14144OCT     C228288  17.315   6.256   5.586  0.1061 -0.0627 -0.1806
14145OCT     C128289  19.323   4.864  23.094  0.2553 -0.0724  0.0011
14145OCT     C228290  19.207   4.566  22.662  0.2337  0.0523 -0.0092
14146OCT     C128291  23.634  22.801  19.413  0.0390  0.0674  0.2417
14146OCT     C228292  23.405  22.700  18.991 -0.2293  0.1787  0.1833
14147OCT     C128293   2.972   7.145   2.521 -0.2683  0.3405  0.0944
14147OCT     C228294   3.145   7.613   2.450  0.3178  0.0760  0.4005
14148OCT     C128295  12.151   8.469   8.047  0.0384 -0.1852 -0.1729
14148OCT     C228296  12.572   8.657   8.103 -0.2124 -0.3033 -0.1601
14149OCT     C128297  18.482   3.666  21.382  0.0745  0.1575 -0.2128
14149OCT     C228298  18.172   3.376  21.292  0.0268 -0.1904 -0.1983
14150OCT     C128299  17.886   7.675  21.876 -0.0533  0.0660  0.0343
14150OCT     C228300  17.624   7.798  22.289  0.0571  0.0462 -0.2367
14151OCT     C128301   8.902  12.849   4.264  0.3724 -0.0946 -0.1679
14151OCT     C228302   8.753  12.913   3.833  0.0699  0.1149 -0.0510
14152OCT     C128303   2.370   4.236   7.224 -0.1190 -0.0482  0.5462
14152OCT     C228304   2.100   3.842   7.198 -0.1416 -0.2456  0.0260
14153OCT     C128305  12.378  22.544   0.715 -0.0694 -0.4979 -0.2615
14153OCT     C228306  12.590  22.801   1.052 -0.0065  0.2911  0.1320
14154OCT     C128307  13.619  22.252  22.536 -0.4633  0.1776  0.0297
14154OCT     C228308  13.223  22.487  22.431  0.4374  0.0911 -0.0766
14155OCT     C128309  23.236  22.575   9.891 -0.0682 -0.1301 -0.0012
14155OCT     C228310  22.880  22.515  10.234 -0.3826 -0.3247  0.0694
14156OCT     C128311   3.094  12.925   4.721  0.1992 -0.3489  0.2257
14156OCT     C228312   3.537  12.942   4.693  0.0108 -0.3103  0.0326
14157OCT     C128313   1.987   3.377   2.193  0.0544 -0.0989 -0.0275
14157OCT     C228314   1.548   3.392   2.382  0.2334  0.1167 -0.0682
14158OCT     C128315  16.143  15.087  16.185 -0.0706 -0.2362  0.3395
14158OCT     C228316  16.031  14.750  15.867 -0.1717 -0.1897 -0.0665
14159OCT     C128317  10.024  15.062  20.405 -0.0416  0.0736  0.0450
14159OCT     C228318  10.039  14.718  20.692 -0.3954  0.1669  0.0756
14160OCT     C128319  14.032   3.332   1.123  0.1724 -0.2248  0.0640
14160OCT     C228320  13.997   3.450   0.686 -0.0814  0.1107 -0.1711
14161OCT     C128321   3.578  20.658   4.535  0.1481  0.1615  0.1271
14161OCT     C228322   3.635  20.446   4.127 -0.2381 -0.1315  0.0278
14162OCT     C128323  17.794   4.132  20.854  0.1904  0.1260 -0.1987
14162OCT     C228324  17.816   3.846  21.242  0.0102  0.0769 -0.2594
14163OCT     C128325  13.714   0.532  13.798 -0.2301  0.1026  0.0653
14163OCT     C228326  13.329   0.303  13.962 -0.1049 -0.2362  0.0530
14164OCT     C128327  19.753  23.552   6.100  0.0316  0.1708 -0.2153
14164OCT     C228328  19.307  23.405   5.888 -0.0386 -0.1206  0.0540
14165OCT     C128329   1.077  15.452   8.046 -0.0941  0.1622  0.0288
14165OCT     C228330   0.748  15.380   8.329 -0.1811  0.1282  0.0665
14166OCT     C128331  17.958   8.730  12.104 -0.1719 -0.1181 -0.0434
14166OCT     C228332  17.705   9.000  11.801 -0.2783  0.2486  0.1599
14167OCT     C128333   2.079   8.247  22.863  0.0309 -0.0378  0.2528
14167OCT     C228334   2.158   8.587  23.210  0.4991  0.1921 -0.2544
14168OCT     C128335  17.189   5.055   7.823  0.4103  0.1080  0.1741
14168OCT     C228336  17.113   5.474   7.611  0.0861 -0.1774 -0.1577
14169OCT     C128337  15.897  22.485   2.675  0.1705  0.2567  0.1760
14169OCT     C228338  15.502  22.402   2.921 -0.3296  0.1450 -0.2468
14170OCT     C128339  10.652  15.036  16.705 -0.0423  0.3261  0.4339
14170OCT     C228340  10.478  15.428  16.893  0.0241  0.1089  0.0882
14171OCT     C128341   9.725   3.879  20.895  0.0662 -0.6509 -0.2118
14171OCT     C228342   9.630   4.086  21.343 -0.0367  0.1029  0.3651
14172OCT     C128343   7.077  19.586  15.696  0.1516 -0.3213  0.0831
14172OCT     C228344   6.680  19.816  15.806  0.2852 -0.1843  0.0043
14173OCT     C128345   3.457   2.054  11.845 -0.1197 -0.0594 -0.1032
14173OCT     C228346   3.435   1.913  12.283 -0.2364  0.0754  0.3276
14174OCT     C128347  17.724   3.312  21.091  0.1202  0.0489 -0.1216
14174OCT     C228348  17.985   3.593  20.787  0.1316  0.1408  0.0605
14175OCT     C128349  13.219   1.664  12.388 -0.2987 -0.1559  0.1409
14175OCT     C228350  13.601   1.541  12.708 -0.0558 -0.0418  0.4074
14176OCT     C128351  22.997  16.244   7.974 -0.2496  0.0315 -0.3846
14176OCT     C228352  22.965  15.842   7.753  0.0709 -0.2224 -0.3543
14177OCT     C128353  11.227  12.005  23.085  0.0283  0.0100  0.3807
14177OCT     C228354  11.144  11.876  23.530  0.1145  0.1099  0.2801
14178OCT     C128355   2.815  19.134   1.566 -0.1511  0.1419 -0.0065
14178OCT     C228356   3.158  19.012   1.456  0.1748 -0.2279 -0.0378
14179OCT     C128357  19.480  19.069  16.668 -0.2296  0.3996 -0.0296
14179OCT     C228358  19.884  19.330  16.621 -0.1598 -0.2127 -0.6095
14180OCT     C128359  17.208   8.658  17.283 -0.2339  0.0205  0.3467
14180OCT     C228360  17.115   8.367  16.925 -0.0659 -0.3191 -0.0254
14181OCT     C128361   6.401  23.301   1.120 -0.0184 -0.0802  0.2328
14181OCT     C228362   6.599  23.521   0.763  0.1847 -0.0488  0.3230
14182OCT     C128363  14.193   9.089  11.894  0.3780  0.2288  0.1534
14182OCT     C228364  14.010   9.464  12.022  0.1646 -0.5158 -0.0750
14183OCT     C128365  17.150  21.145  19.303 -0.3020  0.1729 -0.1062
14183OCT     C228366  17.561  21.317  19.279  0.0928  0.0754  0.3217
14184OCT     C128367  10.377  19.379  19.128  0.2435 -0.1605  0.1721
14184OCT     C228368  10.109  19.001  18.978  0.3544  0.1021 -0.0967
14185OCT     C128369  13.163  23.268   9.539  0.3467  0.2310  0.2711
14185OCT     C228370  12.760  23.092   9.450 -0.3706  0.1313 -0.0024
14186OCT     C128371  11.491  21.075  13.673 -0.5082  0.2282  0.2873
14186OCT     C228372  11.726  21.221  14.008  0.2155 -0.1352  0.0920
14187OCT     C128373  15.346  19.911  17.169  0.1190 -0.1902  0.3330
14187OCT     C228374  15.530  19.569  17.345 -0.5647  0.2225  0.2344
14188OCT     C128375  18.512  18.387   9.553 -0.1269 -0.2731  0.2575
14188OCT     C228376  18.526  18.845   9.679  0.1961  0.1177  0.1072
14189OCT     C128377  21.045  16.088  17.540 -0.0417 -0.0375  0.2919
14189OCT     C228378  21.106  16.381  17.908 -0.0015  0.0462  0.2393
14190OCT     C128379  18.174  11.956  20.751 -0.0714  0.0605 -0.4923
14190OCT     C228380  18.536  11.861  21.019 -0.4782  0.3606  0.0784
14191OCT     C128381  22.342   6.969   8.501  0.1531  0.0394 -0.4255
14191OCT     C228382  22.762   7.100   8.337  0.0612 -0.1384  0.2036
14192OCT     C128383   8.721  20.516   5.310 -0.1576 -0.0535  0.4359
14192OCT     C228384   9.206  20.634   5.402  0.3750  0.1508  0.1598
14193OCT     C128385   4.508   4.752   2.000  0.1881  0.0677 -0.0118
14193OCT     C228386   4.755   4.431   2.267 -0.3704 -0.2080 -0.1598
14194OCT     C128387  21.313  17.993   0.125 -0.2305 -0.1109  0.2140
14194OCT     C228388  21.254  17.683  23.489 -0.2331 -0.1264 -0.2641
14195OCT     C128389  20.555  20.781  16.279  0.3997 -0.0450  0.3152
14195OCT     C228390  20.229  21.018  16.526 -0.2441 -0.0680 -0.0761
14196OCT     C128391  23.130   2.202  21.558 -0.1154 -0.0576  0.0172
14196OCT     C228392  23.081   2.095  22.007  0.0410 -0.2036 -0.1863
14197OCT     C128393   6.694   5.923  10.188  0.4081  0.1853  0.0326
14197OCT     C228394   6.651   6.027   9.735 -0.2168 -0.2057  0.0106
14198OCT     C128395  12.435   1.596   0.863  0.1528  0.3908 -0.1591
14198OCT     C228396  12.175   1.896   0.603  0.1249 -0.0514 -0.2646
14199OCT     C128397   8.842   1.272  15.807 -0.0271  0.2259  0.4055
14199OCT     C228398   8.992   1.008  16.160 -0.4649 -0.1828 -0.0676
14200OCT     C128399  12.089  11.889  18.128 -0.3595  0.0747 -0.2448
14200OCT     C228400  11.931  12.223  17.893 -0.1504 -0.1315  0.3571
14201OCT     C128401  10.586   5.844   6.040 -0.0520 -0.1188 -0.0457
14201OCT     C228402  10.231   5.552   6.032  0.3505 -0.0515 -0.0603
14202OCT     C128403   0.788  22.312   8.225 -0.2492 -0.0359  0.1153
14202OCT     C228404   0.756  22.572   7.836 -0.0180  0.1515  0.1443
14203OCT     C128405  17.504  20.259   6.662 -0.1877 -0.0492  0.3059
14203OCT     C228406  17.139  20.098   6.955  0.0271  0.0207 -0.1509
14204OCT     C128407  12.684   6.118  22.313  0.0519  0.3845  0.1420
14204OCT     C228408  13.091   6.245  22.461 -0.1656 -0.3075  0.3090
14205OCT     C128409  15.660  23.675  17.231  0.2387  0.0237  0.4023
14205OCT     C228410  15.257  23.387  17.243 -0.4901 -0.0246 -0.1409
14206OCT     C128411   6.706   9.710  12.986 -0.0521 -0.0278  0.0408
14206OCT     C228412   6.892   9.341  13.236  0.0126 -0.0799 -0.2382
14207OCT     C128413  20.081   3.990  21.261 -0.0791  0.4739  0.1774
14207OCT     C228414  19.796   4.345  21.182  0.0853  0.0172  0.1599
14208OCT     C128415   3.838  18.973  17.685  0.1949  0.3046  0.1087
14208OCT     C228416   4.218  18.832  17.434 -0.0761 -0.1049  0.0696
14209OCT     C128417  19.823   3.054  13.659  0.0421 -0.0437  0.1089
14209OCT     C228418  19.982   2.609  13.752 -0.2039 -0.1429  0.2046
14210OCT     C128419   3.328   9.660   8.250 -0.3451 -0.0575 -0.0890
14210OCT     C228420   2.870   9.811   8.245  0.1478 -0.2091 -0.0508
14211OCT     C128421  22.942  11.950   0.278 -0.1723 -0.1279  0.1707
14211OCT     C228422  23.251  12.252   0.545  0.2848 -0.1293 -0.2771
14212OCT     C128423   0.705  20.771  16.759  0.2221 -0.1943 -0.0448
14212OCT     C228424   0.566  20.486  16.426 -0.1820 -0.2189  0.1153
14213OCT     C128425   1.115  20.672   6.922 -0.0619  0.0199  0.1637
14213OCT     C228426   1.168  20.430   6.599 -0.0167 -0.1903  0.4006
14214OCT     C128427   6.369  12.500  22.385  0.4328 -0.3088  0.1312
14214OCT     C228428   6.425  12.228  22.052  0.2521  0.2420 -0.0457
14215OCT     C128429  12.615   4.426  22.321 -0.0091  0.0426  0.1005
14215OCT     C228430  12.827   4.083  22.020 -0.0048  0.0840 -0.0765
14216OCT     C128431  22.044  22.873  10.746 -0.2414 -0.0241 -0.0360
14216OCT     C228432  22.109  22.418  10.863  0.1520 -0.4002  0.0044
14217OCT     C128433   0.763   0.528   0.251  0.3381  0.0726  0.0196
14217OCT     C228434   1.187   0.709   0.256  0.0662  0.2164  0.0509
14218OCT     C128435  15.933  17.199   3.743 -0.2863  0.0660 -0.0700
14218OCT     C228436  16.339  17.108   3.982 -0.0385 -0.0648  0.3157
14219OCT     C128437  10.850   9.531  22.802 -0.0498  0.1902  0.2086
14219OCT     C228438  11.301   9.619  22.748  0.1194 -0.1625 -0.0507
14220OCT     C128439  13.038  14.184  11.407 -0.1242  0.1242  0.1542
14220OCT     C228440  12.749  14.534  11.568  0.1390 -0.1282 -0.4460
14221OCT     C128441  20.611  21.466   9.904  0.1492 -0.0655  0.0881
14221OCT     C228442  20.198  21.199   9.816 -0.0056  0.4497 -0.0122
14222OCT     C128443  18.082  21.342   9.809 -0.0972 -0.0809  0.1881
14222OCT     C228444  17.993  20.982  10.114  0.0334 -0.1890  0.0397
14223OCT     C128445  16.082   3.759  22.317  0.0451 -0.1274 -0.0155
14223OCT     C228446  15.824   3.432  22.112  0.4685  0.0772 -0.0965
14224OCT     C128447  11.753  20.553   7.208  0.2180 -0.0677 -0.1935
14224OCT     C228448  11.971  20.554   6.777  0.2916 -0.2871 -0.0818
14225OCT     C128449  21.724  17.454  11.043 -0.0319  0.1211  0.1302
14225OCT     C228450  21.665  17.160  11.438  0.3067  0.2533 -0.0517
14226OCT     C128451  21.620   9.104   8.753 -0.0986  0.2751  0.1265
14226OCT     C228452  21.239   9.117   8.470  0.1231 -0.0854  0.1236
14227OCT     C128453   6.037  10.134   7.852  0.3213  0.0194 -0.1680
14227OCT     C228454   5.571  10.279   7.899  0.3217  0.0196  0.0209
14228OCT     C128455   8.513  20.147  11.369 -0.0880 -0.0237  0.0844
14228OCT     C228456   8.896  20.371  11.189 -0.2450 -0.2773  0.5574
14229OCT     C128457   8.337   7.290  22.037 -0.0849 -0.1188  0.0502
14229OCT     C228458   8.153   7.423  22.428 -0.0343  0.3669  0.3439
14230OCT     C128459   2.479   9.700  11.861 -0.0564  0.1082  0.2885
14230OCT     C228460   2.114   9.412  11.908 -0.2558 -0.1039 -0.0329
14231OCT     C128461  11.746   8.531  10.066  0.0634 -0.1932  0.6908
14231OCT     C228462  11.330   8.748  10.245 -0.1742 -0.2660 -0.0139
14232OCT     C128463   8.255  21.984  12.407 -0.0836 -0.3752 -0.2003
14232OCT     C228464   7.838  21.895  12.643  0.0002 -0.0014 -0.0274
14233OCT     C128465   8.755   8.087   7.929  0.5992 -0.0788  0.0422
14233OCT     C228466   8.386   8.031   8.175  0.4062  0.1032  0.3071
14234OCT     C128467   0.110  21.811   7.540 -0.0143  0.0711  0.0525
14234OCT     C228468  23.451  21.618   7.514  0.0897 -0.0021  0.5293
14235OCT     C128469   1.860  14.629   5.270 -0.1579  0.1681  0.1594
14235OCT     C228470   1.855  14.955   5.627  0.0291 -0.3589 -0.1038
14236OCT     C128471   4.574  17.544  17.167  0.2755  0.1628  0.0539
14236OCT     C228472   4.372  17.547  16.717 -0.1908 -0.0170 -0.0383
14237OCT     C128473   6.931   1.116  15.595  0.0565  0.3630  0.0677
14237OCT     C228474   6.679   1.399  15.872  0.3980  0.0738  0.0498
14238OCT     C128475  11.087   8.387   5.736 -0.0982  0.1379 -0.1412
14238OCT     C228476  11.149   8.545   5.286 -0.2417  0.2909  0.0444
14239OCT     C128477   2.047   3.159   7.352 -0.2879 -0.1203 -0.1380
14239OCT     C228478   2.370   3.438   7.201  0.2138  0.0639 -0.0526
14240OCT     C128479   2.531   3.851  10.368 -0.2991  0.2514 -0.2694
14240OCT     C228480   2.313   3.748   9.989  0.0243  0.0308  0.1663
14241OCT     C128481  21.315  11.433  16.177  0.0157 -0.3165  0.0574
14241OCT     C228482  21.184  10.998  16.244  0.0763 -0.0165 -0.0053
14242OCT     C128483  22.982   0.352   5.562  0.0414 -0.3439 -0.0716
14242OCT     C228484  23.103  23.661   5.633  0.1788 -0.2074  0.0690
14243OCT     C128485   1.412  21.863   0.968 -0.0897  0.1940  0.0426
14243OCT     C228486   1.810  22.119   1.069  0.1511  0.2714 -0.3214
14244OCT     C128487   1.490   1.402   1.153 -0.0568 -0.0212  0.0356
14244OCT     C228488   1.442   1.687   1.569 -0.0267  0.1726 -0.0043
14245OCT     C128489   6.004   2.706   2.272 -0.0904 -0.1302 -0.3141
14245OCT     C228490   6.334   2.894   2.509  0.1995 -0.1295  0.2273
14246OCT     C128491  21.544   9.106  17.065  0.1687  0.0102  0.1232
14246OCT     C228492  21.984   8.889  16.946 -0.0097  0.3213  0.0632
14247OCT     C128493   5.655  12.958  17.473  0.3364 -0.1316  0.3338
14247OCT     C228494   5.270  12.753  17.461  0.1136 -0.1449  0.2312
14248OCT     C128495  11.346   4.977  21.375  0.1495 -0.1864  0.1919
14248OCT     C228496  11.515   5.415  21.255 -0.4057 -0.2180 -0.0997
14249OCT     C128497  20.428  20.107  16.395 -0.1863 -0.4959 -0.3061
14249OCT     C228498  20.727  19.790  16.600  0.0247  0.0701  0.2689
14250OCT     C128499   6.695  12.355   0.849  0.2013  0.3019  0.0962
14250OCT     C228500   6.875  12.425   0.419 -0.1880 -0.0514 -0.0362
14251OCT     C128501   1.164  21.741   6.013  0.0339  0.1523 -0.1879
14251OCT     C228502   1.124  21.451   6.392  0.0264 -0.1210 -0.1301
14252OCT     C128503   5.974  13.839  17.091 -0.0554 -0.0415 -0.0392
14252OCT     C228504   6.185  13.447  17.074 -0.3196 -0.2606  0.0088
14253OCT     C128505   2.770  12.519  20.510  0.0058  0.0318 -0.0125
14253OCT     C228506   3.145  12.577  20.903  0.4008  0.0228  0.1769
14254OCT     C128507  17.780   6.433  21.025  0.1925 -0.4100 -0.1023
14254OCT     C228508  18.091   6.647  20.735 -0.4129 -0.2813  0.4443
14255OCT     C128509  17.107  13.433  23.150  0.2297  0.3463 -0.1919
14255OCT     C228510  17.073  13.194  23.590  0.4650 -0.2026 -0.3326
14256OCT     C128511  14.591  17.957  13.787  0.0583 -0.3165  0.2912
14256OCT     C228512  15.019  17.817  13.992 -0.0746 -0.1168  0.0978
14257OCT     C128513  15.336   7.101  19.712  0.1439  0.1574 -0.0412
14257OCT     C228514  15.270   7.428  19.388 -0.0257 -0.3363  0.0307
14258OCT     C128515  22.612   0.998  14.189  0.0189  0.1760 -0.0507
14258OCT     C228516  22.635   1.432  14.319  0.2445 -0.1255  0.0661
14259OCT     C128517  17.250  15.897  19.684  0.0353  0.0110  0.1746
14259OCT     C228518  16.835  16.091  19.491 -0.0580 -0.1521 -0.3648
14260OCT     C128519  22.837  10.661   7.843  0.0602 -0.1806 -0.1293
14260OCT     C228520  22.805  10.625   8.306  0.2456 -0.0440  0.1951
14261OCT     C128521   0.827  18.878  22.741 -0.1730  0.4173  0.4698
14261OCT     C228522   1.159  19.212  22.608  0.0247  0.1818 -0.0514
14262OCT     C128523   2.891  11.620  11.189 -0.1903 -0.0797  0.1567
14262OCT     C228524   2.547  11.605  11.505 -0.1796  0.1272 -0.1094
14263OCT     C128525   3.587  15.046  12.432  0.3356 -0.0144  0.2119
14263OCT     C228526   3.150  15.157  12.590  0.1956 -0.1325  0.1156
14264OCT     C128527   2.426   0.657  19.227  0.0918 -0.0917  0.1238
14264OCT     C228528   2.003   0.882  19.238  0.0477 -0.3308  0.0597
14265OCT     C128529  17.164  22.811  15.769  0.1626  0.0523  0.1896
14265OCT     C228530  16.994  23.176  15.977 -0.0150 -0.0220  0.0971
14266OCT     C128531   3.676  17.020  17.199 -0.0630 -0.3391 -0.3591
14266OCT     C228532   3.787  16.541  17.245 -0.0521  0.0612  0.0515
14267OCT     C128533  10.442  19.949   7.714  0.3083 -0.0082  0.0142
14267OCT     C228534  10.189  19.878   8.122  0.0817  0.3138  0.1635
14268OCT     C128535   2.638  13.774  18.067  0.1130  0.0430 -0.0132
14268OCT     C228536   2.415  14.010  17.791 -0.3193  0.1194 -0.1085
14269OCT     C128537  15.308  21.211  15.538  0.1331  0.3426 -0.1252
14269OCT     C228538  15.172  21.262  15.071 -0.1396  0.0707 -0.0537
14270OCT     C128539  16.377  14.811   2.079 -0.0277  0.0207 -0.0230
14270OCT     C228540  16.547  15.248   2.173  0.2666  0.1032 -0.0712
14271OCT     C128541  20.685   9.057   6.767  0.0250 -0.1468  0.2614
14271OCT     C228542  20.968   8.940   7.171 -0.3529 -0.0440 -0.0085
14272OCT     C128543   9.180   8.920   6.742 -0.0826 -0.3963 -0.0771
14272OCT     C228544   9.044   9.198   6.386 -0.1851  0.0307 -0.0714
14273OCT     C128545  10.825   6.156  10.988 -0.2520 -0.1167 -0.0144
14273OCT     C228546  11.133   6.072  11.374  0.2124  0.3109  0.1515
14274OCT     C128547  21.428  15.819   9.914  0.0142  0.3039 -0.1198
14274OCT     C228548  21.634  15.792  10.334  0.0308  0.0732 -0.0567
14275OCT     C128549   1.368  16.604   4.149  0.0072  0.0425  0.4933
14275OCT     C228550   1.342  16.887   3.714 -0.0485 -0.0943  0.0053
14276OCT     C128551   3.290  16.495  21.367  0.1626  0.0121  0.0348
14276OCT     C228552   3.707  16.283  21.119 -0.0830  0.1809 -0.1433
14277OCT     C128553   4.349   2.504   6.901  0.3591  0.2638  0.2083
14277OCT     C228554   4.067   2.302   6.557 -0.2459 -0.1318 -0.1217
14278OCT     C128555   9.500  20.819  11.850 -0.0654 -0.2175  0.0747
14278OCT     C228556   9.327  20.738  12.307  0.1173  0.1561 -0.1174
14279OCT     C128557  21.179  18.644  20.517  0.1295  0.1334 -0.3333
14279OCT     C228558  21.099  18.761  20.054  0.0482 -0.1058 -0.1063
14280OCT     C128559  19.827   3.613   0.983  0.2377  0.2448 -0.1267
14280OCT     C228560  19.995   3.337   0.572  0.0229 -0.1521 -0.0042
14281OCT     C128561   2.543  20.372  21.180  0.1431  0.1533 -0.2120
14281OCT     C228562   2.962  20.246  21.091 -0.1165  0.2109 -0.0022
14282OCT     C128563  20.948  22.999   0.162  0.0180 -0.1451  0.1442
14282OCT     C228564  20.893  23.449   0.143  0.0104  0.2301  0.3872
14283OCT     C128565  21.860  18.461  12.267 -0.4149 -0.2349 -0.0612
14283OCT     C228566  21.830  18.934  12.230 -0.4569  0.2053 -0.0798
14284OCT     C128567   0.388   4.938   3.418  0.2014  0.0198 -0.1942
14284OCT     C228568   0.216   5.197   3.816  0.0950 -0.1174  0.0337
14285OCT     C128569  20.515  19.652  17.881  0.1713 -0.1094 -0.1016
14285OCT     C228570  20.951  19.822  17.764  0.0152 -0.0483 -0.4332
14286OCT     C128571  18.564   8.783   3.534  0.4422  0.2728 -0.4925
14286OCT     C228572  18.681   8.648   3.110  0.0053  0.1157 -0.0768
14287OCT     C128573  17.460   0.826  22.885 -0.6270 -0.0949 -0.3443
14287OCT     C228574  17.463   0.944  22.477 -0.1420 -0.0145  0.2246
14288OCT     C128575  22.872   8.813   8.106 -0.1839  0.3177  0.3587
14288OCT     C228576  22.683   9.062   7.766  0.2185 -0.2274 -0.0065
14289OCT     C128577  12.790  16.990  13.001 -0.0210  0.3310 -0.3779
14289OCT     C228578  12.776  17.252  13.386 -0.4043  0.1010  0.3854
14290OCT     C128579  15.111  22.442   6.764  0.0653 -0.0806 -0.3650
14290OCT     C228580  15.383  22.721   7.007  0.0707  0.2597 -0.2314
14291OCT     C128581  14.483  20.055  10.781  0.2056 -0.1441  0.2652
14291OCT     C228582  14.278  19.833  11.141  0.0365 -0.0443 -0.0073
14292OCT     C128583  15.211  19.146  16.034 -0.1368  0.5660 -0.1770
14292OCT     C228584  14.936  19.583  15.998  0.1255 -0.2046  0.0219
14293OCT     C128585  23.559   9.796  15.477 -0.4168 -0.3580  0.3737
14293OCT     C228586  23.263  10.151  15.464 -0.3470 -0.0469 -0.1114
14294OCT     C128587   2.238  20.319  22.430  0.1932  0.0582 -0.1860
14294OCT     C228588   1.965  20.665  22.412 -0.0245 -0.1093  0.2693
14295OCT     C128589  16.833  15.659   7.585  0.0609 -0.1425 -0.0468
14295OCT     C228590  16.823  15.582   7.111  0.4758  0.1526  0.2047
14296OCT     C128591  18.727  11.307   8.640 -0.0903  0.2797  0.3484
14296OCT     C228592  19.088  11.295   8.374 -0.0168  0.1644 -0.2530
14297OCT     C128593   4.091   5.591   5.249  0.1449  0.3117  0.0509
14297OCT     C228594   4.001   5.982   5.108 -0.2288 -0.1456 -0.1319
14298OCT     C128595  11.819   3.118  14.105  0.2269  0.1131  0.2469
14298OCT     C228596  11.612   2.827  13.712 -0.1079 -0.0829 -0.4200
14299OCT     C128597  17.066   1.418  19.707 -0.0957 -0.0626 -0.2085
14299OCT     C228598  17.491   1.272  19.791  0.2630  0.1593  0.1683
14300OCT     C128599  12.169  23.343  21.803  0.0698 -0.0071  0.0445
14300OCT     C228600  12.392  23.228  21.401 -0.0276 -0.0318 -0.3129
14301OCT     C128601  17.494  21.476  23.011 -0.0303  0.0654 -0.1840
14301OCT     C228602  17.325  21.906  23.065  0.0968 -0.1382 -0.1760
14302OCT     C128603   2.217   6.122  19.252 -0.0521  0.2051  0.3002
14302OCT     C228604   1.757   6.015  19.116  0.0132  0.0107  0.1977
14303OCT     C128605   5.943   2.350  12.714 -0.5696  0.1500  0.0222
14303OCT     C228606   5.774   2.315  13.161  0.2537 -0.6063  0.2944
14304OCT     C128607   6.911  20.605  20.569  0.1068 -0.1580  0.0284
14304OCT     C228608   7.214  20.619  20.155 -0.1657 -0.1166  0.0421
14305OCT     C128609   2.098   4.618  13.279 -0.1339  0.2574  0.3175
14305OCT     C228610   1.935   4.227  13.063 -0.1422 -0.0123 -0.0097
14306OCT     C128611   6.221  22.013   4.264  0.2727 -0.1961 -0.2838
14306OCT     C228612   6.046  21.728   3.889 -0.0794  0.1586 -0.2016
14307OCT     C128613  23.160  21.099  20.107  0.3053  0.1306  0.3333
14307OCT     C228614  22.827  20.815  20.244  0.3045 -0.0894 -0.0576
14308OCT     C128615  14.254  14.259   1.162 -0.2267 -0.0968 -0.0063
14308OCT     C228616  14.530  14.289   1.556  0.1470  0.0796  0.1354
14309OCT     C128617  23.616  11.657  13.375  0.0884  0.3344 -0.0305
14309OCT     C228618  23.631  11.219  13.120  0.1909 -0.2637 -0.1015
14310OCT     C128619  13.507   8.964   7.905  0.0182  0.2183 -0.2473
14310OCT     C228620  13.774   8.902   8.375  0.1471  0.1363  0.2683
14311OCT     C128621  17.689   0.594   4.660 -0.2880 -0.1173  0.0318
14311OCT     C228622  17.575   1.044   4.597 -0.5637 -0.0049  0.1504
14312OCT     C128623  15.205   6.283  18.995 -0.1277 -0.0623 -0.0298
14312OCT     C228624  14.762   6.250  19.134 -0.0923  0.2853  0.0159
14313OCT     C128625   2.349   2.482  19.970  0.2392 -0.1459  0.0137
14313OCT     C228626   2.646   2.419  19.588 -0.0103  0.0991  0.0554
14314OCT     C128627   3.082  12.442   3.871  0.0769  0.3812  0.0632
14314OCT     C228628   2.846  12.483   4.266 -0.2021  0.0602 -0.0825
14315OCT     C128629  15.008  17.248  18.621 -0.1268  0.1937  0.0975
14315OCT     C228630  14.666  16.911  18.485 -0.0151  0.2123  0.2811
14316OCT     C128631   4.637   6.567   8.170 -0.2627  0.1062  0.1660
14316OCT     C228632   4.635   6.114   8.374  0.2351  0.1318 -0.0399
14317OCT     C128633   2.603  21.199  11.177  0.1549  0.2275  0.1114
14317OCT     C228634   2.165  21.071  11.362  0.1126  0.1536 -0.1291
14318OCT     C128635  10.648  18.318   8.791  0.2919  0.2805  0.1375
14318OCT     C228636  10.339  18.160   8.504  0.2468 -0.2002 -0.2590
14319OCT     C128637   3.315   2.408  18.013 -0.0535 -0.3300  0.2009
14319OCT     C228638   3.438   2.868  18.095  0.0219  0.0768  0.3731
14320OCT     C128639   8.573   9.037  23.369  0.0840 -0.1530  0.1705
14320OCT     C228640   8.694   9.397  23.666  0.0335  0.0954  0.1411
14321OCT     C128641  17.486  17.804   7.751 -0.0553 -0.2029 -0.1199
14321OCT     C228642  17.730  17.943   8.120 -0.1798  0.1314  0.2832
14322OCT     C128643  17.250  21.954   8.569 -0.0071 -0.5968 -0.0345
14322OCT     C228644  17.179  22.415   8.466  0.2439  0.2904  0.2593
14323OCT     C128645   2.539   7.794   0.977  0.2532  0.0635  0.0550
14323OCT     C228646   2.456   8.217   0.727 -0.1374  0.0644  0.6770
14324OCT     C128647  17.668   0.004  12.276  0.0811 -0.0405  0.3006
14324OCT     C228648  18.002   0.017  11.969  0.2866 -0.0559 -0.0530
14325OCT     C128649  21.342  23.683  22.630 -0.0355  0.2076  0.3755
14325OCT     C228650  21.177  23.273  22.682 -0.3465  0.0086  0.0601
14326OCT     C128651   5.029   9.163   6.483  0.1198 -0.0722 -0.0041
14326OCT     C228652   4.847   9.592   6.652 -0.0228 -0.2176  0.0175
14327OCT     C128653  15.837  11.837   9.163  0.3000 -0.2749 -0.0473
14327OCT     C228654  15.698  12.278   9.315 -0.2504  0.3395 -0.0308
14328OCT     C128655  18.652   3.031   2.024 -0.4500 -0.2130 -0.2218
14328OCT     C228656  18.415   2.863   2.361 -0.0233 -0.4596 -0.1570
14329OCT     C128657   9.571   6.685  10.414  0.0976 -0.1717 -0.1181
14329OCT     C228658   9.912   6.760  10.079 -0.3489 -0.0537 -0.0594
14330OCT     C128659   6.578   7.023   0.180 -0.1492  0.1777 -0.2478
14330OCT     C228660   6.499   6.847   0.630 -0.0065 -0.3624  0.1379
14331OCT     C128661   9.762   7.570  11.986  0.2065 -0.0817 -0.0604
14331OCT     C228662   9.617   7.169  11.818  0.0478 -0.1783  0.2594
14332OCT     C128663   7.088   9.335  11.435 -0.3202  0.1350 -0.1764
14332OCT     C228664   7.068   9.523  11.025 -0.0225  0.2535  0.1992
14333OCT     C128665   9.481  20.183  11.671  0.2012 -0.0004 -0.0783
14333OCT     C228666   9.334  20.508  11.344  0.2334  0.1327 -0.4719
14334OCT     C128667  19.319  18.536  13.571 -0.1681  0.3090 -0.3395
14334OCT     C228668  19.280  18.040  13.662  0.3011  0.1327 -0.0982
14335OCT     C128669  13.757   1.432   1.549  0.0917 -0.0928 -0.1352
14335OCT     C228670  13.905   1.136   1.838 -0.1358 -0.1679  0.0732
14336OCT     C128671  15.998   5.991   6.513 -0.1305 -0.2071 -0.2714
14336OCT     C228672  16.115   6.154   6.115 -0.1904 -0.0163 -0.0690
14337OCT     C128673   6.658   0.345   5.871 -0.0755 -0.1433 -0.0236
14337OCT     C228674   6.530   0.460   5.493  0.2946  0.3789 -0.1959
14338OCT     C128675   4.839  12.293   9.585 -0.0711 -0.1497 -0.4931
14338OCT     C228676   5.266  12.126   9.622 -0.2240 -0.1532 -0.0075
14339OCT     C128677  18.954   0.820   1.966 -0.3191 -0.4276 -0.1409
14339OCT     C228678  19.331   0.647   1.702 -0.3457  0.2879 -0.2259
14340OCT     C128679   3.841  17.444   0.226 -0.0713  0.2220  0.2677
14340OCT     C228680   4.143  17.778   0.276  0.0500 -0.1832  0.0614
14341OCT     C128681   3.459  23.557   8.414  0.0251 -0.3745  0.4227
14341OCT     C228682   3.060  23.281   8.424 -0.1586 -0.2755 -0.4265
14342OCT     C128683  10.280   1.543   5.990  0.1274 -0.1198 -0.0409
14342OCT     C228684  10.676   1.769   5.972  0.1530  0.0544  0.2444
14343OCT     C128685   7.526  20.163   5.554  0.0840 -0.0984 -0.0847
14343OCT     C228686   7.507  19.904   5.137 -0.3515 -0.3421  0.0666
14344OCT     C128687  18.442  20.360  21.917  0.1726  0.2450 -0.2833
14344OCT     C228688  18.517  19.907  21.822 -0.3663 -0.1009 -0.1214
14345OCT     C128689  21.316   8.235   7.067 -0.2231  0.1106  0.2651
14345OCT     C228690  21.737   8.105   6.898 -0.1040 -0.1036 -0.4362
14346OCT     C128691   0.976  16.507  20.571  0.0174 -0.0672  0.0676
14346OCT     C228692   0.837  16.116  20.658  0.4246  0.2380 -0.3495
14347OCT     C128693   0.085  11.821   7.115  0.0115 -0.1931  0.1115
14347OCT     C228694   0.195  11.452   7.384  0.1911 -0.1422  0.0900
14348OCT     C128695  12.347   4.296  23.076 -0.0240 -0.2310  0.0556
14348OCT     C228696  12.608   4.024  23.406  0.0981  0.1761 -0.3772
14349OCT     C128697   3.008  11.069  17.899  0.1856  0.0163 -0.2031
14349OCT     C228698   3.262  11.311  18.256  0.1075  0.1252  0.1691
14350OCT     C128699  11.616  17.496   2.976  0.0990 -0.0244  0.1002
14350OCT     C228700  11.683  17.219   3.373  0.0333  0.3614 -0.0906
14351OCT     C128701  17.377   2.313   7.992  0.2226 -0.1961  0.1056
14351OCT     C228702  17.208   2.133   8.360 -0.4636 -0.0938 -0.0336
14352OCT     C128703  14.660  21.250   0.876 -0.0465  0.0626  0.3027
14352OCT     C228704  15.028  21.369   1.144 -0.0014 -0.2173 -0.2161
14353OCT     C128705  22.779  18.586   3.817  0.3257 -0.1092 -0.0355
14353OCT     C228706  22.864  18.133   3.876  0.2348  0.4058  0.2152
14354OCT     C128707  22.640  13.853  20.806  0.1906 -0.3919 -0.2587
14354OCT     C228708  22.578  14.276  20.697 -0.0894  0.3672 -0.1361
14355OCT     C128709   9.743   5.415  16.655 -0.1767  0.2862 -0.1562
14355OCT     C228710   9.834   5.583  17.069  0.1598 -0.1727  0.1468
14356OCT     C128711  10.557  15.683  18.451  0.1726 -0.0064 -0.1845
14356OCT     C228712  10.305  15.993  18.139  0.0386  0.2753  0.0291
14357OCT     C128713   0.400   7.526   7.868 -0.1151  0.2984  0.1821
14357OCT     C228714   0.818   7.654   8.049 -0.2724  0.0336  0.0010
14358OCT     C128715  21.469  15.864   0.487  0.0530 -0.4033 -0.1908
14358OCT     C228716  21.836  15.746   0.283  0.0030  0.1077  0.2411
14359OCT     C128717  11.018  10.586  10.393  0.2273 -0.2069 -0.0488
14359OCT     C228718  11.024  10.705  10.817 -0.0209  0.2327  0.1799
14360OCT     C128719   0.871   5.804   9.261 -0.0798  0.1937  0.1245
14360OCT     C228720   1.034   6.018   9.656  0.1067  0.0861 -0.4029
14361OCT     C128721   0.716  11.376   9.223  0.0692  0.0220  0.1031
14361OCT     C228722   0.298  11.608   9.247  0.0265 -0.1857 -0.2270
14362OCT     C128723  20.648  12.903   6.879  0.0519  0.5244 -0.1614
14362OCT     C228724  21.055  13.025   6.700  0.2395  0.5983 -0.0794
14363OCT     C128725   3.330  11.893  14.354  0.0115 -0.0485 -0.1008
14363OCT     C228726   3.265  11.719  14.753  0.1131  0.4910  0.1572
14364OCT     C128727  22.240  20.313  16.489  0.0543 -0.0403 -0.0257
14364OCT     C228728  22.400  19.980  16.818 -0.4040  0.1268  0.1305
14365OCT     C128729   0.321   9.736   1.442  0.1909  0.3017 -0.1065
14365OCT     C228730   0.076   9.310   1.602 -0.1233 -0.3813  0.1830
14366OCT     C128731  17.860  21.925   0.109 -0.0339  0.1239 -0.2209
14366OCT     C228732  17.876  21.528  23.645  0.3424  0.1675 -0.0638
14367OCT     C128733  10.786   0.106   5.711 -0.0621  0.0678  0.0116
14367OCT     C228734  10.657   0.320   5.281  0.2206  0.2168  0.3594
14368OCT     C128735  12.332   8.353  13.012  0.1219  0.0332  0.1021
14368OCT     C228736  12.678   8.713  13.086 -0.1390  0.1298 -0.1986
14369OCT     C128737  22.952   4.927  20.987  0.2788  0.2445  0.0332
14369OCT     C228738  22.587   4.732  21.246 -0.0856 -0.1285 -0.2170
14370OCT     C128739  11.483  16.881  11.716  0.1379  0.0966 -0.2808
14370OCT     C228740  11.266  17.055  11.353 -0.0712 -0.1623 -0.0630
14371OCT     C128741   5.921  18.703  16.737 -0.3856 -0.2895  0.1207
14371OCT     C228742   6.246  18.390  16.923  0.1134  0.0553  0.1706
14372OCT     C128743  14.201  15.231   9.007  0.0809  0.0146  0.3029
14372OCT     C228744  14.141  15.522   9.347 -0.0579 -0.1649 -0.0034
14373OCT     C128745  13.159   6.526   9.322 -0.1056 -0.0500 -0.1092
14373OCT     C228746  12.798   6.787   9.388 -0.2108 -0.2321  0.0233
14374OCT     C128747   8.183  18.804   5.126 -0.0117  0.4303 -0.4157
14374OCT     C228748   8.532  19.077   5.299 -0.3444  0.0460  0.3285
14375OCT     C128749  17.434  15.162   2.475  0.1265 -0.2645 -0.0227
14375OCT     C228750  17.732  15.394   2.767  0.3755 -0.1800  0.1210
14376OCT     C128751   1.187  20.309   2.756  0.1859  0.1027 -0.1997
14376OCT     C228752   0.805  20.079   2.898  0.0095 -0.0456 -0.2479
14377OCT     C128753   3.098  10.579   6.896  0.1659 -0.1227  0.1146
14377OCT     C228754   3.428  10.775   6.529  0.2938  0.2076  0.0671
14378OCT     C128755  16.679  16.156   5.621 -0.0175 -0.0245 -0.1855
14378OCT     C228756  16.596  16.605   5.510  0.0025 -0.0844 -0.0387
14379OCT     C128757   5.278  19.899   7.074  0.1298 -0.0841 -0.1785
14379OCT     C228758   5.342  19.492   6.847 -0.3492  0.2098  0.3781
14380OCT     C128759   8.816  10.893  16.958  0.0330 -0.2320 -0.1361
14380OCT     C228760   8.671  11.319  16.808 -0.2098 -0.1799  0.2847
14381OCT     C128761   9.024  12.385  13.494 -0.3231  0.2683 -0.4437
14381OCT     C228762   9.259  12.529  13.883  0.1517  0.1355  0.0819
14382OCT     C128763  23.637   7.642  10.204  0.0028 -0.0761 -0.0053
14382OCT     C228764  23.265   7.376  10.238 -0.0515  0.2101  0.2595
14383OCT     C128765  10.311   1.128  16.166  0.0160 -0.0563 -0.1111
14383OCT     C228766  10.106   0.767  15.911  0.1139 -0.3439  0.1123
14384OCT     C128767  19.504  11.184  19.940 -0.3325  0.1124 -0.0024
14384OCT     C228768  19.837  10.901  19.956 -0.4118  0.2230 -0.0341
14385OCT     C128769   3.139   1.541  15.442  0.3566  0.3066 -0.3340
14385OCT     C228770   3.193   1.977  15.621 -0.4614  0.2088 -0.0820
14386OCT     C128771   6.498   6.508  11.445 -0.2453  0.3571 -0.0202
14386OCT     C228772   6.340   6.515  11.825  0.0586 -0.3373  0.1397
14387OCT     C128773   6.102   2.292   9.305 -0.0791  0.0823  0.2672
14387OCT     C228774   6.567   2.218   9.110 -0.0307  0.2729  0.0257
14388OCT     C128775   4.592   6.663   6.764  0.1790 -0.3298  0.1667
14388OCT     C228776   4.913   6.653   6.442  0.2334 -0.1358 -0.0331
14389OCT     C128777   0.867  23.720   7.745 -0.3527 -0.0321 -0.0770
14389OCT     C228778   0.668  23.325   7.644  0.2295 -0.2959  0.2657
14390OCT     C128779   3.776   5.190  21.740  0.2897 -0.1507 -0.0491
14390OCT     C228780   3.658   4.780  21.484 -0.2402  0.0035 -0.3374
14391OCT     C128781  10.962   8.242  13.951  0.0622 -0.2177  0.0432
14391OCT     C228782  10.973   8.554  13.587  0.0107 -0.2442 -0.2065
14392OCT     C128783   4.045   5.731  13.687 -0.0657  0.0308 -0.0196
14392OCT     C228784   4.041   5.608  14.136 -0.1818 -0.1507  0.0175
14393OCT     C128785   6.762  15.251  16.132 -0.1255  0.4765 -0.1785
14393OCT     C228786   6.798  14.771  16.141  0.2572 -0.0791  0.0080
14394OCT     C128787  21.845   1.316  14.144  0.0097 -0.1526  0.1205
14394OCT     C228788  22.272   1.309  14.024 -0.1179  0.1501  0.0947
14395OCT     C128789   9.083   5.073  10.078 -0.2105  0.2290 -0.0845
14395OCT     C228790   9.151   5.500  10.267  0.1605 -0.0527 -0.0560
14396OCT     C128791  13.403  21.461   8.928 -0.2220 -0.1078  0.0902
14396OCT     C228792  13.530  21.080   9.187 -0.0131  0.1118  0.1339
14397OCT     C128793  15.374   3.343   9.745 -0.2765 -0.2769 -0.0693
14397OCT     C228794  15.736   3.716   9.786 -0.1303 -0.0709 -0.3218
14398OCT     C128795   5.631  16.590  17.968 -0.3632 -0.3121  0.3004
14398OCT     C228796   5.221  16.829  18.078  0.1494  0.4295 -0.1935
14399OCT     C128797   7.892   4.409  15.819 -0.2961  0.0708  0.1311
14399OCT     C228798   7.801   4.151  15.480  0.0040  0.0729 -0.2176
14400OCT     C128799  13.150   6.010  15.966  0.0398  0.1971 -0.4310
14400OCT     C228800  13.358   6.292  15.643 -0.1864 -0.1146  0.0595
14401OCT     C128801   1.427   3.527   8.362 -0.2668  0.2419 -0.0554
14401OCT     C228802   1.708   3.390   8.715 -0.0680  0.4522  0.0254
14402OCT     C128803  21.231  10.390  16.939 -0.1681 -0.0944  0.1591
14402OCT     C228804  21.232  10.811  17.178 -0.2564  0.2142  0.3794
14403OCT     C128805  13.000   9.394  20.683  0.0804 -0.0824 -0.2276
14403OCT     C228806  13.437   9.511  20.901  0.0316 -0.2304 -0.3651
14404OCT     C128807  21.618  10.090  14.622  0.3728  0.1257 -0.1807
14404OCT     C228808  21.559   9.664  14.538 -0.0598  0.1472 -0.1449
14405OCT     C128809  19.565  10.893  13.433  0.2817 -0.0818  0.0392
14405OCT     C228810  19.468  10.741  13.809 -0.2370  0.1043  0.0976
14406OCT     C128811  10.785   6.952  10.959 -0.1503  0.0819  0.0679
14406OCT     C228812  10.602   7.176  11.296  0.2855  0.1617  0.1872
14407OCT     C128813   0.697  13.387  13.724  0.0582  0.0458 -0.0427
14407OCT     C228814   0.417  13.169  13.335  0.2086  0.1407 -0.0092
14408OCT     C128815  18.076  18.834  21.852 -0.4327  0.5753 -0.0244
14408OCT     C228816  18.147  18.522  22.217  0.2922  0.2041 -0.2715
14409OCT     C128817   3.057  11.879   8.364 -0.4459  0.0469  0.0553
14409OCT     C228818   2.640  11.949   8.562  0.2895 -0.4531  0.3856
14410OCT     C128819  18.289   2.851  10.610 -0.2932  0.2442 -0.1105
14410OCT     C228820  18.243   3.244  10.387 -0.0474  0.0796 -0.0737
14411OCT     C128821  16.416   1.929  11.746  0.1206  0.0258 -0.0589
14411OCT     C228822  16.107   2.241  11.896  0.1030 -0.0598  0.2870
14412OCT     C128823  19.126  17.361   8.502  0.1713  0.3187  0.1262
14412OCT     C228824  18.776  17.119   8.309 -0.1740  0.1887 -0.0590
14413OCT     C128825   1.921  15.383  17.721  0.2318 -0.2318 -0.3165
14413OCT     C228826   1.924  15.270  18.200  0.2802  0.4240 -0.3765
14414OCT     C128827  22.537  10.343  12.451  0.0247  0.0921 -0.1958
14414OCT     C228828  22.538  10.295  11.973 -0.5484  0.2512  0.0738
14415OCT     C128829   9.101   0.461  22.316 -0.0862  0.0628  0.3112
14415OCT     C228830   9.357   0.781  22.108 -0.2548 -0.0558  0.1946
14416OCT     C128831  10.861  19.395  14.533 -0.2852 -0.0042  0.0160
14416OCT     C228832  11.180  19.595  14.779 -0.2045  0.3218 -0.2098
14417OCT     C128833  12.149  22.211  16.085  0.1491  0.2782 -0.0909
14417OCT     C228834  12.383  22.458  16.392 -0.0459  0.0717  0.1109
14418OCT     C128835  10.999  16.220  15.546 -0.2289 -0.1937  0.1738
14418OCT     C228836  11.152  16.191  15.108 -0.2952  0.1261  0.0951
14419OCT     C128837   1.569  14.566   8.724 -0.2005 -0.0905  0.3429
14419OCT     C228838   1.095  14.575   8.679  0.3291  0.0597 -0.2178
14420OCT     C128839  15.182   8.983   4.652  0.3493  0.0915  0.3686
14420OCT     C228840  15.629   8.942   4.690  0.2015 -0.1881 -0.0340
14421OCT     C128841   5.132  23.395  13.384  0.0483 -0.2026 -0.1093
14421OCT     C228842   4.913   0.029  13.328 -0.0909  0.0615  0.2124
14422OCT     C128843  12.160   1.433  13.984  0.1388 -0.1007  0.0879
14422OCT     C228844  11.651   1.307  13.986  0.1944 -0.1542  0.1423
14423OCT     C128845   2.256   0.612  22.157 -0.4527 -0.0911 -0.0633
14423OCT     C228846   2.012   0.868  21.874  0.1028 -0.0900 -0.1149
14424OCT     C128847  11.238   2.025  15.454  0.2954  0.0282 -0.0796
14424OCT     C228848  11.034   2.431  15.493  0.0032  0.0849  0.2998
14425OCT     C128849   2.119   1.848   2.159  0.0989  0.1503 -0.0733
14425OCT     C228850   1.715   1.679   2.085  0.1101 -0.3585  0.2191
14426OCT     C128851  11.034  14.741  16.530  0.0138  0.0026  0.0371
14426OCT     C228852  11.123  14.625  16.103  0.3497  0.4003  0.1750
14427OCT     C128853  15.721   9.061   2.623 -0.2477  0.1585 -0.1168
14427OCT     C228854  15.496   9.438   2.818 -0.1323 -0.0644  0.3650
14428OCT     C128855  18.567   9.981  13.712  0.3677  0.0707  0.1127
14428OCT     C228856  18.509  10.439  13.697 -0.1022 -0.3829  0.1932
14429OCT     C128857  10.287   0.413  17.762  0.1168  0.0778 -0.0061
14429OCT     C228858  10.179   0.780  18.068 -0.0891 -0.1098 -0.1139
14430OCT     C128859   1.236  12.397   2.349 -0.1391  0.0432  0.0014
14430OCT     C228860   1.104  12.484   2.833 -0.3229  0.0113 -0.1352
14431OCT     C128861  13.724   2.631  16.455 -0.1483  0.1721  0.0333
14431OCT     C228862  13.789   3.105  16.472  0.1167  0.4101  0.1548
14432OCT     C128863  13.655  21.469  12.775 -0.0406  0.2204  0.2382
14432OCT     C228864  13.883  21.778  12.515 -0.1531 -0.4326  0.1433
14433OCT     C128865   4.775   4.433   9.236  0.2536 -0.1379 -0.0573
14433OCT     C228866   5.186   4.274   9.400 -0.2787 -0.0485 -0.2124
14434OCT     C128867  16.010  11.521  21.326 -0.1939 -0.1039  0.6579
14434OCT     C228868  16.147  11.927  21.260  0.2146 -0.0757 -0.1840
14435OCT     C128869   3.574  14.167   0.921  0.2475  0.2600 -0.1815
14435OCT     C228870   3.511  13.909   1.369 -0.1570  0.2478  0.1379
14436OCT     C128871  21.847  17.536   4.290 -0.0022  0.1641  0.4724
14436OCT     C228872  21.843  17.665   4.722 -0.3189 -0.0920  0.0309
14437OCT     C128873   5.285   1.889  22.353  0.5895  0.2593 -0.1279
14437OCT     C228874   4.933   2.023  22.006  0.1286 -0.1959  0.0562
14438OCT     C128875  12.208   3.484   2.446  0.1285  0.1874  0.1413
14438OCT     C228876  12.405   3.836   2.216  0.2628  0.2438  0.0161
14439OCT     C128877   0.585  17.619  16.663  0.2732 -0.0062  0.2026
14439OCT     C228878   0.798  17.898  16.953  0.1527  0.0095 -0.2461
14440OCT     C128879  19.962  13.310  12.091 -0.0611  0.1422 -0.0407
14440OCT     C228880  20.333  13.058  11.968 -0.0708 -0.0701  0.0956
14441OCT     C128881   9.902  14.943  19.366 -0.3293 -0.0241 -0.1998
14441OCT     C228882   9.629  14.602  19.515 -0.3811 -0.0615  0.0742
14442OCT     C128883  11.113   5.426  13.990  0.3197  0.3621 -0.1332
14442OCT     C228884  11.006   5.876  14.157  0.0282  0.0285  0.3055
14443OCT     C128885  14.680   1.754  16.791 -0.2873 -0.1153  0.3610
14443OCT     C228886  14.648   1.789  16.331 -0.2733  0.3236 -0.1940
14444OCT     C128887  13.220  10.346  20.479  0.1162 -0.3245  0.2234
14444OCT     C228888  13.267  10.461  20.030 -0.2449 -0.0392  0.0801
14445OCT     C128889  17.701  12.118  20.905  0.4389  0.2037 -0.1739
14445OCT     C228890  17.472  12.110  21.312  0.1228 -0.2132 -0.1982
14446OCT     C128891  14.097   8.535  23.612  0.2842 -0.2466 -0.2717
14446OCT     C228892  14.273   8.488  23.209 -0.1122  0.2738 -0.2844
14447OCT     C128893   1.085  12.850  15.892 -0.1875 -0.0999 -0.1017
14447OCT     C228894   1.302  12.604  16.185  0.0865 -0.0410  0.1854
14448OCT     C128895   8.510  12.310  11.935 -0.5050  0.0487  0.0457
14448OCT     C228896   8.395  11.789  11.991  0.0704 -0.0719 -0.0997
14449OCT     C128897  23.036   0.464  22.847 -0.1041 -0.1572  0.1844
14449OCT     C228898  23.001   0.912  22.823 -0.0301 -0.1331 -0.0831
14450OCT     C128899  21.563   4.229   7.303  0.2091  0.0191  0.2325
14450OCT     C228900  21.557   3.852   7.607  0.1381 -0.0367  0.2716
14451OCT     C128901  22.712  15.357   4.385 -0.2000  0.1690  0.1569
14451OCT     C228902  22.346  15.088   4.439  0.1330  0.5525  0.1622
14452OCT     C128903  21.766   7.878  16.099 -0.0796 -0.0597  0.1547
14452OCT     C228904  21.406   7.719  15.800 -0.2236 -0.0617 -0.0638
14453OCT     C128905  15.415   6.685  18.715 -0.6079 -0.2116  0.1077
14453OCT     C228906  15.433   7.023  19.013 -0.4887 -0.1119  0.1637
14454OCT     C128907  14.751  15.538  13.706 -0.1093 -0.1097 -0.0204
14454OCT     C228908  15.209  15.468  13.483 -0.6969 -0.4387  0.0642
14455OCT     C128909  19.498  17.408  19.594  0.1495  0.3920 -0.1947
14455OCT     C228910  19.904  17.535  19.840  0.2663  0.3044  0.0870
14456OCT     C128911  17.237  18.485   3.640 -0.0816 -0.0428  0.1293
14456OCT     C228912  17.056  18.089   3.397  0.4554 -0.0890 -0.4161
14457OCT     C128913  16.545   3.676   2.779 -0.4184 -0.1808 -0.2238
14457OCT     C228914  16.504   3.479   2.355  0.1858  0.1927 -0.3701
14458OCT     C128915  12.829   3.694   6.397  0.1392 -0.2651 -0.2390
14458OCT     C228916  12.520   3.416   6.225  0.1616 -0.1498 -0.1144
14459OCT     C128917  23.444   9.100  16.582  0.0950 -0.1383  0.2036
14459OCT     C228918  23.476   8.634  16.686 -0.2010 -0.0390 -0.0342
14460OCT     C128919  15.180   6.395   6.164  0.0149  0.1111  0.1315
14460OCT     C228920  15.513   6.665   5.890  0.0856  0.4876  0.0146
14461OCT     C128921  14.582   7.508  15.155  0.2692  0.1035  0.0011
14461OCT     C228922  14.572   7.564  14.678 -0.3141  0.1358  0.3533
14462OCT     C128923  13.421   4.123   3.450  0.0193 -0.0053 -0.2326
14462OCT     C228924  13.514   4.017   3.041 -0.5487 -0.1664  0.0752
14463OCT     C128925  10.522   5.328   3.605 -0.0814  0.0289  0.2192
14463OCT     C228926  10.537   5.583   3.222 -0.2361 -0.3303  0.2003
14464OCT     C128927  22.424  11.729  12.022 -0.0763 -0.2611  0.2968
14464OCT     C228928  22.716  11.696  11.677  0.1109 -0.4887 -0.0770
14465OCT     C128929  22.703  23.321  23.193  0.1293  0.0405 -0.1066
14465OCT     C228930  22.946  22.880  23.329 -0.0197  0.3573  0.1751
14466OCT     C128931  13.719  16.850   8.790  0.0082 -0.0576  0.0670
14466OCT     C228932  13.560  16.379   8.673  0.0924  0.2147 -0.2053
14467OCT     C128933   8.357  21.080  17.087  0.0959 -0.2323 -0.0653
14467OCT     C228934   8.430  21.172  17.583 -0.0284 -0.1699  0.3519
14468OCT     C128935  15.913  15.570   8.797  0.0433  0.0498  0.0047
14468OCT     C228936  15.596  15.591   8.465  0.0870  0.0648  0.1357
14469OCT     C128937   2.245  20.176  21.921  0.0724  0.3893 -0.0362
14469OCT     C228938   2.224  19.724  22.120  0.1071 -0.0325  0.0753
14470OCT     C128939  22.333  11.350  18.997 -0.1009  0.3551  0.0596
14470OCT     C228940  21.914  11.240  19.188 -0.1847  0.1743 -0.0210
14471OCT     C128941   9.574  11.145  15.456  0.1155  0.0678 -0.0719
14471OCT     C228942   9.555  10.699  15.285 -0.0165  0.1042  0.3703
14472OCT     C128943   2.345  14.080  18.690  0.2849  0.0156 -0.0861
14472OCT     C228944   2.569  13.683  18.670 -0.0702  0.0455 -0.1056
14473OCT     C128945  19.493   6.537  15.909 -0.4457 -0.2546 -0.2614
14473OCT     C228946  19.229   6.859  15.765  0.1301  0.0650 -0.0660
14474OCT     C128947   1.227   2.125  10.841  0.0867  0.1356  0.0048
14474OCT     C228948   0.893   2.446  10.701  0.0132  0.1253 -0.1951
14475OCT     C128949  20.539   1.690   7.636 -0.0193 -0.1697 -0.1868
14475OCT     C228950  20.713   2.096   7.368 -0.0236 -0.0704 -0.1331
14476OCT     C128951  22.893   9.143  17.883 -0.1573  0.0296 -0.0762
14476OCT     C228952  22.469   9.215  17.673  0.0109 -0.0277  0.0187
14477OCT     C128953  21.259  22.695  11.352  0.2286 -0.1842 -0.1366
14477OCT     C228954  21.713  22.530  11.491  0.1468  0.3911  0.0642
14478OCT     C128955  22.216   1.243  18.505 -0.1098  0.3336  0.0402
14478OCT     C228956  22.539   1.472  18.822  0.1956 -0.0986  0.1851
14479OCT     C128957   8.684   5.003   5.951  0.0388  0.0385  0.3075
14479OCT     C228958   8.746   4.753   5.510 -0.3376 -0.0599 -0.1064
14480OCT     C128959  13.430   5.802   9.916 -0.0388 -0.1866 -0.0454
14480OCT     C228960  12.974   5.823   9.887  0.2349  0.1837  0.1042
14481OCT     C128961  19.231   2.685  12.165 -0.1169 -0.5255  0.1779
14481OCT     C228962  19.602   2.515  11.940  0.0131  0.0521  0.2314
14482OCT     C128963   5.220  21.454   5.787  0.0557  0.2012  0.1462
14482OCT     C228964   5.530  21.646   6.116  0.0125 -0.0350 -0.2850
14483OCT     C128965  21.109   8.297   3.637  0.3164  0.3140  0.4040
14483OCT     C228966  21.141   8.637   3.344 -0.0788 -0.0990  0.0028
14484OCT     C128967  11.698  21.959  17.501  0.0892  0.2955  0.1954
14484OCT     C228968  12.069  22.287  17.402  0.0797  0.2119 -0.0702
14485OCT     C128969  20.306  20.449   8.321  0.0987 -0.3985 -0.0127
14485OCT     C228970  20.613  20.227   7.943 -0.0817  0.1159  0.2989
14486OCT     C128971  23.076  13.275   7.497  0.0533  0.1212  0.1433
14486OCT     C228972  23.464  13.332   7.204 -0.1801  0.1672 -0.0742
14487OCT     C128973  19.461   1.764  20.619  0.2289 -0.0691 -0.0629
14487OCT     C228974  19.858   1.650  20.806 -0.0685 -0.1813  0.0196
14488OCT     C128975   9.479  23.366  19.235  0.1633 -0.2437  0.0864
14488OCT     C228976   9.265  23.547  19.656  0.1139  0.2454  0.0087
14489OCT     C128977  20.674   0.343  22.962  0.3114 -0.2203 -0.1395
14489OCT     C228978  20.571   0.505  23.353 -0.1614 -0.3478 -0.5810
14490OCT     C128979  19.366  17.648  20.022 -0.0362  0.0062  0.1736
14490OCT     C228980  19.472  17.611  20.480  0.0426  0.0252 -0.0866
14491OCT     C128981  18.894  13.366   1.304  0.0621 -0.0779  0.0074
14491OCT     C228982  19.004  13.070   0.969 -0.4209 -0.0515  0.0073
14492OCT     C128983  20.080   2.558   5.922 -0.2069 -0.0274  0.1420
14492OCT     C228984  20.428   2.828   6.071  0.1254  0.3868  0.0149
14493OCT     C128985   2.825  10.999  20.725 -0.0359  0.1395  0.3508
14493OCT     C228986   2.374  11.050  20.576 -0.0409 -0.2546 -0.0967
14494OCT     C128987   3.383   9.130  22.575 -0.0304  0.0968  0.0229
14494OCT     C228988   3.111   9.232  22.195 -0.0152 -0.0266 -0.0284
14495OCT     C128989  10.352   0.540  14.506 -0.1087  0.1296  0.1511
14495OCT     C228990  10.205   0.083  14.502  0.0586 -0.2879  0.2695
14496OCT     C128991  14.816   1.475  10.128 -0.1026 -0.0426  0.1101
14496OCT     C228992  14.599   1.749   9.850 -0.3162  0.2555 -0.0922
14497OCT     C128993  22.175   3.334   8.532  0.0118 -0.0117 -0.1553
14497OCT     C228994  21.854   3.055   8.654  0.2871 -0.0681 -0.2030
14498OCT     C128995  15.631  21.418   2.940 -0.0534 -0.0940  0.3486
14498OCT     C228996  15.743  21.579   2.467  0.1475 -0.0555  0.2238
14499OCT     C128997   2.813   3.725   0.063 -0.1120  0.1715  0.1683
14499OCT     C228998   2.810   3.244   0.144 -0.4335  0.1949 -0.1409
14500OCT     C128999   8.401  18.620   3.185  0.1717  0.0614 -0.1811
14500OCT     C229000   8.329  19.090   3.244  0.2232 -0.2743 -0.2091
14501OCT     C129001  17.172  14.304  15.332  0.1085  0.0186  0.2724
14501OCT     C229002  17.586  14.121  15.470  0.1272  0.3699  0.2099
14502OCT     C129003  17.447  10.576   3.730 -0.1195  0.1047 -0.1577
14502OCT     C229004  17.201  10.544   4.128 -0.1957  0.2805  0.1488
14503OCT     C129005   2.073  22.000   6.758 -0.0703  0.0451  0.2503
14503OCT     C229006   1.730  22.038   7.070  0.1467 -0.0702 -0.0206
14504OCT     C129007   6.812   6.228   6.645  0.2064  0.0365 -0.2352
14504OCT     C229008   6.812   6.542   6.308 -0.0473 -0.1322  0.0731
14505OCT     C129009  10.655  21.513  17.411 -0.4089 -0.0844  0.3882
14505OCT     C229010  10.394  21.681  17.039  0.3300  0.3147  0.0685
14506OCT     C129011  11.907   1.558   0.948 -0.2609  0.3863 -0.0881
14506OCT     C229012  11.981   1.601   1.456 -0.0390 -0.0858  0.1843
14507OCT     C129013  22.086  23.278   3.984 -0.1524  0.4356 -0.1868
14507OCT     C229014  22.537  23.073   3.906  0.1681  0.0039  0.0183
14508OCT     C129015  10.487  17.508  17.764  0.2625  0.4880 -0.1355
14508OCT     C229016  10.840  17.362  17.961  0.0493  0.2724 -0.1288
14509OCT     C129017  12.123   1.736  15.225  0.2260 -0.1451  0.3825
14509OCT     C229018  11.928   1.308  15.302 -0.1991 -0.1594  0.3511
14510OCT     C129019  18.211  14.866   1.270  0.4856  0.2122  0.0511
14510OCT     C229020  17.883  15.057   1.001  0.2008 -0.0510  0.3103
14511OCT     C129021  20.132  15.586   6.547  0.1041  0.0135  0.1028
14511OCT     C229022  20.078  15.131   6.427  0.3470  0.0373 -0.0255
14512OCT     C129023  23.525  19.439  22.371  0.3453 -0.1915 -0.1626
14512OCT     C229024  23.287  19.072  22.385 -0.0455  0.1579 -0.2410
14513OCT     C129025  21.538   2.809  16.850 -0.2462  0.0538 -0.0659
14513OCT     C229026  21.906   2.530  16.660 -0.6472  0.0314  0.1309
14514OCT     C129027  13.356  21.273   2.214  0.1861  0.4590  0.0664
14514OCT     C229028  13.566  21.200   1.775  0.1580  0.0302  0.0293
14515OCT     C129029  10.763  10.377  15.066 -0.1695 -0.1357  0.2658
14515OCT     C229030  10.888  10.809  15.243  0.0106 -0.1055  0.0997
14516OCT     C129031  19.459   3.289  14.904  0.2190 -0.0133  0.0556
14516OCT     C229032  19.624   2.866  14.702 -0.0752  0.0711 -0.1707
14517OCT     C129033  13.767   7.915   2.521 -0.2132 -0.0215 -0.2750
14517OCT     C229034  13.703   8.257   2.231 -0.2429 -0.0797  0.1593
14518OCT     C129035   5.551  11.588  18.702 -0.6139 -0.0507 -0.1697
14518OCT     C229036   5.550  12.072  18.584 -0.1846  0.2743  0.4831
14519OCT     C129037   2.384  22.765  21.193  0.3444  0.1457  0.1014
14519OCT     C229038   2.766  22.783  21.493 -0.0421 -0.1983  0.1388
14520OCT     C129039  15.777  17.886  16.698  0.1197 -0.0574 -0.3623
14520OCT     C229040  15.707  17.773  16.246 -0.0371 -0.1481 -0.0475
14521OCT     C129041   2.196   6.567   2.443 -0.2265  0.0253  0.1724
14521OCT     C229042   2.587   6.822   2.669 -0.0878 -0.4625 -0.1391
14522OCT     C129043   7.696   5.294   5.844 -0.1958 -0.1679  0.0544
14522OCT     C229044   7.525   5.725   5.827  0.1496  0.1461 -0.0203
14523OCT     C129045  17.379   7.114   1.167 -0.1943 -0.2477 -0.0226
14523OCT     C229046  17.251   6.875   0.806 -0.3085  0.0237 -0.1511
14524OCT     C129047  13.454  19.062  14.397 -0.4590  0.2661 -0.0553
14524OCT     C229048  13.654  18.727  14.667  0.2605  0.0373 -0.1641
14525OCT     C129049  17.578   7.596  22.845  0.1249 -0.1242  0.1931
14525OCT     C229050  17.729   7.119  22.774 -0.4177 -0.0988  0.0130
14526OCT     C129051   6.813  17.892   9.756 -0.1568  0.0433  0.3706
14526OCT     C229052   7.181  18.131   9.682 -0.0720  0.1136 -0.0485
14527OCT     C129053  17.359  23.537   6.611  0.1133  0.0883  0.2264
14527OCT     C229054  17.515  23.571   7.044 -0.0530 -0.0147 -0.0445
14528OCT     C129055   3.354  18.186   6.107 -0.5102  0.2858  0.0412
14528OCT     C229056   3.503  18.390   6.481  0.1009 -0.2699  0.0097
14529OCT     C129057   6.321  21.224  17.432 -0.0478  0.0756  0.2487
14529OCT     C229058   5.915  21.412  17.564  0.2719 -0.0738 -0.0938
14530OCT     C129059   6.054   3.159  17.143 -0.3002  0.2651 -0.1019
14530OCT     C229060   5.688   3.266  17.342  0.0576  0.0094  0.1975
14531OCT     C129061   3.908   0.568   0.365  0.4627 -0.0877 -0.1295
14531OCT     C229062   3.763   0.614   0.828 -0.0849  0.2679  0.0759
14532OCT     C129063   2.683  13.434  21.251  0.0034 -0.0341 -0.2650
14532OCT     C229064   2.452  13.135  20.973  0.1515 -0.0555 -0.4495
14533OCT     C129065   4.864   5.673   8.274 -0.1002  0.3220 -0.1970
14533OCT     C229066   4.457   5.449   8.169 -0.2735  0.2433 -0.0076
14534OCT     C129067  14.676   2.700  13.874 -0.0898  0.0206 -0.0085
14534OCT     C229068  15.116   2.669  13.759  0.0514  0.1196  0.3665
14535OCT     C129069  19.888  20.688  19.883 -0.0771  0.2365 -0.0573
14535OCT     C229070  19.945  20.788  19.414  0.0504  0.0193  0.1449
14536OCT     C129071  16.268   5.271  14.350  0.1260 -0.1647 -0.1039
14536OCT     C229072  16.076   4.922  14.081 -0.2586  0.1531  0.2122
14537OCT     C129073   3.131   8.339   4.980  0.1367  0.0302  0.1511
14537OCT     C229074   2.983   8.727   5.213  0.2910  0.4396  0.4679
14538OCT     C129075  22.149  11.561   0.565  0.0434  0.0999  0.0063
14538OCT     C229076  21.859  11.370   0.188  0.1843 -0.0173 -0.2968
14539OCT     C129077  17.089  21.354  17.695  0.1284 -0.1769 -0.4282
14539OCT     C229078  17.477  21.282  17.424 -0.4101 -0.0827  0.2173
14540OCT     C129079   3.771  13.866   0.558 -0.5007  0.1754 -0.2405
14540OCT     C229080   3.697  14.162   0.204 -0.3710  0.3422  0.5236
14541OCT     C129081  10.513  12.388  21.508 -0.2078  0.4105 -0.3359
14541OCT     C229082  10.819  12.712  21.426 -0.1206 -0.0452 -0.1419
14542OCT     C129083  22.057  12.949  16.409  0.1724  0.1635 -0.0780
14542OCT     C229084  21.623  13.004  16.199  0.0301 -0.3147  0.3767
14543OCT     C129085  13.075   2.516   4.326  0.1164  0.5948  0.1404
14543OCT     C229086  13.476   2.298   4.272 -0.0748  0.1896  0.0527
14544OCT     C129087  17.084  14.934  23.725 -0.0896  0.0787  0.0990
14544OCT     C229088  16.843  14.785   0.346  0.2246 -0.4426 -0.3242
14545OCT     C129089  21.091  18.011  11.432  0.1447 -0.1644  0.1022
14545OCT     C229090  21.373  17.816  11.182 -0.2172  0.2261  0.0223
14546OCT     C129091  14.435   1.314  13.441 -0.1126  0.0688  0.1787
14546OCT     C229092  14.208   0.965  13.565  0.2560 -0.3073 -0.2206
14547OCT     C129093  15.764  23.402   1.006  0.0403 -0.0135  0.3157
14547OCT     C229094  15.735  22.937   1.179  0.1036 -0.3176  0.1541
14548OCT     C129095  21.287  12.585   9.063 -0.1102 -0.2852 -0.0634
14548OCT     C229096  21.348  12.153   8.918  0.4899  0.0148  0.2573
14549OCT     C129097  10.125   5.300   3.284  0.2684 -0.0688  0.1620
14549OCT     C229098  10.037   5.536   2.885 -0.1370 -0.2591 -0.2877
14550OCT     C129099  17.933   8.613   0.084  0.2455  0.1741 -0.2155
14550OCT     C229100  17.681   8.249   0.224  0.0231 -0.2459  0.2567
14551OCT     C129101  14.807  13.438   8.692 -0.0156 -0.1241  0.5125
14551OCT     C229102  14.944  13.333   9.163 -0.0287 -0.0009  0.1403
14552OCT     C129103   1.759  21.140  17.535  0.0634  0.3046  0.2094
14552OCT     C229104   1.550  21.110  17.131  0.1028 -0.1085  0.0299
14553OCT     C129105  13.432   6.455  16.608  0.1689 -0.1738 -0.0460
14553OCT     C229106  13.901   6.378  16.445  0.2690  0.0792  0.0772
14554OCT     C129107  13.791  19.386   2.832 -0.3498 -0.1767  0.4855
14554OCT     C229108  13.773  18.991   2.622 -0.0991 -0.1269  0.2567
14555OCT     C129109  16.945   9.248  10.944  0.2822  0.4177 -0.0200
14555OCT     C229110  16.937   9.216  11.427  0.1180 -0.2137  0.0506
14556OCT     C129111   0.366   4.667   0.038 -0.1033 -0.0273  0.1180
14556OCT     C229112   0.179   5.081   0.074 -0.0986  0.0089  0.0707
14557OCT     C129113   6.624  19.587   8.937 -0.1273 -0.2236 -0.2418
14557OCT     C229114   6.901  19.795   8.637  0.3229  0.2229 -0.2518
14558OCT     C129115  22.161   3.828  10.419  0.1368  0.1467 -0.3631
14558OCT     C229116  21.951   4.124  10.741  0.1473  0.1441 -0.3017
14559OCT     C129117  20.758  22.491   6.383 -0.1233 -0.0055  0.0056
14559OCT     C229118  20.718  21.996   6.343  0.1212 -0.2378 -0.1725
14560OCT     C129119  17.842  11.155   9.434  0.5015  0.2179  0.0554
14560OCT     C229120  17.495  11.085   9.672 -0.0792  0.1789  0.1588
14561OCT     C129121  12.921   4.385  12.748 -0.3698  0.1297 -0.0882
14561OCT     C229122  12.919   4.074  13.113 -0.0313 -0.2239 -0.2277
14562OCT     C129123  14.951   8.577   3.148  0.0278  0.0471  0.0927
14562OCT     C229124  15.306   8.393   2.940 -0.2620  0.0667 -0.1269
14563OCT     C129125  21.257  20.560  19.768  0.0311 -0.2134  0.1320
14563OCT     C229126  21.509  20.708  19.420  0.2789  0.1040 -0.1348
14564OCT     C129127  18.763   5.507  19.395  0.1835  0.3203 -0.2346
14564OCT     C229128  18.365   5.566  19.137  0.0306 -0.1301  0.2572
14565OCT     C129129  10.543   7.792   9.634  0.1283 -0.0859  0.2038
14565OCT     C229130  10.506   7.817   9.126  0.0318 -0.1186  0.2719
14566OCT     C129131  10.767   8.238  21.744  0.1896 -0.4108  0.1284
14566OCT     C229132  10.633   8.483  22.139 -0.1775 -0.2103 -0.1256
14567OCT     C129133  14.830  17.727  23.208  0.0891  0.0976  0.0486
14567OCT     C229134  14.461  17.492  23.380  0.2237  0.1280 -0.1308
14568OCT     C129135   9.019   8.026   1.848  0.2388 -0.2216 -0.0332
14568OCT     C229136   8.836   8.424   1.768  0.3404  0.0512  0.0852
14569OCT     C129137   1.110  11.148  10.633 -0.0597 -0.3400  0.2642
14569OCT     C229138   0.746  10.940  10.442  0.1918 -0.0137  0.2122
14570OCT     C129139  19.663   1.196   7.632 -0.2380  0.0820 -0.0326
14570OCT     C229140  19.265   1.152   7.355  0.0292 -0.1684 -0.1025
14571OCT     C129141  19.123   0.849  12.653  0.0358  0.4028 -0.0797
14571OCT     C229142  19.063   1.239  12.857  0.3185 -0.2899 -0.0362
14572OCT     C129143  11.883   5.434  13.788  0.2302  0.0806 -0.1724
14572OCT     C229144  11.550   5.140  13.879  0.1726 -0.1690  0.0075
14573OCT     C129145  16.420   2.934   6.776 -0.1048  0.0021  0.0139
14573OCT     C229146  16.113   3.150   7.015  0.2390  0.2162 -0.1605
14574OCT     C129147  15.133  15.845  11.601  0.2430 -0.0756 -0.0081
14574OCT     C229148  15.032  15.663  11.153 -0.3700 -0.2835  0.2051
14575OCT     C129149  22.644  12.328   6.821 -0.1099  0.0185 -0.0344
14575OCT     C229150  22.188  12.267   6.807 -0.3316 -0.3471 -0.0351
14576OCT     C129151   5.622  12.977  20.302  0.1541  0.0577  0.1792
14576OCT     C229152   5.329  13.214  19.979  0.4455 -0.1332 -0.0857
14577OCT     C129153   1.804  13.282  22.172 -0.5005  0.3204 -0.0104
14577OCT     C229154   1.374  13.463  22.199  0.0842 -0.0588 -0.1108
14578OCT     C129155   1.280   8.373   8.860  0.2226  0.1947 -0.0409
14578OCT     C229156   1.211   8.338   9.311  0.4005  0.0970 -0.1763
14579OCT     C129157   6.628  17.625   0.231 -0.1104  0.3374 -0.2178
14579OCT     C229158   6.432  18.081   0.441 -0.0233  0.4002  0.3024
14580OCT     C129159  19.798  18.555  21.427  0.1367  0.2981 -0.2197
14580OCT     C229160  20.215  18.872  21.429  0.4628  0.0855 -0.1729
14581OCT     C129161  19.955   6.930   2.295 -0.0715 -0.1585  0.0549
14581OCT     C229162  20.109   6.577   2.016  0.2138 -0.1588  0.2059
14582OCT     C129163  21.979  10.709  15.421  0.1258  0.0107  0.0436
14582OCT     C229164  22.315  11.081  15.466  0.0383 -0.0458 -0.0059
14583OCT     C129165   2.447   7.994   3.704  0.3760  0.0397  0.0505
14583OCT     C229166   2.476   7.756   3.362  0.0680 -0.0864  0.3206
14584OCT     C129167  11.233   3.641   0.284 -0.1539 -0.2964  0.4280
14584OCT     C229168  11.128   3.746  23.546 -0.2894  0.0520 -0.2683
14585OCT     C129169   0.372  14.655   0.972  0.1968 -0.3996 -0.0842
14585OCT     C229170   0.386  15.108   1.068 -0.4417  0.1854 -0.1019
14586OCT     C129171   5.380   5.055   4.869 -0.0231 -0.2893  0.1996
14586OCT     C229172   5.603   5.369   5.185  0.0512 -0.3020  0.1552
14587OCT     C129173   7.480   0.107   1.690 -0.2934 -0.1881  0.0938
14587OCT     C229174   7.108  23.653   1.531  0.1157 -0.0747  0.0099
14588OCT     C129175  22.578   5.110   6.121  0.2583  0.4647  0.1286
14588OCT     C229176  22.577   5.580   6.236  0.4273 -0.0281 -0.2443
14589OCT     C129177  11.992  14.361  16.539  0.2715 -0.0154 -0.0163
14589OCT     C229178  11.882  14.705  16.297 -0.0595  0.0322 -0.2807
14590OCT     C129179  19.164   4.015  19.468  0.1790  0.0271 -0.2440
14590OCT     C229180  18.766   3.909  19.622 -0.1518  0.0287 -0.1503
14591OCT     C129181  22.022  23.277  21.303  0.3198 -0.3315  0.0817
14591OCT     C229182  21.910  23.258  21.748 -0.2129 -0.0366 -0.0238
14592OCT     C129183  23.727   0.317   9.867  0.0718  0.0847  0.2800
14592OCT     C229184  23.482   0.163  10.203 -0.1677  0.0310  0.0905
14593OCT     C129185  11.010  11.794  15.890  0.1962 -0.3015 -0.2320
14593OCT     C229186  11.405  11.949  15.709  0.2284 -0.1923  0.0041
14594OCT     C129187   6.756   3.639   3.838  0.0624  0.3301 -0.0633
14594OCT     C229188   6.968   3.970   4.161  0.0357 -0.0492 -0.0175
14595OCT     C129189  17.044  22.477   1.611  0.6359 -0.0355  0.1835
14595OCT     C229190  17.130  22.927   1.616  0.3630  0.4840  0.1989
14596OCT     C129191   3.135  22.866   8.865  0.1782 -0.2884 -0.0886
14596OCT     C229192   2.977  22.410   8.692 -0.0651 -0.0463  0.1305
14597OCT     C129193   2.412  15.682   3.439  0.4413  0.2990 -0.2335
14597OCT     C229194   2.189  15.448   3.112 -0.0018 -0.0417 -0.3125
14598OCT     C129195   1.672   5.343   7.609 -0.2000 -0.0079 -0.2846
14598OCT     C229196   1.692   4.935   7.637 -0.0948  0.2317  0.1738
14599OCT     C129197  13.334   2.265  11.477  0.0896 -0.2148  0.0453
14599OCT     C229198  13.432   2.706  11.336  0.0242 -0.1594 -0.1718
14600OCT     C129199  10.310  17.457  21.752  0.2006 -0.0941 -0.0216
14600OCT     C229200  10.025  17.591  22.119  0.3298  0.2000  0.2056
14601OCT     C129201  19.162   3.605  14.569  0.3033  0.1524 -0.2025
14601OCT     C229202  19.458   3.665  14.256 -0.3021 -0.0322 -0.0501
14602OCT     C129203  14.413  12.212  21.533  0.0459  0.3863 -0.2069
14602OCT     C229204  14.432  11.940  21.188 -0.4742 -0.0805  0.2845
14603OCT     C129205   6.435   0.839   2.925 -0.1347 -0.0764 -0.0028
14603OCT     C229206   6.052   0.622   2.756  0.0416 -0.1909  0.1670
14604OCT     C129207   1.156   6.599  15.456  0.2007  0.1388  0.1659
14604OCT     C229208   0.946   6.632  15.913 -0.0726  0.1917  0.1238
14605OCT     C129209   9.348   8.770  21.960  0.0020  0.2221 -0.0340
14605OCT     C229210   9.782   8.727  21.864 -0.0170  0.2485  0.3546
14606OCT     C129211   8.069   2.698  21.055  0.2082 -0.5106  0.3809
14606OCT     C229212   7.661   2.729  21.314  0.1099 -0.0905 -0.2499
14607OCT     C129213   0.864  20.186  18.985  0.0732  0.1487  0.5991
14607OCT     C229214   0.643  19.970  19.329  0.1739  0.1400  0.5004
14608OCT     C129215   0.776   6.790  12.248 -0.2237  0.1126 -0.0225
14608OCT     C229216   0.359   6.518  12.207  0.0705  0.0518 -0.0235
14609OCT     C129217   8.084   4.697  19.916 -0.1415 -0.2224  0.1788
14609OCT     C229218   7.786   4.940  20.160  0.3859 -0.4381 -0.1502
14610OCT     C129219  12.284  18.050  18.015  0.1246  0.1927 -0.1614
14610OCT     C229220  12.172  18.293  18.410  0.3268  0.2174 -0.1564
14611OCT     C129221  10.920  13.145  22.935 -0.0406  0.3896 -0.3220
14611OCT     C229222  10.447  13.304  22.802 -0.4426 -0.1583  0.1683
14612OCT     C129223  20.148  17.062   6.122 -0.0716  0.2603 -0.2528
14612OCT     C229224  20.201  17.528   6.234 -0.2454 -0.3379  0.3163
14613OCT     C129225  12.386  19.645  12.609  0.0996 -0.0484 -0.0397
14613OCT     C229226  11.923  19.761  12.673  0.0248  0.0725  0.1761
14614OCT     C129227  19.721   4.676   6.348  0.0618  0.2507 -0.0060
14614OCT     C229228  19.913   4.472   5.978 -0.0573 -0.2903  0.0968
14615OCT     C129229  19.969  13.464   3.648  0.1473 -0.1500  0.0462
14615OCT     C229230  19.564  13.705   3.817  0.0794 -0.1911 -0.0079
14616OCT     C129231   5.820  20.572   8.169 -0.3679  0.2208  0.1226
14616OCT     C229232   5.369  20.699   8.181  0.2481  0.0053  0.0925
14617OCT     C129233  22.140   9.376  10.592  0.1691 -0.1709  0.2230
14617OCT     C229234  22.073   9.285  10.103 -0.0473 -0.1575  0.0624
14618OCT     C129235  19.812   4.051  12.533  0.4085 -0.0936 -0.0564
14618OCT     C229236  19.669   3.805  12.153 -0.2294  0.2616 -0.3013
14619OCT     C129237   6.830  19.360   1.787  0.3728  0.1129  0.0363
14619OCT     C229238   7.186  19.639   1.749  0.1212 -0.0657 -0.2057
14620OCT     C129239   2.685   9.387  19.464  0.0913  0.0085  0.0058
14620OCT     C229240   2.798   9.799  19.689 -0.1706 -0.3499 -0.1741
14621OCT     C129241  11.066   2.391  18.004 -0.2784  0.3864  0.1799
14621OCT     C229242  11.248   1.947  17.752 -0.1187  0.3860  0.2192
14622OCT     C129243  18.764  12.297  14.960 -0.0350 -0.1807 -0.0770
14622OCT     C229244  18.628  12.693  15.077 -0.3518 -0.1181 -0.0400
14623OCT     C129245  22.867  22.295  22.752 -0.0772 -0.4174 -0.1598
14623OCT     C229246  23.023  22.705  22.667 -0.4598  0.0325 -0.2654
14624OCT     C129247  21.847   0.873  17.841 -0.0882 -0.1505 -0.0099
14624OCT     C229248  22.012   0.459  18.053  0.1379  0.3259  0.2589
14625OCT     C129249   6.614  19.316   3.066  0.1174 -0.0393 -0.3495
14625OCT     C229250   6.470  19.633   3.375  0.0552 -0.1740  0.0968
14626OCT     C129251   7.620  10.515  23.541 -0.0125 -0.1362 -0.0323
14626OCT     C229252   7.966  10.326  23.346 -0.0097 -0.2226 -0.0859
14627OCT     C129253  14.420   4.088   5.514  0.1969 -0.2472  0.0612
14627OCT     C229254  14.009   4.231   5.616 -0.1587  0.2688  0.2772
14628OCT     C129255  10.406   2.993   7.288 -0.1984 -0.2813 -0.0051
14628OCT     C229256  10.089   3.261   7.155 -0.1049  0.1451 -0.3484
14629OCT     C129257   3.016  12.612  10.924  0.1290  0.1246 -0.2601
14629OCT     C229258   2.792  12.305  10.715 -0.2629 -0.0629 -0.0258
14630OCT     C129259   2.696  17.000   3.661 -0.0225  0.0035 -0.4077
14630OCT     C229260   2.535  16.594   3.636  0.4692 -0.3092 -0.1761
14631OCT     C129261  23.337  13.976  18.942  0.3422 -0.0127 -0.0149
14631OCT     C229262  23.426  13.561  18.792 -0.0902 -0.0218 -0.0330
14632OCT     C129263   7.227   7.556   4.359 -0.2816  0.2080 -0.1568
14632OCT     C229264   7.174   8.019   4.355 -0.0965 -0.2389  0.1603
14633OCT     C129265  21.645  12.580   1.877  0.1354  0.0435 -0.3888
14633OCT     C229266  21.753  12.562   1.479  0.1528 -0.1930 -0.3495
14634OCT     C129267  13.380   3.339  16.555 -0.1219  0.1097 -0.1893
14634OCT     C229268  13.579   3.699  16.715  0.2410  0.1510  0.1711
14635OCT     C129269   0.540   2.891  10.220 -0.1507  0.4446  0.5151
14635OCT     C229270   0.276   3.202   9.929 -0.2467 -0.0442 -0.0050
14636OCT     C129271   2.623  12.772  16.908 -0.3390  0.0140 -0.0475
14636OCT     C229272   3.028  12.603  16.645  0.2327  0.0032 -0.0775
14637OCT     C129273  10.847  18.528   4.808  0.1170 -0.0680  0.0667
14637OCT     C229274  10.433  18.322   4.895  0.0038 -0.4558  0.0694
14638OCT     C129275  23.365   5.486   6.678  0.1262 -0.0267  0.0677
14638OCT     C229276  23.632   5.076   6.666  0.2068 -0.5377 -0.0613
14639OCT     C129277   7.356   7.469   3.770 -0.1557  0.0629 -0.3277
14639OCT     C229278   7.650   7.424   4.140  0.3128  0.0243  0.0693
14640OCT     C129279   0.189  15.171  21.979  0.0631 -0.0373 -0.2531
14640OCT     C229280   0.132  15.206  21.520 -0.0716 -0.0348  0.2246
14641OCT     C129281   5.211  18.073   9.398  0.0231  0.1199  0.0679
14641OCT     C229282   5.401  18.135   8.969 -0.4197  0.3910  0.2397
14642OCT     C129283   4.040  19.072   4.511  0.0862  0.0440  0.1027
14642OCT     C229284   4.258  19.442   4.699  0.0968 -0.2159 -0.5152
14643OCT     C129285   6.847  12.710  15.663 -0.0489 -0.0012 -0.0813
14643OCT     C229286   7.239  12.594  15.860  0.2714 -0.1914  0.2049
14644OCT     C129287   7.828  16.587  12.797  0.3300 -0.2090 -0.3706
14644OCT     C229288   7.718  16.754  12.334  0.0580 -0.0037  0.4644
14645OCT     C129289   4.363   6.578  14.970  0.1384  0.1695  0.3350
14645OCT     C229290   4.204   6.959  14.898  0.0647  0.0865 -0.0012
14646OCT     C129291   5.333  22.227   0.738 -0.0952 -0.1185 -0.0850
14646OCT     C229292   5.140  22.559   1.067 -0.2314 -0.1636  0.4116
14647OCT     C129293  22.322   9.390  14.847 -0.0361 -0.0946 -0.3420
14647OCT     C229294  22.119   9.591  14.490 -0.0567  0.1320 -0.0689
14648OCT     C129295  21.413   3.666  20.121 -0.1634  0.4056 -0.2391
14648OCT     C229296  21.057   3.879  20.322  0.0523 -0.2848  0.1425
14649OCT     C129297  19.102  14.454   0.686 -0.1337  0.0288  0.1214
14649OCT     C229298  18.921  14.348   0.281 -0.4915  0.2312 -0.3238
14650OCT     C129299  23.617  20.400  19.835 -0.2125 -0.0606  0.0094
14650OCT     C229300  23.442  20.578  20.188  0.0175 -0.3924 -0.2060
14651OCT     C129301  13.662  10.038   6.528 -0.0357 -0.1371 -0.1052
14651OCT     C229302  13.575   9.705   6.838 -0.3852 -0.3237 -0.6029
14652OCT     C129303   1.457  19.332   8.206  0.0360  0.0925  0.1135
14652OCT     C229304   1.655  19.524   7.777 -0.2993  0.0806 -0.0809
14653OCT     C129305  12.714   3.184   5.771 -0.0507 -0.0926  0.0966
14653OCT     C229306  12.991   3.429   6.034  0.1199  0.2913  0.0841
14654OCT     C129307  11.416   4.352  13.647 -0.2773  0.2806 -0.3171
14654OCT     C229308  11.730   4.554  13.906  0.0674  0.2456 -0.1094
14655OCT     C129309  19.528   0.884   2.273 -0.4402  0.1221 -0.0664
14655OCT     C229310  19.870   0.620   2.471 -0.1510  0.4784  0.3454
14656OCT     C129311  19.270  18.394  10.047 -0.2376 -0.0579 -0.1909
14656OCT     C229312  19.559  18.741  10.059 -0.2932  0.1745 -0.2745
14657OCT     C129313  14.421   5.773   7.913  0.0887 -0.2489 -0.0084
14657OCT     C229314  14.076   5.568   8.163 -0.3235  0.1401  0.3405
14658OCT     C129315  16.574  20.709  21.318 -0.1012  0.1392 -0.2503
14658OCT     C229316  16.675  20.853  21.789 -0.4478  0.0667 -0.2629
14659OCT     C129317   3.016  23.468   1.036  0.5301 -0.0409  0.0619
14659OCT     C229318   3.373  23.196   1.179  0.2194  0.0615 -0.2200
14660OCT     C129319   2.097   0.146   5.102 -0.1411 -0.0224  0.1567
14660OCT     C229320   2.047   0.043   5.582 -0.0691 -0.0837 -0.0337
14661OCT     C129321   5.682   9.101  12.630  0.2338 -0.0304  0.2749
14661OCT     C229322   5.834   9.436  12.935  0.2989 -0.3348  0.0863
14662OCT     C129323  14.863   8.171  11.643  0.1699 -0.0747 -0.0410
14662OCT     C229324  14.779   7.950  11.221  0.0494  0.0593  0.1691
14663OCT     C129325  10.543  20.062  19.174 -0.1808 -0.4162  0.4064
14663OCT     C229326  10.061  19.911  19.140 -0.0303 -0.0636 -0.1761
14664OCT     C129327  17.641   9.789  21.053 -0.1916  0.2577  0.0683
14664OCT     C229328  17.203   9.713  21.190  0.3790 -0.1176  0.0834
14665OCT     C129329  22.964  20.373  22.303 -0.1118 -0.3433  0.0020
14665OCT     C229330  23.143  20.239  21.846 -0.4376  0.0377 -0.2298
14666OCT     C129331   6.566   4.234  16.996  0.1163  0.3022  0.2210
14666OCT     C229332   6.285   4.057  17.275  0.2375 -0.1950 -0.0222
14667OCT     C129333  22.263  11.466   2.523  0.0278 -0.1016 -0.2522
14667OCT     C229334  22.317  11.745   2.914 -0.1734 -0.1144  0.2661
14668OCT     C129335   9.677  11.876   4.138  0.0185  0.0903  0.0006
14668OCT     C229336   9.593  11.929   3.681  0.0767  0.3102  0.2050
14669OCT     C129337  18.553  18.576   0.334  0.1992 -0.2214 -0.0647
14669OCT     C229338  18.788  18.684  23.695  0.1557 -0.0876  0.1286
14670OCT     C129339   0.218   2.115   7.072  0.0505  0.1391 -0.0025
14670OCT     C229340   0.643   2.055   6.822  0.1270 -0.2488  0.1047
14671OCT     C129341  20.811  23.661   5.264 -0.3882 -0.2259  0.1929
14671OCT     C229342  20.475  23.548   5.515  0.1749  0.2269  0.1459
14672OCT     C129343   9.273   9.637   5.176  0.0396 -0.3203 -0.1394
14672OCT     C229344   9.641   9.529   5.507  0.0828 -0.1124  0.4290
14673OCT     C129345  19.440  17.229  11.167  0.0669  0.0190  0.1980
14673OCT     C229346  19.714  17.389  10.817 -0.2605 -0.0259 -0.1319
14674OCT     C129347  11.818   1.157  10.148 -0.3776  0.1533 -0.6806
14674OCT     C229348  11.534   1.033  10.511  0.1400  0.0891 -0.1355
14675OCT     C129349  14.880   8.163   0.284 -0.2671 -0.0830  0.0520
14675OCT     C229350  15.011   8.636   0.398 -0.3608 -0.3829  0.0947
14676OCT     C129351  10.540  11.712  15.167 -0.1532  0.1763  0.2216
14676OCT     C229352  10.602  11.274  15.037 -0.1833  0.0025  0.1496
14677OCT     C129353  21.053  17.169  16.648 -0.1439  0.0927 -0.2010
14677OCT     C229354  21.228  17.063  16.284 -0.0930  0.0270 -0.3291
14678OCT     C129355  19.737   3.478   8.570  0.1736 -0.0601  0.3279
14678OCT     C229356  19.436   3.767   8.349 -0.0342 -0.2563  0.2462
14679OCT     C129357  21.924   2.040  20.638  0.0483  0.0122 -0.2922
14679OCT     C229358  21.525   1.784  20.635 -0.2285 -0.1440 -0.1993
14680OCT     C129359  11.238   1.076  12.143  0.2772 -0.1321  0.1309
14680OCT     C229360  11.331   1.509  12.151 -0.1636  0.3112 -0.2381
14681OCT     C129361  15.699  23.470  10.770  0.3490 -0.2361 -0.0368
14681OCT     C229362  15.836  23.090  10.976 -0.0690 -0.2604  0.3519
14682OCT     C129363   3.273  22.081   9.729 -0.2113 -0.3060  0.0839
14682OCT     C229364   3.217  22.355   9.373 -0.5523 -0.1718  0.1919
14683OCT     C129365  17.401   2.052  23.372  0.2325  0.1008  0.3306
14683OCT     C229366  17.213   1.631  23.397 -0.1008 -0.1322 -0.1631
14684OCT     C129367   3.608   4.298  19.125  0.2060 -0.1776  0.0389
14684OCT     C229368   3.339   4.638  19.327  0.1382  0.1361  0.0857
14685OCT     C129369  22.192  11.433  12.424 -0.1228 -0.1321 -0.1595
14685OCT     C229370  22.541  11.434  12.749  0.0668  0.2228  0.0567
14686OCT     C129371  16.194   2.027  12.485 -0.1048 -0.3178  0.3113
14686OCT     C229372  16.549   1.773  12.687 -0.4763 -0.1702 -0.0652
14687OCT     C129373  18.211   4.564   0.914  0.1444  0.3831 -0.1777
14687OCT     C229374  18.375   4.563   1.329 -0.1569  0.0131 -0.3101
14688OCT     C129375   6.865  18.838  20.865  0.0201 -0.1510 -0.0214
14688OCT     C229376   7.300  18.707  20.973 -0.1476  0.2106  0.1069
14689OCT     C129377  17.596  18.790  19.451 -0.3895  0.3904 -0.0013
14689OCT     C229378  18.037  18.738  19.370 -0.3040 -0.2889  0.0825
14690OCT     C129379  14.412  12.047  11.332  0.2614  0.1090 -0.1639
14690OCT     C229380  14.069  12.300  11.149 -0.2834  0.0776 -0.4111
14691OCT     C129381  23.352   4.677  23.423  0.0733  0.0418  0.0940
14691OCT     C229382  23.036   4.909  23.133  0.1705  0.1369 -0.3950
14692OCT     C129383  23.204   7.031  13.806 -0.2602  0.2421 -0.1073
14692OCT     C229384  23.102   7.057  14.287 -0.3891 -0.1608  0.0814
14693OCT     C129385  19.568   8.666  15.324  0.1618  0.0208  0.2598
14693OCT     C229386  19.732   9.094  15.427  0.0258  0.0699 -0.0116
14694OCT     C129387  12.434  17.582   2.806  0.3413 -0.1129  0.1034
14694OCT     C229388  11.994  17.575   2.644 -0.1514 -0.2435  0.0250
14695OCT     C129389   1.294  12.120  22.158 -0.1110 -0.1411  0.1307
14695OCT     C229390   1.706  12.067  22.439  0.1608 -0.1411 -0.2333
14696OCT     C129391   2.561  10.185   3.494 -0.0940  0.0037  0.1312
14696OCT     C229392   2.204  10.325   3.685 -0.3406  0.0992  0.0178
14697OCT     C129393  18.412   6.398  12.366  0.2452  0.0981 -0.1993
14697OCT     C229394  18.201   6.335  12.775  0.0532 -0.0665 -0.1857
14698OCT     C129395  16.769  15.739   5.356  0.3116 -0.2521 -0.2532
14698OCT     C229396  16.290  15.814   5.264  0.0706  0.0256 -0.0745
14699OCT     C129397  23.096   0.696   5.904 -0.0878 -0.1241  0.1337
14699OCT     C229398  23.064   1.103   6.096  0.2482  0.0004 -0.1201
14700OCT     C129399   8.414   7.933  20.691  0.2201  0.0510 -0.1591
14700OCT     C229400   8.023   7.952  20.990 -0.0984  0.2846 -0.0085
14701OCT     C129401   7.399  16.008  22.632  0.0838 -0.2392 -0.1737
14701OCT     C229402   7.655  15.890  22.287  0.2186 -0.0482  0.0116
14702OCT     C129403   3.242   1.829   9.427 -0.1842  0.1411 -0.1407
14702OCT     C229404   3.564   1.455   9.528  0.4112 -0.2298  0.1727
14703OCT     C129405   8.583   1.179   0.362 -0.1135  0.0889 -0.1973
14703OCT     C229406   8.582   0.706   0.170  0.1843 -0.3632 -0.0447
14704OCT     C129407   3.093   4.035   4.526 -0.1752 -0.2389 -0.2034
14704OCT     C229408   3.079   3.829   4.053  0.2640 -0.1982 -0.1364
14705OCT     C129409  12.475  16.015   0.978  0.2303 -0.0390  0.0226
14705OCT     C229410  12.414  16.056   1.409  0.0763 -0.0351 -0.4369
14706OCT     C129411  19.265  14.616  16.180 -0.4357  0.3418  0.1804
14706OCT     C229412  19.593  14.884  16.174 -0.2974 -0.3713  0.0412
14707OCT     C129413  11.394  19.882  18.867  0.1140 -0.2719 -0.3053
14707OCT     C229414  11.248  20.129  18.451 -0.2188  0.1252  0.1129
14708OCT     C129415   9.363   1.914  13.606  0.0337 -0.0059  0.1770
14708OCT     C229416   9.088   2.305  13.445 -0.0886 -0.1270 -0.0455
14709OCT     C129417  14.611  23.407  10.455 -0.0669 -0.2298 -0.1045
14709OCT     C229418  14.199  23.329  10.684  0.1175 -0.1835  0.1466
14710OCT     C129419   6.174  14.936  17.145 -0.4774  0.0201  0.2111
14710OCT     C229420   6.627  14.840  17.037 -0.1671  0.0670 -0.0334
14711OCT     C129421  23.332  20.286   3.681 -0.1067 -0.1388  0.0231
14711OCT     C229422  22.935  20.384   3.997  0.3420 -0.3455  0.1575
14712OCT     C129423  18.535   8.743   0.245 -0.4269  0.1664  0.2824
14712OCT     C229424  18.201   9.059   0.206  0.0406  0.0780  0.4081
14713OCT     C129425  20.317  17.706   0.794 -0.0551  0.0145  0.3692
14713OCT     C229426  20.389  17.271   0.925  0.0672  0.0228 -0.2575
14714OCT     C129427  21.601  10.501  16.312  0.1856  0.0504  0.1119
14714OCT     C229428  21.672  10.657  16.745 -0.5074  0.2308  0.2256
14715OCT     C129429   6.855  12.488  10.226 -0.1097 -0.0047  0.1344
14715OCT     C229430   7.145  12.809  10.374  0.4745  0.1442 -0.0571
14716OCT     C129431  11.037   6.538  19.933 -0.1777  0.0336  0.0906
14716OCT     C229432  10.953   6.627  20.360  0.0889  0.0067 -0.1612
14717OCT     C129433   6.560   6.326  22.247  0.4039 -0.2144 -0.3263
14717OCT     C229434   6.265   6.396  21.887  0.3045  0.2299 -0.2862
14718OCT     C129435   9.145  23.280  17.747  0.1191 -0.1676  0.0016
14718OCT     C229436   8.903  22.843  17.603 -0.1715 -0.2610  0.0807
14719OCT     C129437   5.970   7.321  11.753 -0.2266 -0.0121 -0.1048
14719OCT     C229438   6.369   7.042  11.718 -0.1226 -0.2608  0.1600
14720OCT     C129439   8.196  15.107   0.829  0.2092  0.2124  0.2008
14720OCT     C229440   8.089  14.730   0.544  0.1920 -0.2068 -0.0151
14721OCT     C129441  11.329  22.786   8.895 -0.2721  0.2335  0.2739
14721OCT     C229442  11.618  22.944   9.252  0.0634  0.0203  0.3341
14722OCT     C129443   6.674   6.721   1.103  0.3545  0.0949  0.3780
14722OCT     C229444   6.513   7.090   1.304 -0.0058 -0.1967  0.3492
14723OCT     C129445   6.535   7.095   3.791  0.3840 -0.2651 -0.0834
14723OCT     C229446   6.712   6.793   4.144  0.3642  0.0817 -0.1863
14724OCT     C129447   1.510  18.606  18.107  0.2823  0.3787 -0.1235
14724OCT     C229448   1.755  18.436  18.490 -0.3426  0.1286 -0.2970
14725OCT     C129449   6.494  15.119   9.954 -0.1967  0.5258  0.1852
14725OCT     C229450   6.575  15.127   9.510 -0.0618  0.1954 -0.4245
14726OCT     C129451   9.866  13.756  15.412 -0.0883 -0.1550 -0.0556
14726OCT     C229452  10.079  13.566  15.782  0.2191  0.0839 -0.0443
14727OCT     C129453  13.641   1.435  12.158 -0.0643  0.1852  0.3125
14727OCT     C229454  14.088   1.381  11.986  0.1516  0.1882  0.2839
14728OCT     C129455   2.850  16.698   2.530  0.1916  0.3032  0.0607
14728OCT     C229456   3.009  16.363   2.865 -0.0187 -0.2527  0.2902
14729OCT     C129457  19.779   2.513  12.509  0.0614  0.2778  0.0404
14729OCT     C229458  19.602   2.831  12.828 -0.2069  0.0143  0.1024
14730OCT     C129459   1.481  17.792   3.567  0.3598  0.4922 -0.0655
14730OCT     C229460   1.905  17.945   3.461  0.0105 -0.2423 -0.0684
14731OCT     C129461  21.927  19.593  15.956 -0.0901  0.0891 -0.3953
14731OCT     C229462  22.144  19.666  15.554  0.0376  0.1617  0.4013
14732OCT     C129463  16.948  20.280  14.995 -0.1703 -0.2325 -0.0042
14732OCT     C229464  16.966  19.836  15.101 -0.2052  0.0371  0.0101
14733OCT     C129465  10.316   1.754  14.450 -0.3348 -0.4474 -0.1035
14733OCT     C229466  10.737   1.760  14.262  0.0791  0.3741 -0.1085
14734OCT     C129467  17.392   3.432  19.334  0.0209 -0.0935 -0.1891
14734OCT     C229468  17.473   3.434  19.842 -0.0135  0.3345  0.2275
14735OCT     C129469   7.932  14.828  17.049 -0.0387 -0.0903  0.2968
14735OCT     C229470   8.214  15.010  16.741  0.1259  0.1356 -0.2629
14736OCT     C129471   3.416  19.516  13.305  0.0613  0.1148 -0.1254
14736OCT     C229472   3.414  19.828  13.649 -0.2287 -0.1064  0.0776
14737OCT     C129473  18.559  18.019   6.362  0.0634 -0.0363  0.0111
14737OCT     C229474  18.763  17.654   6.147  0.4000 -0.0245  0.3086
14738OCT     C129475   3.863  21.715   7.602  0.2161  0.0680 -0.2685
14738OCT     C229476   3.452  21.888   7.500 -0.3598 -0.0556  0.1882
14739OCT     C129477   1.077   4.384   9.307  0.1922 -0.0427 -0.2843
14739OCT     C229478   1.151   4.349   8.850  0.0112 -0.0019  0.0406
14740OCT     C129479   6.626  17.526  21.343 -0.0755 -0.0969  0.3670
14740OCT     C229480   6.214  17.773  21.321  0.0605 -0.4344 -0.2054
14741OCT     C129481   1.984   0.182  14.632  0.1899 -0.2328  0.1922
14741OCT     C229482   2.011   0.565  14.922 -0.1226 -0.1066  0.0907
14742OCT     C129483   1.718  22.948   2.786  0.2795 -0.2123  0.1819
14742OCT     C229484   1.447  22.549   2.963 -0.0018  0.1885  0.1375
14743OCT     C129485   9.246   2.799   6.870  0.3059 -0.2734 -0.1082
14743OCT     C229486   8.999   3.197   6.702 -0.0867  0.0421  0.0377
14744OCT     C129487   1.867   8.917   4.584  0.1667 -0.4402  0.0819
14744OCT     C229488   1.528   9.117   4.238  0.0597 -0.0974  0.3942
14745OCT     C129489  18.213   4.935   6.968 -0.1655  0.0519  0.2708
14745OCT     C229490  18.301   5.119   7.379 -0.1012 -0.3632 -0.2205
14746OCT     C129491  22.954  12.118  11.815 -0.2380  0.5020  0.0385
14746OCT     C229492  22.499  12.154  11.608  0.1889  0.0302 -0.1088
14747OCT     C129493   7.509  20.006   1.885  0.1799  0.1018  0.0825
14747OCT     C229494   7.779  20.372   1.734  0.2898  0.5604  0.1843
14748OCT     C129495  21.001   5.243  20.756 -0.2392 -0.2179  0.3810
14748OCT     C229496  20.625   4.935  20.866  0.2359  0.1185  0.1390
14749OCT     C129497   6.351   5.581   1.796 -0.1431  0.1475  0.1298
14749OCT     C229498   5.963   5.272   1.703  0.0250  0.0229  0.2918
14750OCT     C129499  15.591  17.864   2.777  0.0114 -0.0484 -0.1929
14750OCT     C229500  15.519  17.594   2.374  0.1716  0.0904 -0.0393
14751OCT     C129501  16.702  18.066  22.761 -0.1612 -0.0572  0.0794
14751OCT     C229502  16.927  18.318  23.110 -0.1537 -0.2014 -0.2039
14752OCT     C129503  20.850  22.864  21.175  0.2807 -0.1147  0.0464
14752OCT     C229504  20.733  22.731  20.703  0.1891  0.0382 -0.3208
14753OCT     C129505  23.241  12.679  10.006  0.0200  0.3925 -0.1299
14753OCT     C229506  23.389  12.342   9.678 -0.0872  0.1262 -0.0322
14754OCT     C129507   1.423  17.292  23.224 -0.2317  0.0776  0.2727
14754OCT     C229508   1.436  17.515  22.827  0.1942 -0.1988  0.2039
14755OCT     C129509  19.634  15.616   3.276 -0.3458  0.2440  0.0561
14755OCT     C229510  19.246  15.616   3.533  0.0670 -0.5134  0.0393
14756OCT     C129511  14.796  18.006  20.546  0.1081 -0.1507 -0.0586
14756OCT     C229512  14.283  17.998  20.451  0.1807 -0.0807 -0.2242
14757OCT     C129513  10.197   0.076  20.934  0.1795  0.1313 -0.0553
14757OCT     C229514  10.236  23.557  21.362  0.2286  0.3063  0.0454
14758OCT     C129515   2.803   5.754   3.968 -0.2114 -0.1048  0.3845
14758OCT     C229516   2.673   5.850   3.519  0.2703 -0.0739  0.0688
14759OCT     C129517  12.248  21.818   2.409 -0.0649 -0.3296 -0.2306
14759OCT     C229518  12.069  21.515   2.648  0.1550 -0.1998 -0.3342
14760OCT     C129519  17.093   5.068   2.348 -0.2821 -0.0054  0.2308
14760OCT     C229520  17.124   5.429   2.635 -0.1412  0.1540  0.1388
14761OCT     C129521   3.152   5.381  18.417 -0.0993  0.1192  0.4828
14761OCT     C229522   3.172   5.842  18.228 -0.1407  0.0475  0.0254
14762OCT     C129523   6.080  20.993   2.708 -0.0145 -0.0090  0.0459
14762OCT     C229524   5.803  21.000   2.332 -0.2412 -0.2202 -0.1366
14763OCT     C129525   7.137   0.836   1.499 -0.3951 -0.2438 -0.2364
14763OCT     C229526   7.064   0.855   1.005  0.2903 -0.0787 -0.0913
14764OCT     C129527  13.139  22.460   4.133 -0.3212  0.0525  0.2462
14764OCT     C229528  13.142  22.891   4.229  0.0200  0.0455  0.2395
14765OCT     C129529  11.506   9.067   7.481  0.0693  0.3443  0.1576
14765OCT     C229530  11.941   8.916   7.352 -0.2322  0.3855 -0.1518
14766OCT     C129531   9.882  13.239   7.251  0.0511  0.1633  0.0733
14766OCT     C229532  10.294  13.335   7.127 -0.0448 -0.1622 -0.1538
14767OCT     C129533  13.113  17.384  14.692 -0.1727  0.1096  0.1182
14767OCT     C229534  13.285  17.005  14.784 -0.4610 -0.2002  0.1680
14768OCT     C129535  10.764  13.638   3.972 -0.0181 -0.3576 -0.3625
14768OCT     C229536  10.614  13.678   3.532 -0.3371  0.0460 -0.1459
14769OCT     C129537   7.025   7.297   8.562 -0.0807 -0.3574 -0.3566
14769OCT     C229538   6.565   7.345   8.748 -0.1748  0.1488  0.1151
14770OCT     C129539  23.086   0.888  16.945  0.1975 -0.1771 -0.1109
14770OCT     C229540  22.746   0.565  17.004  0.2388  0.1277 -0.2459
14771OCT     C129541   8.173   1.253  10.121  0.1433  0.1160  0.0578
14771OCT     C229542   8.609   1.441  10.153  0.2987 -0.0581 -0.2525
14772OCT     C129543  14.899   3.703  23.454 -0.0475  0.1177 -0.0934
14772OCT     C229544  14.522   3.837  23.684 -0.1283  0.1562  0.2265
14773OCT     C129545  17.172   3.234   7.406 -0.5111  0.1656 -0.0150
14773OCT     C229546  17.310   3.118   6.949 -0.0808 -0.1255  0.1179
14774OCT     C129547  19.441  20.505  21.687 -0.2026  0.1971  0.2583
14774OCT     C229548  19.754  20.805  21.770  0.0734 -0.1897 -0.1390
14775OCT     C129549  16.396   4.286  15.037  0.0400  0.5302  0.0418
14775OCT     C229550  16.498   4.437  15.481  0.1783 -0.0409  0.2470
14776OCT     C129551   0.111   1.493  12.840  0.1606  0.4901  0.2810
14776OCT     C229552   0.241   1.082  13.080 -0.2800  0.2043 -0.1728
14777OCT     C129553  19.816  17.504  19.207  0.0770  0.0011 -0.2902
14777OCT     C229554  19.770  17.668  18.720  0.2176 -0.2441 -0.0529
14778OCT     C129555  22.473   4.898  15.697 -0.0859 -0.0722  0.0237
14778OCT     C229556  22.368   4.922  15.226  0.0774  0.0599  0.0512
14779OCT     C129557  15.252  21.699   3.864 -0.0414 -0.0697  0.0776
14779OCT     C229558  15.112  21.273   3.889 -0.1127  0.2740  0.4572
14780OCT     C129559  15.071   2.990   3.390 -0.0207  0.1950  0.3391
14780OCT     C229560  15.136   2.689   3.029 -0.0225  0.3025 -0.3617
14781OCT     C129561   7.616  23.139  19.619 -0.3467  0.1919 -0.0391
14781OCT     C229562   7.471  22.702  19.689  0.3376 -0.0841 -0.1034
14782OCT     C129563  14.757  22.492   5.208 -0.4420 -0.1969 -0.2239
14782OCT     C229564  14.946  22.396   4.798  0.6238  0.0282 -0.2864
14783OCT     C129565  15.453  21.407   9.633 -0.1830 -0.0749 -0.1198
14783OCT     C229566  15.232  21.151   9.996  0.1737 -0.0814  0.2365
14784OCT     C129567  16.874   0.686   0.722  0.4036  0.3862 -0.0972
14784OCT     C229568  16.590   0.821   1.106  0.2018 -0.4054  0.1700
14785OCT     C129569  19.222   1.756   8.773 -0.0632 -0.0436 -0.3806
14785OCT     C229570  18.863   2.054   8.630 -0.1561 -0.1916 -0.1830
14786OCT     C129571  13.723   8.599   0.324  0.2680  0.1194 -0.1172
14786OCT     C229572  14.127   8.365   0.378 -0.2796  0.0870 -0.2832
14787OCT     C129573  20.822  12.182  22.528 -0.0259 -0.1857 -0.3201
14787OCT     C229574  20.441  12.160  22.831  0.0940  0.1315 -0.1965
14788OCT     C129575   1.426  23.415  10.446 -0.0083  0.1333  0.1339
14788OCT     C229576   1.604  23.338  10.012 -0.1558 -0.3129 -0.0881
14789OCT     C129577  13.172  22.776  17.048 -0.0480 -0.4670  0.2111
14789OCT     C229578  12.934  23.145  16.863 -0.0328 -0.1613  0.0468
14790OCT     C129579  16.000  23.369  17.521 -0.0935 -0.3559  0.0839
14790OCT     C229580  15.993  23.068  17.230  0.2783  0.1324 -0.0287
14791OCT     C129581  12.748  17.735   0.658  0.0262 -0.1236  0.0235
14791OCT     C229582  12.582  17.520   0.281 -0.2742  0.2057 -0.1365
14792OCT     C129583   8.597  14.936  19.037  0.1071 -0.2713  0.0986
14792OCT     C229584   8.497  15.300  18.824 -0.0139  0.0420  0.3575
14793OCT     C129585  18.795  19.394  20.155  0.0092  0.2327 -0.1256
14793OCT     C229586  18.918  19.244  20.515 -0.3336 -0.1331 -0.4425
14794OCT     C129587  18.579  14.245   2.619  0.0595 -0.4575  0.1299
14794OCT     C229588  18.579  13.754   2.488  0.1319 -0.0174 -0.1341
14795OCT     C129589  20.274  16.274  11.685  0.1234 -0.2809 -0.3332
14795OCT     C229590  19.974  16.027  11.413  0.1723  0.0935 -0.0165
14796OCT     C129591   1.189   4.650  21.671  0.0661  0.0693 -0.0678
14796OCT     C229592   1.232   4.241  21.966 -0.3219 -0.2751 -0.1820
14797OCT     C129593   1.474   4.232  10.744 -0.0879 -0.1944  0.2129
14797OCT     C229594   1.792   4.542  10.946 -0.0413 -0.1598 -0.2464
14798OCT     C129595   4.004  10.437   5.403  0.2708 -0.2213 -0.2397
14798OCT     C229596   3.981   9.989   5.610  0.2994  0.1825 -0.1675
14799OCT     C129597  19.548   2.193  18.956  0.0336  0.2045 -0.2141
14799OCT     C229598  19.168   2.003  18.980  0.1487 -0.4158  0.0488
14800OCT     C129599   7.308  17.799   4.771  0.2134 -0.0837  0.3568
14800OCT     C229600   6.972  17.940   4.437 -0.3342 -0.0287  0.0668
14801OCT     C129601  17.014   7.049  19.670  0.0121 -0.1401 -0.0753
14801OCT     C229602  17.169   7.145  20.129  0.0154 -0.1648  0.0201
14802OCT     C129603   8.984   1.733  12.538  0.0798 -0.1694 -0.1037
14802OCT     C229604   9.131   1.321  12.462 -0.1186  0.0361  0.2153
14803OCT     C129605  21.529   1.433   3.056 -0.3657  0.1102 -0.2001
14803OCT     C229606  21.131   1.499   2.809 -0.6880  0.0336  0.0981
14804OCT     C129607   4.104  19.741   0.009  0.0270 -0.1898  0.2001
14804OCT     C229608   4.431  19.954   0.285  0.1739 -0.0413 -0.0170
14805OCT     C129609  11.231  23.609  17.684 -0.1559  0.2310 -0.0660
14805OCT     C229610  11.396  23.395  18.062  0.1511  0.2150 -0.6061
14806OCT     C129611  11.519  18.909   3.724  0.1964 -0.0476 -0.3504
14806OCT     C229612  11.438  19.016   4.191 -0.0602  0.0605 -0.1551
14807OCT     C129613   7.225   1.944  12.409 -0.2766 -0.3168  0.1916
14807OCT     C229614   7.110   2.268  12.769 -0.1750 -0.0447 -0.1058
14808OCT     C129615  22.313   4.510   3.745 -0.1121  0.0376  0.0275
14808OCT     C229616  22.114   4.088   3.833 -0.1656  0.2319 -0.1011
14809OCT     C129617   3.560  15.095   0.519 -0.2406  0.1062  0.2105
14809OCT     C229618   3.218  15.108   0.825 -0.1672 -0.1911  0.2434
14810OCT     C129619   2.452   0.622  14.611  0.1658 -0.1208 -0.3505
14810OCT     C229620   2.752   0.302  14.477 -0.4805 -0.2184 -0.1511
14811OCT     C129621   1.350   6.329  15.839 -0.0248  0.2579  0.0426
14811OCT     C229622   1.001   6.129  16.110  0.1432 -0.0352  0.3540
14812OCT     C129623   5.448  15.117  23.556 -0.1437  0.0945  0.0301
14812OCT     C229624   5.535  15.545  23.425  0.1634 -0.2627 -0.1561
14813OCT     C129625  20.116  12.599  17.523  0.0025 -0.0135 -0.2331
14813OCT     C229626  20.497  12.797  17.565 -0.0593 -0.1551 -0.0890
14814OCT     C129627  19.456   2.864  17.431  0.2270  0.0339 -0.0915
14814OCT     C229628  19.641   3.025  17.027  0.1893  0.1594  0.0846
14815OCT     C129629  16.892  17.566   1.646 -0.1379 -0.1456  0.1793
14815OCT     C229630  16.534  17.608   1.344  0.2087 -0.2554  0.0904
14816OCT     C129631   6.022   3.360  20.283 -0.3964  0.0592  0.3179
14816OCT     C229632   6.197   3.592  20.012 -0.2306 -0.1298 -0.2291
14817OCT     C129633   8.456   5.084  13.200 -0.0813  0.2463  0.1963
14817OCT     C229634   8.553   5.471  13.160  0.0727  0.3944 -0.0834
14818OCT     C129635   5.042   5.850  22.446  0.2745  0.2227 -0.3928
14818OCT     C229636   4.805   5.504  22.658  0.1608 -0.2673 -0.2814
14819OCT     C129637   9.929  20.406  17.562 -0.1629  0.0444  0.0132
14819OCT     C229638  10.020  20.844  17.765 -0.0144 -0.0301  0.0163
14820OCT     C129639  17.424  12.854   4.867  0.0884 -0.1635  0.2028
14820OCT     C229640  17.759  12.702   5.064  0.2630 -0.0122  0.0519
14821OCT     C129641  20.970   0.666  22.596  0.0846  0.0421  0.1463
14821OCT     C229642  20.553   0.746  22.690  0.2040 -0.0549  0.0957
14822OCT     C129643   2.423   0.750  13.272  0.2706 -0.4404  0.2309
14822OCT     C229644   2.810   0.658  13.416 -0.3078  0.2503  0.0696
14823OCT     C129645   7.024  15.415  13.357 -0.1005 -0.0098  0.2397
14823OCT     C229646   6.650  15.139  13.350 -0.1508  0.2882 -0.0047
14824OCT     C129647  13.146  14.482   1.764 -0.1703  0.0825  0.2205
14824OCT     C229648  12.999  14.139   2.036 -0.1707  0.0482 -0.0995
14825OCT     C129649  14.530  14.421  17.751 -0.0826 -0.0955 -0.1632
14825OCT     C229650  14.588  14.275  17.338 -0.1047  0.0948 -0.0022
14826OCT     C129651  21.932   6.548   8.096  0.2532  0.1473 -0.1654
14826OCT     C229652  21.807   6.621   7.695 -0.1034 -0.3633 -0.0715
14827OCT     C129653   4.420  18.431   6.672 -0.0009 -0.0959 -0.6201
14827OCT     C229654   4.259  18.106   7.048  0.2232 -0.1425  0.0301
14828OCT     C129655  21.183   9.129  18.734 -0.0057  0.1612 -0.1455
14828OCT     C229656  21.573   9.022  18.941  0.0646 -0.1864 -0.1216
14829OCT     C129657  19.398   5.969   2.040 -0.2946 -0.2179 -0.1807
14829OCT     C229658  19.567   5.529   1.940 -0.0468  0.0196  0.1680
14830OCT     C129659   9.006   0.434  23.741 -0.0729  0.1102  0.0275
14830OCT     C229660   9.025   0.194   0.382  0.1529 -0.2500 -0.3280
14831OCT     C129661  19.704   0.270  14.853  0.0557 -0.0706  0.3864
14831OCT     C229662  19.413   0.078  14.561 -0.0265  0.0939  0.3444
14832OCT     C129663   7.174  17.157   8.110 -0.0332  0.2975  0.1591
14832OCT     C229664   6.891  17.037   8.433  0.1523  0.5534 -0.3935
14833OCT     C129665   8.080   7.843  22.707 -0.0087 -0.2135  0.3683
14833OCT     C229666   7.864   7.589  23.051 -0.1831 -0.1880 -0.5248
14834OCT     C129667  21.664  19.291   5.119 -0.1788 -0.1191 -0.0982
14834OCT     C229668  21.245  19.404   5.293 -0.0390  0.3152 -0.0528
14835OCT     C129669  18.622   2.944   6.895  0.2156 -0.1060  0.0981
14835OCT     C229670  18.630   3.134   6.453  0.0469 -0.1570  0.1728
14836OCT     C129671   5.727   7.954  15.115 -0.1390 -0.0865  0.3214
14836OCT     C229672   5.999   7.784  15.507  0.1336  0.3801 -0.0235
14837OCT     C129673  20.481  10.463   8.687 -0.0269 -0.0538  0.0543
14837OCT     C229674  20.899  10.592   8.542 -0.0252  0.1201 -0.0065
14838OCT     C129675  13.087  15.162   1.887  0.0480  0.0589  0.0107
14838OCT     C229676  13.211  15.077   1.433 -0.1728  0.0288 -0.2505
14839OCT     C129677   5.258  22.298   7.182 -0.2988  0.1006  0.4139
14839OCT     C229678   5.641  22.207   7.446  0.0456  0.1316 -0.0398
14840OCT     C129679   4.265  18.191  15.058  0.0164  0.0684 -0.0427
14840OCT     C229680   4.340  18.433  14.656 -0.2260  0.1018  0.2444
14841OCT     C129681  11.716  13.104   0.096  0.0977  0.0505 -0.0273
14841OCT     C229682  11.885  13.292   0.492 -0.0939 -0.0589 -0.2450
14842OCT     C129683   7.302   1.336  17.126  0.0162 -0.0709  0.1433
14842OCT     C229684   7.287   1.257  16.674  0.1976  0.0435  0.2325
14843OCT     C129685  13.152   6.553   2.575  0.1349  0.1072 -0.1496
14843OCT     C229686  12.947   6.220   2.801  0.0037 -0.2559 -0.0886
14844OCT     C129687  20.419   3.848  17.789 -0.0255  0.0215 -0.0689
14844OCT     C229688  20.213   4.108  17.484 -0.0497  0.3777 -0.2752
14845OCT     C129689  12.669   7.382   2.038 -0.1051 -0.1871  0.2041
14845OCT     C229690  12.710   7.761   2.305 -0.0500  0.0952 -0.0544
14846OCT     C129691   8.607  13.078  22.643 -0.2621  0.2936 -0.0658
14846OCT     C229692   8.141  13.073  22.529 -0.3033  0.1310  0.0675
14847OCT     C129693   8.557  22.614  18.401  0.2097  0.0389  0.0341
14847OCT     C229694   8.539  22.486  18.009  0.2777 -0.0909  0.0243
14848OCT     C129695  18.958  13.072   7.107 -0.0387  0.0273  0.1848
14848OCT     C229696  18.994  13.053   6.576  0.2391 -0.0797  0.1865
14849OCT     C129697  15.183  21.581   7.864 -0.1753 -0.1476  0.0528
14849OCT     C229698  14.845  21.405   7.747 -0.0314 -0.3837  0.1060
14850OCT     C129699  18.417  21.961   8.470 -0.1157  0.3109  0.5520
14850OCT     C229700  18.747  22.252   8.688 -0.1161  0.2525  0.0776
14851OCT     C129701  21.112  15.606  20.165 -0.1686  0.0087  0.3135
14851OCT     C229702  21.544  15.610  20.017 -0.5381  0.2460 -0.2205
14852OCT     C129703  18.255  15.168   3.304 -0.1283  0.0685  0.0063
14852OCT     C229704  18.042  15.555   3.121  0.0683 -0.0989 -0.1936
14853OCT     C129705  22.114   6.703   6.739  0.4165  0.5526 -0.4231
14853OCT     C229706  22.102   6.203   6.932 -0.1510 -0.0103  0.2070
14854OCT     C129707  10.032  15.352  14.104 -0.1082  0.0381 -0.0955
14854OCT     C229708  10.423  15.366  13.897  0.0774 -0.0048 -0.0445
14855OCT     C129709   6.760   4.097  20.556  0.1032 -0.3007 -0.0170
14855OCT     C229710   6.639   3.621  20.396  0.0347 -0.1497  0.2402
14856OCT     C129711   7.798  23.299   1.757  0.0962  0.2862  0.0924
14856OCT     C229712   8.241  23.249   1.637 -0.0319  0.5399  0.0148
14857OCT     C129713  23.599  22.572  14.036  0.2288 -0.0314 -0.1496
14857OCT     C229714   0.047  22.220  14.317  0.0394  0.2096 -0.1100
14858OCT     C129715  11.011  11.683   7.904  0.2448 -0.1540  0.1839
14858OCT     C229716  10.723  11.856   7.547  0.1739  0.3014 -0.3827
14859OCT     C129717   5.814   1.805   6.957 -0.2191 -0.1437 -0.3889
14859OCT     C229718   5.703   2.241   7.065  0.1158  0.3013  0.4786
14860OCT     C129719  10.329  12.556  20.223  0.1057  0.0391 -0.3232
14860OCT     C229720  10.355  12.658  20.703  0.3123 -0.2475  0.1485
14861OCT     C129721  22.035  17.161  16.966  0.3845 -0.0051 -0.2166
14861OCT     C229722  22.231  17.516  16.870  0.2365  0.1521 -0.6022
14862OCT     C129723   7.574   4.209   8.307 -0.2904 -0.0896 -0.1687
14862OCT     C229724   7.600   4.386   8.780  0.4626 -0.0577  0.2026
14863OCT     C129725   3.664   5.013   9.561  0.1547  0.2463 -0.2230
14863OCT     C229726   3.890   5.265   9.858  0.4347 -0.5084 -0.0700
14864OCT     C129727  13.496   2.612   0.410 -0.1955  0.2829 -0.1825
14864OCT     C229728  13.133   2.557   0.195  0.2067 -0.1148  0.3417
14865OCT     C129729  21.936   2.455  19.397 -0.0342 -0.1932  0.1128
14865OCT     C229730  21.529   2.193  19.379 -0.1826  0.0937 -0.2029
14866OCT     C129731   5.991   8.618   2.464 -0.0690  0.5905 -0.5487
14866OCT     C229732   6.256   8.976   2.498  0.2153  0.2079 -0.1980
14867OCT     C129733  18.950   6.880   3.734 -0.3816  0.0732  0.1877
14867OCT     C229734  18.942   7.344   3.906  0.0769 -0.0774  0.1401
14868OCT     C129735   2.354  17.352   0.073 -0.0417  0.1932  0.1336
14868OCT     C229736   2.566  17.706   0.327 -0.3373  0.1409  0.1161
14869OCT     C129737   8.557  22.770   7.787  0.2862 -0.0235  0.0841
14869OCT     C229738   8.590  23.198   7.945  0.3507 -0.0202 -0.2037
14870OCT     C129739  21.418   7.332   2.828 -0.2305 -0.1138  0.0503
14870OCT     C229740  21.013   7.375   2.626 -0.1002 -0.2036 -0.0706
14871OCT     C129741  23.513   2.466   3.101  0.0812  0.2183 -0.0939
14871OCT     C229742  23.333   2.171   2.787 -0.0450 -0.2394 -0.1414
14872OCT     C129743  12.468  22.095  12.707  0.3009  0.3444  0.2435
14872OCT     C229744  12.591  21.652  12.935 -0.4249 -0.0951 -0.2404
14873OCT     C129745   8.595   0.913   3.840 -0.2092  0.1973 -0.0139
14873OCT     C229746   8.515   1.337   3.905  0.2077 -0.0918 -0.1699
14874OCT     C129747  17.430  22.637  21.520 -0.0413  0.1662  0.0683
14874OCT     C229748  17.339  23.114  21.682 -0.1145  0.0235 -0.1024
14875OCT     C129749   1.786  15.646  16.907  0.1079 -0.1585  0.2211
14875OCT     C229750   2.070  15.511  17.249  0.2179  0.1478 -0.3194
14876OCT     C129751  13.888  14.104   7.985 -0.0505 -0.1999  0.4116
14876OCT     C229752  14.062  13.758   8.264 -0.4460  0.0455  0.1360
14877OCT     C129753   6.658  21.636  21.030 -0.0095 -0.2961  0.6186
14877OCT     C229754   7.117  21.562  21.046  0.3171  0.3528 -0.1123
14878OCT     C129755   8.108  17.317  18.396 -0.1258  0.0962  0.2195
14878OCT     C229756   8.385  17.647  18.167  0.3103  0.2103 -0.0277
14879OCT     C129757   4.589  12.151   5.631 -0.1585 -0.2999  0.0937
14879OCT     C229758   4.511  12.593   5.447  0.3449 -0.1360  0.0991
14880OCT     C129759  11.745   2.966   9.068 -0.0458  0.0033  0.0921
14880OCT     C229760  11.715   2.884   8.579  0.2345  0.0325  0.7509
14881OCT     C129761  21.699  20.402   6.216 -0.3636 -0.2872 -0.2262
14881OCT     C229762  21.516  20.183   6.535 -0.0855  0.2481  0.0066
14882OCT     C129763  20.901   8.460  18.075  0.0167  0.2291 -0.1597
14882OCT     C229764  20.404   8.282  18.019  0.1375  0.3442 -0.3355
14883OCT     C129765  13.212  22.275   2.170  0.1177 -0.2697 -0.3229
14883OCT     C229766  12.980  22.183   1.779 -0.1862 -0.2093  0.1089
14884OCT     C129767  12.389  17.444  14.267  0.1922 -0.1048 -0.0936
14884OCT     C229768  12.818  17.549  14.243 -0.0015 -0.0576 -0.0564
14885OCT     C129769   3.826  16.751  22.892 -0.1196 -0.1330 -0.2290
14885OCT     C229770   4.177  16.685  22.602 -0.0696  0.2812  0.0227
14886OCT     C129771  11.453  11.393  20.788 -0.2050 -0.2935 -0.0038
14886OCT     C229772  11.592  11.010  20.615  0.1973 -0.2401  0.1120
14887OCT     C129773   2.786   6.102  18.061 -0.1093 -0.2301  0.0251
14887OCT     C229774   2.600   6.149  17.640 -0.1842 -0.0234 -0.0755
14888OCT     C129775  22.946   2.475   2.857 -0.0761 -0.4629  0.1392
14888OCT     C229776  22.875   2.639   2.415 -0.2840  0.1343  0.1311
14889OCT     C129777   1.129  15.661  18.505  0.2965  0.4563  0.0179
14889OCT     C229778   1.263  15.756  18.884  0.2247  0.1282  0.4216
14890OCT     C129779  15.400  19.654   3.049  0.1127  0.3648 -0.2349
14890OCT     C229780  15.262  19.413   3.426  0.1030  0.0775  0.0082
14891OCT     C129781   5.813   6.992   6.304 -0.1505 -0.1523  0.0775
14891OCT     C229782   5.752   6.538   6.142 -0.4253 -0.0091 -0.0339
14892OCT     C129783   3.730  17.937  20.369 -0.0963  0.1847 -0.1640
14892OCT     C229784   3.483  18.317  20.280  0.1125 -0.3618  0.0849
14893OCT     C129785  21.231  22.035   9.904 -0.1783  0.1023  0.2161
14893OCT     C229786  20.747  21.985   9.884  0.3549 -0.1816  0.2174
14894OCT     C129787   7.503  19.310  12.702 -0.2831  0.0117 -0.0168
14894OCT     C229788   7.355  19.732  12.740  0.3049  0.0176  0.3499
14895OCT     C129789  16.345  23.454   5.417 -0.0612  0.1173  0.2457
14895OCT     C229790  16.689   0.049   5.526 -0.0733  0.0531  0.0725
14896OCT     C129791  17.238  19.882   1.370 -0.1204 -0.1970  0.2261
14896OCT     C229792  17.372  20.261   1.612  0.2840  0.2051 -0.2932
14897OCT     C129793  14.494   4.969  13.846 -0.0513  0.1398  0.3679
14897OCT     C229794  14.152   4.884  13.656 -0.1357 -0.2542 -0.1128
14898OCT     C129795  11.168   7.705  18.492  0.2759 -0.6351 -0.0931
14898OCT     C229796  11.039   7.565  18.919  0.1706  0.1268 -0.2039
14899OCT     C129797   5.915  22.177   4.651 -0.0818 -0.0149  0.2549
14899OCT     C229798   5.599  21.814   4.547  0.1616  0.2098  0.0050
14900OCT     C129799  12.884   2.822   4.791 -0.3296  0.1347 -0.0772
14900OCT     C229800  13.041   3.150   4.557  0.1922 -0.1664  0.0439
14901OCT     C129801  17.821  21.746  20.223 -0.4326 -0.0298 -0.3103
14901OCT     C229802  17.459  21.463  20.353  0.2515  0.0042 -0.2532
14902OCT     C129803  20.657  20.184  14.897  0.1429  0.3042 -0.1076
14902OCT     C229804  20.661  19.976  15.295  0.1080 -0.2771 -0.2775
14903OCT     C129805   3.743   7.914   6.742 -0.0963  0.2536 -0.2022
14903OCT     C229806   3.749   7.527   6.950 -0.0270  0.3939  0.1865
14904OCT     C129807  14.045  10.295  11.527 -0.0021 -0.2733 -0.1288
14904OCT     C229808  13.955  10.693  11.650  0.1844  0.3574  0.2596
14905OCT     C129809   7.862  20.975  16.775  0.0447  0.1602  0.1646
14905OCT     C229810   7.987  21.413  16.655 -0.1963  0.3243 -0.3003
14906OCT     C129811   2.875  22.736   9.545  0.1790  0.0393  0.1606
14906OCT     C229812   2.475  22.997   9.491 -0.1177 -0.1950 -0.0003
14907OCT     C129813  13.713  19.999  17.460 -0.2749 -0.1969 -0.3450
14907OCT     C229814  13.829  19.806  17.924 -0.0966  0.0669  0.2096
14908OCT     C129815  12.514   7.962  22.123  0.1950 -0.0589  0.3612
14908OCT     C229816  12.752   7.795  22.457  0.0966 -0.1102 -0.3843
14909OCT     C129817  11.145   9.335   8.216 -0.0273  0.4794 -0.0292
14909OCT     C229818  10.935   9.047   8.497 -0.4185  0.1316 -0.0566
14910OCT     C129819  18.128  21.633   3.792 -0.0011 -0.1498  0.2425
14910OCT     C229820  17.912  21.668   3.445  0.0885 -0.0989 -0.0795
14911OCT     C129821  11.628   0.741  20.926 -0.2491  0.0030  0.0336
14911OCT     C229822  11.343   0.323  20.772 -0.0518 -0.2862 -0.1767
14912OCT     C129823   1.584   3.492   5.368  0.1188 -0.2745 -0.0921
14912OCT     C229824   1.831   3.088   5.384 -0.1462  0.2083  0.0308
14913OCT     C129825  18.199   9.618  11.548 -0.0429  0.1240 -0.2032
14913OCT     C229826  17.827   9.404  11.334  0.1145  0.1007 -0.0279
14914OCT     C129827  15.575   7.429  14.845 -0.2289  0.2036 -0.1194
14914OCT     C229828  15.758   7.010  14.916  0.2121  0.1612  0.0509
14915OCT     C129829   3.485  19.549   0.092  0.0698 -0.0019  0.0724
14915OCT     C229830   3.727  19.271   0.392 -0.1039 -0.4467  0.1039
14916OCT     C129831   6.890  18.716   3.425  0.2080 -0.2504  0.1273
14916OCT     C229832   6.703  18.284   3.463 -0.0766 -0.0221  0.0223
14917OCT     C129833  17.161   5.463   4.379  0.0787  0.0655  0.1993
14917OCT     C229834  17.630   5.411   4.538  0.1092  0.2728  0.1874
14918OCT     C129835  10.448   6.281  13.786 -0.1454  0.4605 -0.2407
14918OCT     C229836  10.803   6.297  13.507  0.1724  0.5060  0.0197
14919OCT     C129837   6.444  10.087   7.596 -0.5935 -0.0850  0.3871
14919OCT     C229838   6.782  10.386   7.462  0.2491  0.1175  0.2466
14920OCT     C129839  17.777  10.278  17.710 -0.2288  0.1467 -0.0841
14920OCT     C229840  18.014  10.591  18.016 -0.3678 -0.2456 -0.0105
14921OCT     C129841  17.173  23.232  11.334 -0.0845  0.0268  0.0098
14921OCT     C229842  17.107  23.642  11.499  0.1717  0.1214 -0.1983
14922OCT     C129843  14.382   0.997  14.079  0.2374  0.1241  0.3333
14922OCT     C229844  14.549   1.136  14.495  0.0131  0.1182 -0.0640
14923OCT     C129845  12.479   0.992  16.176 -0.0979 -0.0302  0.0113
14923OCT     C229846  12.729   1.392  16.268 -0.0195  0.3590  0.1192
14924OCT     C129847   9.738  11.657  10.234 -0.1387 -0.1735  0.0611
14924OCT     C229848   9.313  11.727  10.067  0.4005  0.3465 -0.2327
14925OCT     C129849   0.190   0.712  17.686 -0.1058  0.1162  0.2893
14925OCT     C229850   0.313   0.474  17.365  0.1887 -0.3136  0.1093
14926OCT     C129851  16.669   2.044  16.035 -0.3298  0.1207  0.0533
14926OCT     C229852  16.205   2.022  16.011 -0.0429 -0.2651 -0.0765
14927OCT     C129853  21.092   7.103   8.391  0.1781 -0.1350  0.0923
14927OCT     C229854  21.272   6.804   8.680 -0.3406  0.1711 -0.0080
14928OCT     C129855  22.822   3.097   7.224 -0.0246  0.3639  0.1315
14928OCT     C229856  22.365   3.267   7.306 -0.0922  0.0582  0.0434
14929OCT     C129857  17.996  18.590  22.697  0.0085 -0.1667  0.1443
14929OCT     C229858  17.730  18.775  22.403  0.2272 -0.2274 -0.2050
14930OCT     C129859   9.237   8.053  23.346  0.0352 -0.0371 -0.0687
14930OCT     C229860   9.174   8.174  22.903 -0.0773 -0.0580 -0.4293
14931OCT     C129861  15.697  21.555  13.906  0.0983  0.2620 -0.2609
14931OCT     C229862  15.243  21.574  13.796  0.0538 -0.1308  0.3446
14932OCT     C129863  14.056  16.885   5.603  0.0864 -0.0036 -0.1692
14932OCT     C229864  13.701  16.997   5.840 -0.0560  0.0425  0.0249
14933OCT     C129865   1.552  16.416  13.817  0.2036 -0.4906  0.0874
14933OCT     C229866   1.238  16.344  13.505 -0.0083 -0.2029  0.2992
14934OCT     C129867   9.104  13.320   8.694  0.0872 -0.0594 -0.1322
14934OCT     C229868   9.290  12.972   9.006  0.1533  0.0406 -0.0927
14935OCT     C129869   4.778   9.675  10.785 -0.0731  0.2608  0.0197
14935OCT     C229870   4.493  10.023  10.607  0.1443 -0.0318 -0.2464
14936OCT     C129871  23.545   4.667  18.841  0.1304  0.2193  0.0362
14936OCT     C229872  23.229   4.561  18.520 -0.1679 -0.1102  0.2043
14937OCT     C129873   9.620  16.942  22.517 -0.4011 -0.1443 -0.1685
14937OCT     C229874   9.271  16.574  22.541  0.0741 -0.3387  0.3265
14938OCT     C129875   4.537   4.104  15.054  0.3329  0.1021  0.0373
14938OCT     C229876   4.647   4.490  15.017 -0.0944 -0.2900  0.0263
14939OCT     C129877  11.131   7.020  21.820  0.2721 -0.0083  0.2752
14939OCT     C229878  11.023   7.433  21.964 -0.0242  0.1510  0.3588
14940OCT     C129879   3.020  22.420  21.997  0.0829  0.1746 -0.2271
14940OCT     C229880   3.271  22.756  21.716 -0.1182  0.0487  0.1050
14941OCT     C129881   2.485  14.202  23.329 -0.1893 -0.1275 -0.4269
14941OCT     C229882   2.224  13.953  23.058 -0.0322  0.2009 -0.2996
14942OCT     C129883   1.619  13.612  18.830 -0.2198 -0.2270 -0.1887
14942OCT     C229884   1.179  13.759  19.064 -0.1086 -0.0737 -0.3323
14943OCT     C129885  20.245   4.339  12.673  0.1646  0.2747 -0.0595
14943OCT     C229886  20.284   4.207  13.134 -0.3018  0.2855 -0.3335
14944OCT     C129887   3.028  13.677  18.859  0.0114  0.2354 -0.0728
14944OCT     C229888   3.210  13.941  18.543 -0.1740  0.0152  0.0894
14945OCT     C129889   2.640   6.665  11.542  0.1612 -0.0847 -0.1024
14945OCT     C229890   2.789   6.732  11.091 -0.1415  0.0704  0.2811
14946OCT     C129891  22.386  18.155  10.103  0.2783  0.0104 -0.1644
14946OCT     C229892  22.494  18.444   9.809 -0.2472  0.4833 -0.1360
14947OCT     C129893   0.763  23.475  16.017  0.3101 -0.0394 -0.0725
14947OCT     C229894   1.034  23.553  15.679 -0.1813  0.2548  0.0636
14948OCT     C129895  13.628  10.973   4.231 -0.0269 -0.1015  0.0686
14948OCT     C229896  13.577  10.555   4.018  0.2623  0.1770 -0.1285
14949OCT     C129897   6.616  15.956   9.734 -0.0962  0.2324  0.1024
14949OCT     C229898   6.777  15.499   9.748  0.1057  0.3249 -0.0914
14950OCT     C129899  12.400  19.736  15.926  0.2794  0.0297 -0.0151
14950OCT     C229900  12.443  19.636  16.342  0.2648  0.1287  0.0097
14951OCT     C129901   2.066   2.444  20.481  0.0992 -0.0169 -0.1233
14951OCT     C229902   1.861   2.384  20.049  0.2174  0.2983 -0.2163
14952OCT     C129903  17.865  13.079   7.574 -0.1125  0.1360 -0.1613
14952OCT     C229904  18.192  13.400   7.769  0.3822 -0.3039 -0.2223
14953OCT     C129905   4.177  23.082   7.209 -0.0000  0.0180 -0.1478
14953OCT     C229906   4.237  22.627   7.067 -0.2497 -0.3888 -0.1455
14954OCT     C129907  21.884  16.192  10.133  0.1221 -0.2318  0.0798
14954OCT     C229908  22.253  16.479  10.222  0.3597 -0.0443 -0.1679
14955OCT     C129909  11.818  22.544   8.652  0.2467 -0.1280 -0.1081
14955OCT     C229910  12.156  22.259   8.847  0.1070  0.0440 -0.3101
14956OCT     C129911  13.570   0.778  13.350  0.1319  0.0864  0.2186
14956OCT     C229912  13.774   1.202  13.324 -0.1507 -0.2802 -0.1705
14957OCT     C129913   4.081   6.160   6.660 -0.3745  0.0529  0.1056
14957OCT     C229914   4.298   6.255   6.982  0.1151 -0.2621 -0.1672
14958OCT     C129915  23.473   4.065  17.090  0.1748 -0.3573  0.0993
14958OCT     C229916   0.132   4.247  16.944 -0.1785  0.1627  0.1948
14959OCT     C129917   6.100  15.549  14.329  0.2574  0.0414  0.3292
14959OCT     C229918   6.241  15.711  13.869 -0.0596  0.0369  0.0861
14960OCT     C129919  21.240   3.065  16.374 -0.0731  0.1530 -0.0530
14960OCT     C229920  20.960   3.317  16.652  0.2122 -0.0950 -0.0846
14961OCT     C129921  18.678  12.088  13.569 -0.2394 -0.4474 -0.0288
14961OCT     C229922  18.231  11.945  13.690  0.1245 -0.0162 -0.4607
14962OCT     C129923  17.668  16.149   7.487  0.1000 -0.1791 -0.2816
14962OCT     C229924  18.001  16.304   7.727 -0.2166 -0.1046  0.1326
14963OCT     C129925   4.159  15.283   5.493 -0.0596 -0.0448 -0.1406
14963OCT     C229926   3.978  15.705   5.412  0.2492 -0.1684  0.1446
14964OCT     C129927   9.007   3.647  12.885 -0.2815  0.0991 -0.0574
14964OCT     C229928   8.768   3.476  13.269  0.1388 -0.0508  0.2326
14965OCT     C129929  10.641  22.290  11.263  0.1408  0.1528 -0.1809
14965OCT     C229930  10.720  22.682  11.455 -0.2618 -0.0296  0.0675
14966OCT     C129931  19.669  17.476   7.514 -0.1149 -0.4226  0.0081
14966OCT     C229932  19.403  17.146   7.648 -0.0237  0.0354 -0.3435
14967OCT     C129933  14.421   5.689  18.568  0.0323  0.2115 -0.1432
14967OCT     C229934  14.182   5.331  18.619 -0.2901  0.2812 -0.4740
14968OCT     C129935   7.938   3.641  15.533 -0.2985  0.2551 -0.1871
14968OCT     C229936   8.315   3.414  15.346  0.4229 -0.0284  0.0313
14969OCT     C129937  21.835   3.454  14.843  0.0180 -0.1188 -0.1143
14969OCT     C229938  22.026   3.251  15.236  0.1462  0.0658 -0.0775
14970OCT     C129939   4.000   9.057  18.658  0.1459  0.3133 -0.1273
14970OCT     C229940   3.725   8.688  18.390 -0.1340 -0.1985 -0.4467
14971OCT     C129941   1.790   1.532   4.962 -0.0625  0.1657 -0.1767
14971OCT     C229942   1.930   1.964   5.054  0.6063  0.2131  0.1952
14972OCT     C129943  10.045  17.016  14.499 -0.1452 -0.1457  0.2528
14972OCT     C229944   9.879  16.844  14.855 -0.1146  0.2098 -0.1428
14973OCT     C129945   7.438  14.445   1.714  0.1963  0.0196 -0.1619
14973OCT     C229946   7.805  14.299   1.441  0.2251 -0.2047  0.1382
14974OCT     C129947  18.230  17.418   3.557 -0.0813 -0.0929 -0.0957
14974OCT     C229948  17.995  17.742   3.268 -0.0710  0.1120 -0.0664
14975OCT     C129949  11.427  18.174  10.188 -0.3931  0.0120  0.2229
14975OCT     C229950  11.280  17.761  10.083  0.2594  0.5934 -0.1754
14976OCT     C129951  23.068  21.473   4.106 -0.0176 -0.5005  0.2819
14976OCT     C229952  23.233  21.546   4.556 -0.1553  0.1414 -0.5190
14977OCT     C129953   1.738  16.913   7.045  0.2792  0.0507  0.0824
14977OCT     C229954   1.660  17.275   6.799  0.1132  0.1705 -0.2345
14978OCT     C129955   8.718  11.339   1.039  0.1786  0.2209 -0.0720
14978OCT     C229956   9.012  11.619   0.935 -0.2327  0.1058 -0.1517
14979OCT     C129957  14.265  18.186  19.182  0.2164 -0.0147 -0.2531
14979OCT     C229958  14.004  18.009  18.862  0.4286 -0.1873  0.0012
14980OCT     C129959   3.208   7.768   5.055 -0.0014 -0.0873 -0.2892
14980OCT     C229960   3.145   7.432   5.386 -0.0368 -0.0626  0.0948
14981OCT     C129961   4.963  11.281  13.376  0.0549  0.0544 -0.1404
14981OCT     C229962   5.147  11.534  13.760  0.0252 -0.1709 -0.3224
14982OCT     C129963   0.383  23.278  22.522 -0.1256 -0.1086  0.4167
14982OCT     C229964   0.163  22.935  22.619 -0.0626  0.1200 -0.0577
14983OCT     C129965  14.695   5.486  22.206  0.1975 -0.4777 -0.0264
14983OCT     C229966  15.145   5.484  22.346 -0.2242 -0.0608 -0.0274
14984OCT     C129967   1.646  20.643  14.879  0.3629  0.1562 -0.1458
14984OCT     C229968   1.386  20.995  14.675  0.1592  0.1781 -0.1458
14985OCT     C129969  18.365  22.168  15.140 -0.1320  0.1371 -0.2700
14985OCT     C229970  17.903  22.203  15.250  0.2563  0.1482  0.2652
14986OCT     C129971  13.120   5.129  14.895  0.0306  0.5388  0.0202
14986OCT     C229972  13.430   5.541  14.981  0.0534 -0.1125 -0.2149
14987OCT     C129973  21.659   0.242   9.624 -0.0955  0.2573  0.2179
14987OCT     C229974  21.472   0.658   9.877  0.2800  0.3355  0.3245
14988OCT     C129975   9.262  11.925  17.771 -0.1488  0.2573  0.1733
14988OCT     C229976   9.604  12.107  18.032 -0.1421 -0.0580 -0.2916
14989OCT     C129977   3.001  20.025  23.237  0.0905  0.2711  0.0880
14989OCT     C229978   3.391  19.995  23.427  0.0801  0.2804  0.0583
14990OCT     C129979  16.845   4.848   9.880 -0.2357 -0.0241 -0.3186
14990OCT     C229980  17.240   4.653   9.979 -0.0494  0.2911 -0.1919
14991OCT     C129981   9.353  10.100   7.903  0.1694 -0.0973  0.1133
14991OCT     C229982   8.977  10.308   7.663  0.2688  0.0223 -0.3154
14992OCT     C129983   2.093   5.417  22.329  0.1555  0.1956  0.0420
14992OCT     C229984   2.271   5.355  22.738 -0.1690  0.0524 -0.0339
14993OCT     C129985  20.292   1.290  15.454 -0.3813  0.0625 -0.0443
14993OCT     C229986  20.317   0.880  15.663  0.1241 -0.1310  0.1802
14994OCT     C129987   7.121   8.926  19.579 -0.1311 -0.3178  0.5513
14994OCT     C229988   7.223   9.347  19.484  0.0171  0.1362 -0.1636
14995OCT     C129989   7.978   7.884   0.311  0.1755  0.0764 -0.1487
14995OCT     C229990   7.723   7.479   0.295  0.1139 -0.0973  0.6875
14996OCT     C129991  23.487  22.875   8.482  0.0312 -0.0125  0.1074
14996OCT     C229992  23.312  22.435   8.578 -0.1466  0.2025 -0.0777
14997OCT     C129993   9.055  16.938   5.242  0.0685 -0.2285  0.0090
14997OCT     C229994   9.355  16.994   4.853  0.3523 -0.2155  0.1187
14998OCT     C129995  12.177  10.288  15.444  0.1807 -0.1874 -0.2053
14998OCT     C229996  11.907  10.056  15.841  0.0193  0.2484 -0.1979
14999OCT     C129997  21.566  11.498   4.931  0.1208  0.0157  0.1032
14999OCT     C229998  21.302  11.708   4.699 -0.2789 -0.2631 -0.3504
15000OCT     C129999  18.179  15.111  18.781 -0.1753  0.0729 -0.1767
15000OCT     C230000  18.505  14.922  18.482  0.2027 -0.0501 -0.0048
15001OCT     C130001   1.559  20.646  18.220  0.0515 -0.1574  0.1020
15001OCT     C230002   1.467  20.889  17.921  0.2648 -0.4899  0.0694
15002OCT     C130003   4.745  15.681  10.556  0.0242 -0.1152 -0.0993
15002OCT     C230004   4.347  15.518  10.313 -0.0289 -0.0798 -0.4186
15003OCT     C130005  13.252  11.573   4.745  0.1296 -0.0232  0.0385
15003OCT     C230006  12.967  11.491   5.102  0.4188  0.1763 -0.2265
15004OCT     C130007   3.693   1.970  10.231 -0.3761  0.1261  0.1274
15004OCT     C230008   3.570   2.054  10.702 -0.0828 -0.0069 -0.3379
15005OCT     C130009  11.592  16.661  10.595 -0.0247  0.2468 -0.3738
15005OCT     C230010  11.135  16.455  10.523  0.5526  0.0678  0.2005
15006OCT     C130011   3.640  15.526  16.960  0.0174  0.3058  0.0606
15006OCT     C230012   3.706  15.335  17.397 -0.4450 -0.2020 -0.0081
15007OCT     C130013  15.244  23.345   2.667  0.1931 -0.0967 -0.0211
15007OCT     C230014  15.069   0.038   2.598 -0.2016  0.2214  0.1042
15008OCT     C130015  21.633   4.038  17.277 -0.1647  0.0639 -0.0396
15008OCT     C230016  21.803   3.769  17.655  0.0485 -0.1408 -0.0250
15009OCT     C130017  19.159  14.032   0.888  0.2412 -0.0764  0.0604
15009OCT     C230018  18.738  13.849   1.020 -0.0201 -0.1172 -0.0050
15010OCT     C130019   2.920   3.985   0.494  0.0748 -0.2090  0.1351
15010OCT     C230020   2.830   4.333   0.316 -0.2214  0.0142  0.3458
15011OCT     C130021  12.567   1.992  15.052 -0.2173  0.0340  0.4448
15011OCT     C230022  12.466   2.422  14.840 -0.1061 -0.0621  0.0801
15012OCT     C130023  13.521   7.466  20.037 -0.0405  0.2430  0.2376
15012OCT     C230024  14.007   7.584  19.980 -0.1144  0.0502 -0.1107
15013OCT     C130025  19.749   4.042  17.228 -0.1053  0.3227  0.1178
15013OCT     C230026  19.580   4.255  17.586  0.3399  0.0321 -0.1329
15014OCT     C130027   5.705   0.825   6.904 -0.1389 -0.0414 -0.0275
15014OCT     C230028   5.623   0.401   7.139  0.2226 -0.0905 -0.0943
15015OCT     C130029  14.124   0.263   2.908  0.1846  0.1524  0.1453
15015OCT     C230030  13.872   0.040   2.631 -0.0337 -0.1744  0.0772
15016OCT     C130031  23.546   8.020  11.442 -0.0740 -0.0208 -0.3058
15016OCT     C230032  23.299   7.698  11.223 -0.0519 -0.0312  0.1736
15017OCT     C130033  21.237  22.056  21.722  0.0963  0.1293  0.2444
15017OCT     C230034  20.833  21.816  21.914 -0.3350 -0.1292  0.4308
15018OCT     C130035  10.938  18.558  11.948 -0.1043 -0.0309 -0.1591
15018OCT     C230036  10.658  18.232  11.794  0.0449 -0.2306  0.2978
15019OCT     C130037   5.127   3.903  17.650  0.1924  0.0776 -0.3022
15019OCT     C230038   5.382   4.257  17.432 -0.0765  0.1879 -0.1017
15020OCT     C130039  15.840  10.126  22.545  0.0670  0.0184 -0.1391
15020OCT     C230040  15.511  10.231  22.213 -0.0966  0.0026  0.0145
15021OCT     C130041   3.351   2.441   2.644 -0.0712 -0.3836  0.0230
15021OCT     C230042   3.332   2.839   2.352 -0.2136 -0.4459  0.1195
15022OCT     C130043  10.685   6.982  20.173  0.4259 -0.0394 -0.0137
15022OCT     C230044  10.576   7.145  19.697  0.0485  0.0364  0.0443
15023OCT     C130045  16.335   1.716   8.900  0.1765 -0.0897 -0.1847
15023OCT     C230046  15.904   1.668   8.869  0.4502  0.1059 -0.1273
15024OCT     C130047   2.968  18.453  19.416  0.0765  0.1084  0.0720
15024OCT     C230048   3.130  18.838  19.210  0.0818 -0.0042  0.0745
15025OCT     C130049  21.290  14.755  23.053  0.1733 -0.3314 -0.2176
15025OCT     C230050  20.840  14.781  23.109 -0.0005 -0.0281  0.1188
15026OCT     C130051   9.104   3.128   8.031  0.3723 -0.0277 -0.1905
15026OCT     C230052   9.131   3.467   8.355 -0.4503 -0.0182  0.0493
15027OCT     C130053  19.608   4.838   4.241 -0.0740  0.3073 -0.0524
15027OCT     C230054  19.468   4.880   3.791 -0.2470 -0.0371 -0.0360
15028OCT     C130055  15.782  18.329   6.868 -0.0125  0.1876 -0.0036
15028OCT     C230056  16.209  18.134   6.769  0.1694 -0.4287 -0.1521
15029OCT     C130057   2.361   2.510  18.353 -0.3463  0.0418 -0.4321
15029OCT     C230058   2.809   2.348  18.415 -0.1142  0.0172  0.3059
15030OCT     C130059   5.371   9.648   5.622  0.0398 -0.0161  0.0309
15030OCT     C230060   5.001   9.457   5.861 -0.1629 -0.3820  0.1147
15031OCT     C130061   7.556   5.030  12.772 -0.0634  0.4095  0.1107
15031OCT     C230062   7.952   4.844  12.875 -0.0284 -0.0337  0.2074
15032OCT     C130063  23.118   6.286  12.562 -0.0239 -0.2299  0.1538
15032OCT     C230064  23.258   5.834  12.646 -0.2117 -0.0990  0.3340
15033OCT     C130065  14.940  17.801  10.801  0.0701  0.0605  0.0916
15033OCT     C230066  15.280  17.924  10.446  0.1434 -0.0744 -0.1566
15034OCT     C130067  14.199  23.736  12.437  0.0473 -0.1976 -0.1971
15034OCT     C230068  14.587   0.291  12.466  0.1681  0.1728 -0.0275
15035OCT     C130069  11.292  16.922   9.634  0.1531 -0.2661  0.2425
15035OCT     C230070  11.704  17.013   9.563  0.0153 -0.1547 -0.2922
15036OCT     C130071  16.545  18.059  10.317  0.2782 -0.0590  0.1670
15036OCT     C230072  16.772  18.379  10.318  0.0259 -0.0302 -0.3064
15037OCT     C130073   9.735  21.002   6.553  0.1216  0.0039 -0.1654
15037OCT     C230074   9.512  21.365   6.457 -0.0926 -0.0501 -0.3650
15038OCT     C130075  16.448  15.531   6.275 -0.3585  0.0491 -0.1989
15038OCT     C230076  16.481  15.059   6.283  0.1995 -0.1447  0.0838
15039OCT     C130077   4.815   9.902   7.612  0.5627  0.2119  0.1429
15039OCT     C230078   5.101   9.873   7.965  0.1389  0.1270 -0.0553
15040OCT     C130079   3.187   3.553  12.026 -0.0623 -0.3255 -0.0954
15040OCT     C230080   2.791   3.364  12.025 -0.0237  0.1794 -0.0305
15041OCT     C130081   7.087  16.838  11.065  0.0200 -0.0267 -0.1715
15041OCT     C230082   7.380  17.208  11.177 -0.0813  0.1038 -0.0241
15042OCT     C130083   0.953  22.739  13.113  0.1036 -0.1267  0.2794
15042OCT     C230084   0.986  23.120  12.821  0.1957  0.2923 -0.0278
15043OCT     C130085   4.077   7.673   4.579  0.1090 -0.0903 -0.3223
15043OCT     C230086   3.691   7.369   4.613  0.0118 -0.0716 -0.3618
15044OCT     C130087  11.209   5.958   6.879  0.0252  0.1877  0.1688
15044OCT     C230088  10.799   6.023   6.660  0.0286 -0.1915  0.0443
15045OCT     C130089  14.346  16.072   2.254  0.1394  0.0470  0.0578
15045OCT     C230090  14.789  16.023   2.387 -0.1344  0.2281  0.1161
15046OCT     C130091  17.754   1.924   8.723 -0.2139  0.2712 -0.0086
15046OCT     C230092  17.916   1.590   8.464  0.2713  0.2185 -0.0406
15047OCT     C130093  10.319  11.911  22.870  0.0845 -0.0002 -0.0908
15047OCT     C230094  10.140  12.062  22.514  0.0791 -0.0542 -0.3573
15048OCT     C130095   5.826   4.358   8.204 -0.0253 -0.0404  0.5572
15048OCT     C230096   5.609   4.053   7.873 -0.1310 -0.0057  0.0844
15049OCT     C130097  15.845   3.587  16.527  0.0711  0.0202 -0.1717
15049OCT     C230098  16.280   3.428  16.523  0.2044  0.2695  0.5752
15050OCT     C130099  23.002   2.350  19.015  0.0022 -0.1740 -0.1021
15050OCT     C230100  23.452   2.415  18.879  0.1435  0.1511 -0.1871
15051OCT     C130101  20.648  15.202   6.528  0.0248 -0.1874  0.1696
15051OCT     C230102  20.816  15.149   6.127  0.1887 -0.0999  0.0307
15052OCT     C130103   2.712   9.022   9.723 -0.1777  0.0583 -0.1447
15052OCT     C230104   2.697   8.556   9.687  0.2336 -0.2666  0.0087
15053OCT     C130105  15.857   5.231  18.840 -0.0507 -0.0963  0.2885
15053OCT     C230106  15.704   4.824  18.866  0.0773  0.1857 -0.3045
15054OCT     C130107   2.221  21.940   1.280 -0.3375 -0.0818  0.0283
15054OCT     C230108   2.247  22.159   1.738 -0.0141  0.0954  0.1655
15055OCT     C130109   2.297   9.622  15.444  0.2120 -0.2823 -0.2707
15055OCT     C230110   2.287   9.674  14.944  0.5071 -0.1363 -0.0313
15056OCT     C130111  15.554   3.984   4.247 -0.1232  0.1051  0.0696
15056OCT     C230112  15.264   3.622   4.382 -0.2556 -0.0892  0.1896
15057OCT     C130113   7.368  12.943  17.494 -0.0175  0.2719 -0.0670
15057OCT     C230114   7.255  12.554  17.611 -0.0985  0.6150  0.0734
15058OCT     C130115   5.017   1.610  14.680  0.1795 -0.1617  0.4231
15058OCT     C230116   5.209   1.412  15.023 -0.3532 -0.4558  0.3077
15059OCT     C130117   7.579   9.514   7.658  0.3301  0.1055  0.1931
15059OCT     C230118   8.040   9.576   7.608  0.3212  0.3180  0.2685
15060OCT     C130119  23.215   8.092  13.736 -0.1049 -0.2414 -0.0692
15060OCT     C230120  23.640   8.246  13.924  0.0651  0.2618  0.0951
15061OCT     C130121  19.415   3.605  19.599  0.2569 -0.3370 -0.0177
15061OCT     C230122  19.530   3.755  19.963 -0.2690  0.1751 -0.0576
15062OCT     C130123  22.722  18.462  19.045 -0.0429 -0.1637  0.3361
15062OCT     C230124  22.750  18.901  18.832  0.0211  0.1452 -0.0959
15063OCT     C130125   6.047   4.955  15.483 -0.1617  0.1606 -0.2826
15063OCT     C230126   5.745   4.818  15.858 -0.2455 -0.1383 -0.0390
15064OCT     C130127  18.747  14.821  10.170  0.1282  0.3757  0.0165
15064OCT     C230128  19.033  14.478  10.146 -0.2788 -0.1108  0.1945
15065OCT     C130129   4.127  15.711   2.075 -0.1758 -0.0439 -0.0035
15065OCT     C230130   4.294  15.291   1.861 -0.1806 -0.0136 -0.1171
15066OCT     C130131  23.677   0.835  23.540 -0.0848  0.2077  0.1156
15066OCT     C230132  23.494   0.970   0.191  0.1412 -0.0300  0.1557
15067OCT     C130133  21.644  14.578  16.112 -0.1859  0.0835 -0.2160
15067OCT     C230134  21.763  14.158  15.942  0.5059  0.1141  0.2232
15068OCT     C130135  22.367  10.960   8.030  0.0295 -0.2225  0.0199
15068OCT     C230136  22.664  11.131   8.366 -0.3404  0.1361 -0.2607
15069OCT     C130137  11.590  10.462  13.968 -0.0555  0.2909 -0.1636
15069OCT     C230138  11.511  10.867  13.927 -0.2385 -0.2436  0.2229
15070OCT     C130139   0.394  21.943  20.453  0.1162 -0.3102 -0.3037
15070OCT     C230140   0.468  22.196  20.837  0.3149 -0.4152 -0.3530
15071OCT     C130141   5.793   7.361   4.400  0.3529  0.2332 -0.0880
15071OCT     C230142   5.442   7.075   4.379 -0.3721 -0.1851 -0.2850
15072OCT     C130143   6.518   4.401  13.973  0.1596 -0.3475 -0.1015
15072OCT     C230144   6.813   4.699  13.765 -0.0633 -0.4934 -0.0058
15073OCT     C130145   2.401  15.594   9.841 -0.1416 -0.0841 -0.1471
15073OCT     C230146   2.189  15.975   9.721 -0.0799 -0.0092  0.0186
15074OCT     C130147  16.118  15.523  16.634 -0.1498 -0.1362  0.1198
15074OCT     C230148  15.882  15.591  16.180 -0.2627 -0.0748 -0.3303
15075OCT     C130149  11.132   0.346   3.216 -0.1653 -0.0714 -0.0378
15075OCT     C230150  10.871   0.688   3.385  0.1184  0.0114 -0.1991
15076OCT     C130151   0.615  19.906   3.642 -0.0040  0.1056  0.0236
15076OCT     C230152   0.474  19.475   3.645  0.1986  0.1675 -0.1342
15077OCT     C130153  18.732  14.609  18.174  0.2812  0.0371  0.0632
15077OCT     C230154  18.924  15.017  18.064  0.0095  0.2970 -0.0259
15078OCT     C130155  10.876   8.961  20.478  0.2612  0.0468  0.0888
15078OCT     C230156  11.151   8.669  20.698 -0.0625 -0.0644  0.1359
15079OCT     C130157  12.113  12.706   3.600  0.1202 -0.0719  0.0887
15079OCT     C230158  12.287  13.137   3.507  0.0916  0.0755  0.1948
15080OCT     C130159   0.710   7.385  10.486  0.2462  0.1677  0.3384
15080OCT     C230160   0.815   7.289  10.940 -0.2549 -0.1610 -0.0469
15081OCT     C130161  19.615   6.054  10.807 -0.0638  0.1357  0.1002
15081OCT     C230162  19.877   6.217  11.196  0.0476 -0.0442 -0.0686
15082OCT     C130163   0.041   8.424  17.441 -0.2584  0.7250 -0.1642
15082OCT     C230164  23.624   8.191  17.095 -0.0136  0.5261  0.2812
15083OCT     C130165   4.776  14.819  14.068  0.2394 -0.4175  0.0424
15083OCT     C230166   4.523  14.476  13.916  0.3139 -0.3121  0.1448
15084OCT     C130167  16.837   7.374  18.449 -0.2263 -0.1937  0.0164
15084OCT     C230168  16.884   7.790  18.202  0.3747  0.1126 -0.0301
15085OCT     C130169  19.817  16.078   9.020 -0.0209 -0.4362 -0.0773
15085OCT     C230170  19.842  16.355   9.402  0.2634  0.5235  0.1404
15086OCT     C130171  12.030  18.490  15.146  0.0789  0.0341 -0.1006
15086OCT     C230172  12.404  18.773  14.947  0.0320  0.1383 -0.2367
15087OCT     C130173   3.927  22.317  11.648 -0.3929 -0.1195  0.0352
15087OCT     C230174   4.021  22.021  11.322  0.2263 -0.5000  0.3534
15088OCT     C130175  10.830   5.154   0.060  0.0255  0.4293 -0.4380
15088OCT     C230176  10.481   5.213  23.540  0.1814  0.1789  0.3033
15089OCT     C130177   1.594  20.689   8.771 -0.1040  0.1474 -0.0064
15089OCT     C230178   1.221  20.921   8.650  0.3153  0.2490  0.1364
15090OCT     C130179  15.735  16.827  18.699  0.0509  0.1763  0.1379
15090OCT     C230180  15.351  16.888  18.899  0.1790 -0.1955 -0.2355
15091OCT     C130181  18.800  19.344  19.293 -0.2600 -0.0827  0.3719
15091OCT     C230182  18.874  18.852  19.345  0.0183 -0.2435  0.0289
15092OCT     C130183  10.135  23.063  13.981 -0.0191  0.2185  0.4306
15092OCT     C230184  10.135  23.412  13.649 -0.2613 -0.0489  0.3016
15093OCT     C130185   3.206  21.242  20.414  0.0593  0.4556 -0.1636
15093OCT     C230186   2.928  21.026  20.804 -0.2542 -0.0292  0.2634
15094OCT     C130187  16.207   7.243  14.990 -0.1901 -0.0109 -0.0165
15094OCT     C230188  16.389   7.458  15.360  0.2286  0.1791  0.3132
15095OCT     C130189  17.551  19.982  18.683  0.0655  0.0255 -0.1245
15095OCT     C230190  17.712  19.712  19.049  0.2068  0.2192  0.3529
15096OCT     C130191  14.029   7.782  22.167  0.2276 -0.1900 -0.3006
15096OCT     C230192  14.209   7.586  22.534 -0.2137 -0.0483 -0.2366
15097OCT     C130193   5.030   2.808   2.588 -0.2298 -0.4101 -0.1065
15097OCT     C230194   5.240   2.386   2.386 -0.0285 -0.2423  0.2553
15098OCT     C130195  11.707   5.596   3.186  0.5285  0.1607  0.1205
15098OCT     C230196  11.971   5.409   3.528  0.0063 -0.2264 -0.1206
15099OCT     C130197   4.698  11.226  23.149  0.0095 -0.2942  0.0516
15099OCT     C230198   4.944  11.458  23.477 -0.1047  0.2568 -0.2115
15100OCT     C130199   1.433  11.370  10.998  0.4167  0.0904  0.0831
15100OCT     C230200   1.564  10.941  10.937 -0.1209  0.1254 -0.1144
15101OCT     C130201   0.119  21.015   6.989 -0.2907  0.0852  0.2879
15101OCT     C230202   0.112  21.354   7.317  0.0113  0.1687 -0.1680
15102OCT     C130203  13.512   0.270  23.057 -0.0213  0.1026 -0.0590
15102OCT     C230204  13.759   0.134  22.663  0.1812 -0.4546  0.0005
15103OCT     C130205  10.601  20.991  18.479 -0.0881  0.2753 -0.2586
15103OCT     C230206  10.665  21.466  18.415 -0.1347  0.1185 -0.3538
15104OCT     C130207  23.123   8.944   1.465  0.0083  0.0922 -0.1979
15104OCT     C230208  22.831   9.145   1.746 -0.3907  0.1192 -0.2539
15105OCT     C130209   2.476   2.231  11.830 -0.1546  0.2909 -0.2706
15105OCT     C230210   2.549   1.805  11.643  0.2501  0.0574  0.3518
15106OCT     C130211  21.352   1.463  11.483 -0.4540 -0.3437 -0.2770
15106OCT     C230212  21.055   1.142  11.256  0.0493  0.2228 -0.2507
15107OCT     C130213  19.344   6.005   5.102 -0.0049  0.0679 -0.0288
15107OCT     C230214  19.519   5.962   4.667 -0.2713  0.2832  0.2774
15108OCT     C130215  21.622  21.295   6.083  0.2308 -0.0350  0.1343
15108OCT     C230216  21.641  21.747   6.070 -0.2476  0.2232 -0.1526
15109OCT     C130217  11.723   2.268  20.615  0.0318 -0.0132 -0.2417
15109OCT     C230218  12.074   2.616  20.673 -0.0318  0.2951  0.2315
15110OCT     C130219  14.062  18.500   2.453  0.1303 -0.0153 -0.0266
15110OCT     C230220  13.875  18.204   2.204 -0.1683 -0.0468  0.2111
15111OCT     C130221  19.159  14.376  13.754  0.0786  0.1434  0.2207
15111OCT     C230222  18.930  14.780  13.927 -0.0160  0.0433 -0.1611
15112OCT     C130223   4.188  17.857   5.243  0.2299 -0.0337 -0.0073
15112OCT     C230224   4.024  18.315   5.147 -0.1508 -0.0290  0.2383
15113OCT     C130225   5.351  12.361   9.194  0.2230 -0.5435  0.2489
15113OCT     C230226   5.440  12.785   9.370  0.2227 -0.2035 -0.0386
15114OCT     C130227  15.753   5.518   1.182  0.3913 -0.0808  0.0385
15114OCT     C230228  16.071   5.660   1.542  0.3489  0.3894 -0.5361
15115OCT     C130229  15.179   3.455  10.300  0.0608 -0.0674  0.1573
15115OCT     C230230  15.447   3.831  10.407 -0.0894  0.0442 -0.0469
15116OCT     C130231  10.237   2.470   2.372 -0.0214 -0.2357 -0.1227
15116OCT     C230232  10.415   2.221   1.968 -0.3036  0.4210  0.0268
15117OCT     C130233  10.905  14.355   7.508  0.2836 -0.1527  0.0339
15117OCT     C230234  10.603  14.656   7.748 -0.0731  0.2788  0.5078
15118OCT     C130235  12.733  21.844  17.380  0.2373 -0.5390 -0.1024
15118OCT     C230236  12.438  21.475  17.380 -0.1513  0.0738  0.3562
15119OCT     C130237  19.875  16.501  19.767  0.0652  0.1755  0.5466
15119OCT     C230238  20.067  16.781  20.159 -0.0196 -0.3333  0.1650
15120OCT     C130239  10.848  12.731  20.535  0.4315 -0.1578  0.0081
15120OCT     C230240  10.554  13.115  20.502 -0.0784  0.4581 -0.2110
15121OCT     C130241   7.200   6.072  20.851 -0.2069 -0.1521 -0.4349
15121OCT     C230242   7.052   6.084  20.396  0.3378  0.0614  0.0229
15122OCT     C130243   6.777  14.354   4.667 -0.0443  0.0417  0.0101
15122OCT     C230244   6.290  14.401   4.669 -0.1842  0.0619 -0.3277
15123OCT     C130245   8.826  10.990  14.976 -0.1266  0.2499  0.2158
15123OCT     C230246   8.921  10.540  14.886 -0.5622 -0.1884 -0.1322
15124OCT     C130247  20.148  14.575   8.572 -0.1712  0.0625  0.0471
15124OCT     C230248  20.192  15.007   8.687  0.1434 -0.0609 -0.0144
15125OCT     C130249   1.166  10.895   2.678 -0.0598  0.2098  0.0258
15125OCT     C230250   1.251  11.322   2.728  0.0255 -0.0038  0.0879
15126OCT     C130251  11.656   7.121  23.547  0.3885  0.1623  0.1706
15126OCT     C230252  11.625   6.805  23.182  0.2543 -0.1118  0.0161
15127OCT     C130253   3.500  14.749  15.137 -0.0397 -0.0721 -0.4159
15127OCT     C230254   3.127  14.990  15.282  0.1596 -0.1168 -0.1527
15128OCT     C130255  20.455   3.092  17.095  0.1560  0.1610 -0.0808
15128OCT     C230256  20.582   3.031  16.710 -0.2483 -0.0651 -0.0454
15129OCT     C130257  22.643  17.846   9.432  0.0526 -0.0130  0.0303
15129OCT     C230258  22.193  18.045   9.446 -0.2555 -0.1245  0.0006
15130OCT     C130259  16.882   8.129  20.109 -0.0683 -0.1854 -0.0143
15130OCT     C230260  16.825   8.259  20.614 -0.0854  0.0448 -0.0525
15131OCT     C130261   4.467  10.232   7.709 -0.3327  0.0607 -0.0628
15131OCT     C230262   4.136   9.926   7.556 -0.0696 -0.0237 -0.0542
15132OCT     C130263  11.353  15.567   6.668 -0.0215  0.2469 -0.0021
15132OCT     C230264  11.201  15.828   7.055  0.2451  0.1185 -0.0719
15133OCT     C130265   0.609   0.047  21.808  0.3963 -0.1240  0.2299
15133OCT     C230266   0.948   0.244  21.578 -0.2857 -0.3026  0.1544
15134OCT     C130267  15.413   8.051  16.839 -0.1394  0.4052  0.0015
15134OCT     C230268  15.520   7.590  16.872 -0.0383 -0.0812 -0.0173
15135OCT     C130269   8.553   5.475   7.609  0.2057  0.0649  0.1452
15135OCT     C230270   8.724   5.563   7.211  0.0695 -0.0915 -0.0505
15136OCT     C130271   0.602  21.427  11.646 -0.1432 -0.1990 -0.0371
15136OCT     C230272   0.413  21.842  11.740  0.2406 -0.3501 -0.3963
15137OCT     C130273  10.725  18.129  20.477 -0.0016 -0.2136 -0.2739
15137OCT     C230274  10.731  17.688  20.533 -0.5832  0.1341 -0.2155
15138OCT     C130275   8.053  10.558   4.679  0.0788  0.0566  0.5398
15138OCT     C230276   7.858  11.006   4.625  0.1764 -0.4490  0.1988
15139OCT     C130277  12.795   6.665  21.061  0.0630  0.3718  0.0186
15139OCT     C230278  12.517   6.566  21.446  0.1010 -0.2500  0.2188
15140OCT     C130279  20.106  13.861  11.857 -0.0762  0.3901 -0.0449
15140OCT     C230280  20.427  13.643  11.938 -0.1537  0.0918 -0.0081
15141OCT     C130281  20.720  12.672   9.002 -0.5519  0.1311  0.1409
15141OCT     C230282  20.360  12.863   8.868 -0.1367 -0.1172  0.3886
15142OCT     C130283  11.206   0.208   5.426 -0.2568 -0.5558 -0.0091
15142OCT     C230284  11.521   0.187   5.684 -0.1037  0.3169 -0.0773
15143OCT     C130285   6.551   6.968  15.459 -0.3507 -0.1325  0.3104
15143OCT     C230286   6.200   7.038  15.088  0.4719 -0.2741 -0.1100
15144OCT     C130287  10.218   4.696  10.877 -0.2695 -0.1262  0.1588
15144OCT     C230288   9.756   4.650  10.808  0.3157  0.0236 -0.0719
15145OCT     C130289  21.686  21.454  13.019  0.1800  0.2806  0.2579
15145OCT     C230290  21.341  21.169  12.965 -0.1719  0.1760  0.1661
15146OCT     C130291  15.898   8.043  23.156  0.1622  0.2127  0.1000
15146OCT     C230292  15.813   7.610  23.339  0.1429 -0.1634  0.2462
15147OCT     C130293  13.695   0.586  14.681  0.1951 -0.0760  0.1481
15147OCT     C230294  13.927   0.701  14.263  0.4174 -0.0013 -0.2932
15148OCT     C130295  11.416  23.164   2.774 -0.1367  0.2114 -0.1171
15148OCT     C230296  11.666  23.130   2.373  0.0528  0.0782 -0.1178
15149OCT     C130297  23.674  14.514  22.368  0.3449  0.1263 -0.2564
15149OCT     C230298  23.160  14.483  22.381  0.1670  0.3760 -0.0954
15150OCT     C130299   0.794  15.677   5.868 -0.2564 -0.4607  0.2369
15150OCT     C230300   0.396  15.876   5.716 -0.5187  0.0839 -0.0251
15151OCT     C130301   5.319   1.840   0.125 -0.1371 -0.2626 -0.0524
15151OCT     C230302   5.514   2.325   0.140  0.4770  0.3374  0.2834
15152OCT     C130303  10.756   1.601  14.786 -0.0931 -0.4129 -0.0795
15152OCT     C230304  10.459   1.264  14.671  0.3671  0.1456  0.1970
15153OCT     C130305   2.023   0.147  20.574 -0.0587 -0.0395  0.0283
15153OCT     C230306   2.073   0.655  20.525  0.2725  0.0135 -0.0217
15154OCT     C130307   4.554  21.856  13.881 -0.0028 -0.0464  0.3718
15154OCT     C230308   4.826  21.498  14.114  0.3029 -0.1220 -0.0424
15155OCT     C130309   5.562   9.254   9.526 -0.1252  0.2618 -0.0860
15155OCT     C230310   5.736   9.331   9.982  0.0057  0.1552 -0.2147
15156OCT     C130311  21.276  16.844   2.808  0.2674  0.2740  0.1216
15156OCT     C230312  20.928  16.845   3.170  0.1120  0.1944  0.0260
15157OCT     C130313  18.673  12.207  19.460 -0.2229 -0.3326  0.0564
15157OCT     C230314  18.709  12.608  19.173 -0.1776 -0.1316 -0.2986
15158OCT     C130315   5.786   5.643  22.675  0.3756  0.0054  0.0584
15158OCT     C230316   5.316   5.608  22.730  0.1466  0.0645 -0.3035
15159OCT     C130317  13.774  12.662   3.142  0.0186  0.0884  0.1805
15159OCT     C230318  13.948  12.247   3.329  0.2103  0.2217 -0.1475
15160OCT     C130319   5.050  16.641  15.770  0.4279  0.1465  0.3685
15160OCT     C230320   4.740  16.390  15.705  0.3143  0.0376  0.4560
15161OCT     C130321   4.340  13.118  17.329  0.0522  0.2015 -0.0967
15161OCT     C230322   4.414  13.235  17.755  0.0696  0.2734 -0.2825
15162OCT     C130323   9.901   2.914  19.010  0.0639 -0.0292 -0.0237
15162OCT     C230324  10.169   3.055  18.661 -0.1916 -0.3058  0.1622
15163OCT     C130325   9.903  18.146   1.000  0.2857  0.3601  0.1567
15163OCT     C230326  10.255  17.949   0.838 -0.2705  0.0657 -0.0171
15164OCT     C130327  17.987  16.065   3.606  0.0074 -0.4112 -0.1170
15164OCT     C230328  17.570  15.907   3.686  0.4794 -0.1078 -0.3472
15165OCT     C130329  14.129  18.397  11.272 -0.3058  0.1698  0.1886
15165OCT     C230330  13.691  18.669  11.285 -0.3803  0.0919 -0.3160
15166OCT     C130331   4.587  21.109   9.789 -0.1156 -0.0996  0.0360
15166OCT     C230332   4.210  20.857   9.844 -0.1909  0.5251 -0.0144
15167OCT     C130333  18.433  13.580   9.863  0.1132 -0.4087  0.0038
15167OCT     C230334  18.141  13.979  10.125 -0.1495 -0.1467 -0.1505
15168OCT     C130335   2.394   8.058  11.007  0.1236 -0.1781 -0.0396
15168OCT     C230336   2.588   8.453  11.103 -0.1883  0.0185  0.1017
15169OCT     C130337  13.322  11.918  16.149 -0.1946  0.2458 -0.4279
15169OCT     C230338  13.155  11.583  15.811  0.2781 -0.2745 -0.0374
15170OCT     C130339   7.313  13.266  14.113 -0.1822  0.0508 -0.0403
15170OCT     C230340   7.200  13.529  14.501 -0.3505 -0.0071  0.0458
15171OCT     C130341   7.628  20.714  17.318  0.0923 -0.3424  0.2210
15171OCT     C230342   7.458  20.682  17.782  0.3848  0.1093  0.4088
15172OCT     C130343   5.550  18.574   6.459 -0.0265  0.0828 -0.0018
15172OCT     C230344   5.567  18.362   6.069 -0.0657 -0.2323  0.0944
15173OCT     C130345   7.302  22.643   7.294 -0.1530 -0.0287  0.1248
15173OCT     C230346   7.587  22.926   7.453  0.2636 -0.1056  0.2212
15174OCT     C130347   9.989  21.154  15.597 -0.1326 -0.0608 -0.0820
15174OCT     C230348  10.322  21.327  15.867  0.0476  0.1028  0.0413
15175OCT     C130349  20.078   1.175  11.018 -0.0284 -0.0548 -0.7519
15175OCT     C230350  19.800   1.382  10.771  0.0929 -0.0956  0.2507
15176OCT     C130351  23.382   2.633  11.675 -0.2614 -0.0778  0.3083
15176OCT     C230352  23.486   3.005  12.004 -0.0074  0.1590 -0.3405
15177OCT     C130353  14.542   9.908   5.435 -0.0981  0.0963  0.4151
15177OCT     C230354  14.317  10.100   5.789 -0.0780 -0.1933 -0.0095
15178OCT     C130355  19.256   2.793   0.583 -0.3696 -0.4819 -0.4311
15178OCT     C230356  19.137   3.039   0.229 -0.3151  0.0893  0.0500
15179OCT     C130357   2.158  12.064  21.718  0.0257  0.2652  0.0796
15179OCT     C230358   2.368  11.681  21.975 -0.0596  0.2165  0.0094
15180OCT     C130359  10.923   5.399  21.994 -0.4543  0.1043  0.1190
15180OCT     C230360  11.172   5.424  21.592 -0.0999  0.3066 -0.0587
15181OCT     C130361   8.269  19.854  11.737  0.0335  0.3533 -0.0206
15181OCT     C230362   8.100  20.292  11.594  0.0410  0.1282  0.1353
15182OCT     C130363   4.840  17.625   8.108  0.0313 -0.3576 -0.2627
15182OCT     C230364   4.678  17.181   8.077 -0.3746 -0.1060 -0.2439
15183OCT     C130365   0.208  21.276   5.896 -0.0257 -0.1511 -0.2212
15183OCT     C230366   0.175  21.655   6.217  0.0343 -0.3285  0.0215
15184OCT     C130367  21.434  17.310  17.219  0.0157  0.0763  0.0645
15184OCT     C230368  21.548  17.271  16.856 -0.1966 -0.1492  0.0816
15185OCT     C130369   6.762  23.306   5.057  0.1362  0.0393 -0.1002
15185OCT     C230370   6.533  23.273   5.407 -0.1551 -0.0167 -0.2285
15186OCT     C130371  18.226   7.156   1.128  0.1534  0.0920  0.0848
15186OCT     C230372  18.335   6.912   1.492 -0.1902 -0.2251 -0.1025
15187OCT     C130373  20.305   7.562   3.299  0.2639  0.1353 -0.2567
15187OCT     C230374  20.456   7.345   3.705 -0.3609  0.1048 -0.0708
15188OCT     C130375  14.547   6.508   4.867  0.5065  0.3048 -0.2395
15188OCT     C230376  14.466   6.056   4.869 -0.0428 -0.1714 -0.1469
15189OCT     C130377   5.194  22.937   0.727  0.2516 -0.1323 -0.0060
15189OCT     C230378   4.694  22.995   0.683  0.2997  0.3576  0.0432
15190OCT     C130379  20.785   1.443   1.387  0.1087 -0.1756 -0.0914
15190OCT     C230380  21.149   1.195   1.422  0.1023  0.1872  0.0077
15191OCT     C130381   3.688   4.729  11.430  0.1540  0.2868 -0.0153
15191OCT     C230382   4.080   4.639  11.577  0.0305  0.0745  0.4525
15192OCT     C130383  11.384  20.040  13.499  0.1795  0.0615  0.2471
15192OCT     C230384  11.610  20.124  13.914  0.1372 -0.2099  0.0160
15193OCT     C130385  17.601  13.446  12.823  0.0253 -0.1179 -0.0327
15193OCT     C230386  17.759  13.807  13.077 -0.1211  0.2664  0.3741
15194OCT     C130387  19.646   7.126   2.608 -0.1685 -0.0022  0.0020
15194OCT     C230388  19.433   7.515   2.554  0.1871  0.0914 -0.2626
15195OCT     C130389   9.394   3.081   1.364 -0.1347 -0.0847  0.4923
15195OCT     C230390   9.593   3.201   1.760  0.0564  0.1660  0.0647
15196OCT     C130391  17.230  12.944   2.489 -0.3944 -0.0008 -0.1815
15196OCT     C230392  17.415  12.496   2.498 -0.2756  0.1718 -0.1974
15197OCT     C130393  14.688  14.154  13.755 -0.3951 -0.0032 -0.1651
15197OCT     C230394  14.993  14.031  13.368 -0.1652  0.2018 -0.1413
15198OCT     C130395  22.890  14.379  13.433 -0.1595 -0.1071 -0.1227
15198OCT     C230396  23.259  14.132  13.425  0.2474 -0.1204 -0.0469
15199OCT     C130397  17.766  17.894  20.001  0.2790 -0.0362  0.2839
15199OCT     C230398  18.049  17.938  19.630  0.5288 -0.1273  0.0096
15200OCT     C130399  21.176   6.547   0.977  0.1102  0.1894 -0.3390
15200OCT     C230400  21.449   6.320   0.690  0.2390 -0.1406  0.1422
15201OCT     C130401  20.333  10.072  22.780 -0.0785 -0.0994 -0.1419
15201OCT     C230402  20.659   9.965  23.091 -0.0513 -0.0276 -0.5921
15202OCT     C130403   0.438   4.846   0.803  0.0602  0.1609  0.0646
15202OCT     C230404   0.129   5.085   0.542 -0.0003 -0.0972  0.1070
15203OCT     C130405   4.692  15.130  10.036  0.1590 -0.1063  0.0415
15203OCT     C230406   4.914  15.524  10.116 -0.0701  0.1627 -0.1316
15204OCT     C130407   4.569  12.126   4.260 -0.0253 -0.2180  0.0508
15204OCT     C230408   4.149  12.065   4.381  0.0288  0.2359 -0.3221
15205OCT     C130409   3.787   1.434  19.161 -0.1954 -0.2085 -0.0004
15205OCT     C230410   3.837   1.447  19.648  0.0686 -0.2580  0.1068
15206OCT     C130411   1.139   0.584  20.383 -0.0668 -0.2700 -0.3718
15206OCT     C230412   1.287   0.199  20.176  0.2508  0.3227 -0.0049
15207OCT     C130413   5.711   0.315  17.406  0.6853 -0.0326 -0.0391
15207OCT     C230414   5.814   0.204  16.974  0.0339 -0.0136  0.6565
15208OCT     C130415   8.937   5.052   5.119  0.2241  0.4166 -0.0244
15208OCT     C230416   9.087   5.477   5.021  0.3315 -0.1299 -0.1723
15209OCT     C130417  22.259  21.705   2.950  0.1889 -0.0528 -0.0146
15209OCT     C230418  22.322  21.501   3.344  0.1321  0.0957  0.2077
15210OCT     C130419   6.094  10.751   6.086  0.0583 -0.1863 -0.1306
15210OCT     C230420   5.757  11.033   5.888 -0.0129 -0.1449  0.1214
15211OCT     C130421   1.855  23.295  12.573  0.0029  0.2442 -0.0963
15211OCT     C230422   1.919  23.575  12.197 -0.3596  0.3772 -0.0374
15212OCT     C130423   9.019   5.963   1.009  0.2431 -0.1676  0.0220
15212OCT     C230424   9.314   6.355   1.078  0.0821 -0.0462  0.1414
15213OCT     C130425  19.647   1.645   9.262  0.2322 -0.2954 -0.2780
15213OCT     C230426  19.469   1.452   9.701  0.2954  0.0264 -0.0717
15214OCT     C130427   4.112  23.253   4.009 -0.0909  0.1141  0.1945
15214OCT     C230428   3.720  23.399   3.837 -0.0910  0.1999 -0.1048
15215OCT     C130429   1.817  11.886  13.195  0.1357 -0.2517 -0.2150
15215OCT     C230430   1.503  11.507  13.326  0.1463  0.2365 -0.2340
15216OCT     C130431  11.330  20.447  19.969 -0.0546  0.2752  0.1056
15216OCT     C230432  11.355  20.546  20.440 -0.2661  0.0274 -0.3682
15217OCT     C130433  11.205   7.060  20.763  0.0545  0.0343 -0.0527
15217OCT     C230434  11.439   6.676  20.655 -0.0140  0.1027 -0.1616
15218OCT     C130435   0.282  21.782   5.556 -0.2008 -0.4474 -0.0270
15218OCT     C230436   0.165  22.055   5.975 -0.1199  0.1364  0.2258
15219OCT     C130437  12.151  23.498  17.701  0.2642 -0.2130  0.1745
15219OCT     C230438  12.274  23.474  18.106  0.0142 -0.1347  0.3142
15220OCT     C130439   1.858  17.002  20.946  0.1723  0.2386 -0.4206
15220OCT     C230440   1.847  17.110  20.507  0.1220  0.0314  0.4021
15221OCT     C130441  23.364   4.612  13.758 -0.2611  0.3854  0.2347
15221OCT     C230442  23.079   4.259  13.800  0.0742 -0.1568 -0.1391
15222OCT     C130443   6.641  12.171   0.057 -0.0005 -0.1518  0.0600
15222OCT     C230444   6.364  12.421   0.368 -0.1330 -0.0847  0.0639
15223OCT     C130445  11.821   8.699  16.155 -0.3468  0.2304 -0.1756
15223OCT     C230446  11.743   8.252  16.049 -0.0920  0.0390  0.0012
15224OCT     C130447  15.904  15.459   7.360  0.3021 -0.0751  0.0225
15224OCT     C230448  16.128  15.103   7.153  0.3424  0.1736 -0.3416
15225OCT     C130449  17.623  15.395  18.570  0.1484  0.0220  0.1287
15225OCT     C230450  17.658  15.782  18.829  0.4393  0.1047  0.0269
15226OCT     C130451  16.301   6.924   6.909 -0.1432  0.4818 -0.0443
15226OCT     C230452  16.663   6.778   7.128 -0.0567  0.3954  0.0905
15227OCT     C130453  14.330  22.153  17.214  0.0930 -0.1549 -0.0117
15227OCT     C230454  14.574  22.104  17.651 -0.0277 -0.0050  0.0342
15228OCT     C130455  10.396  17.001  20.020  0.1302 -0.1039  0.0939
15228OCT     C230456  10.135  16.616  20.167  0.0988 -0.0094  0.1771
15229OCT     C130457  15.600  23.319   1.497  0.0591  0.1001  0.0499
15229OCT     C230458  16.082  23.294   1.444 -0.1219  0.4164  0.2836
15230OCT     C130459  14.415  20.340   2.303  0.1553  0.1191 -0.1173
15230OCT     C230460  14.352  20.125   1.968  0.2266 -0.2541 -0.2791
15231OCT     C130461  19.570  15.934   9.694 -0.2101 -0.1374  0.0804
15231OCT     C230462  19.933  16.211   9.866 -0.0555  0.1998 -0.0974
15232OCT     C130463  19.787   1.027   6.030  0.1513 -0.0506  0.1386
15232OCT     C230464  19.673   1.048   6.477  0.0457 -0.1715 -0.1046
15233OCT     C130465  16.765  15.254   7.943 -0.0634 -0.3305 -0.1684
15233OCT     C230466  16.460  14.964   8.078  0.1626  0.2033 -0.4779
15234OCT     C130467   2.534   5.497  16.557  0.2692 -0.0824  0.3512
15234OCT     C230468   2.125   5.697  16.511  0.0617  0.3089 -0.0633
15235OCT     C130469   3.643   9.186  11.260  0.2492  0.0946  0.0586
15235OCT     C230470   3.404   8.775  11.172 -0.0958 -0.0337 -0.1725
15236OCT     C130471  19.746   3.212   9.504 -0.2085 -0.3194 -0.0057
15236OCT     C230472  19.934   3.615   9.583 -0.2941  0.4214  0.2775
15237OCT     C130473   2.835   6.047   5.865  0.0205 -0.2374 -0.0444
15237OCT     C230474   2.472   6.164   6.205  0.1852 -0.1500  0.1277
15238OCT     C130475   5.674   4.085   9.545 -0.0537  0.2397 -0.0847
15238OCT     C230476   5.814   3.946   9.949 -0.0089  0.0201  0.0579
15239OCT     C130477   9.399   4.018   1.433  0.2090  0.1519 -0.3227
15239OCT     C230478   9.222   3.632   1.755 -0.1617 -0.0432  0.0071
15240OCT     C130479   2.350  11.633  11.019 -0.0279 -0.3474  0.0054
15240OCT     C230480   2.148  11.390  11.355  0.0726 -0.0508  0.0901
15241OCT     C130481  12.190  14.116   7.035  0.2115  0.1717 -0.2007
15241OCT     C230482  12.211  13.623   7.198  0.1347  0.3347  0.1880
15242OCT     C130483  19.651  16.722   9.746 -0.3093  0.1083  0.2699
15242OCT     C230484  19.408  17.052   9.557 -0.0847 -0.1660  0.0076
15243OCT     C130485   3.558   1.799  17.420  0.1036  0.2141  0.2232
15243OCT     C230486   3.841   1.393  17.379  0.0028 -0.1054 -0.2237
15244OCT     C130487   6.931   8.968  18.527  0.0250 -0.2436  0.1444
15244OCT     C230488   7.317   8.872  18.259 -0.2890  0.0057 -0.1070
15245OCT     C130489  13.062  20.596   2.271  0.1880 -0.0364  0.0635
15245OCT     C230490  13.304  20.193   2.234  0.0063 -0.0675  0.0539
15246OCT     C130491   3.721   5.797  11.673 -0.3277 -0.0634  0.2288
15246OCT     C230492   4.091   5.828  11.408 -0.1799  0.0537 -0.2468
15247OCT     C130493   3.448  21.942   7.017 -0.7392 -0.0791 -0.2292
15247OCT     C230494   3.035  21.742   7.006  0.1126 -0.1270 -0.2461
15248OCT     C130495   3.043  15.461  19.178 -0.2309  0.2136  0.2457
15248OCT     C230496   3.086  15.130  18.804 -0.1767  0.2116 -0.0375
15249OCT     C130497  16.685   0.915   4.704 -0.0335  0.1119 -0.1835
15249OCT     C230498  16.383   0.984   5.088  0.0974  0.2608 -0.0596
15250OCT     C130499  12.982  21.695  21.468 -0.1480  0.0242  0.2528
15250OCT     C230500  12.741  22.057  21.497  0.0288  0.0083  0.2700
15251OCT     C130501  12.744  19.836  15.569 -0.6047  0.2101 -0.0277
15251OCT     C230502  13.033  19.617  15.828  0.1784  0.0114 -0.3009
15252OCT     C130503  18.697  10.590  13.115 -0.1087 -0.1082  0.0895
15252OCT     C230504  18.300  10.498  13.267  0.0336  0.1844 -0.2021
15253OCT     C130505  19.675   4.362  10.912 -0.0642 -0.1295  0.3855
15253OCT     C230506  19.670   4.234  11.338  0.2791  0.1053  0.1234
15254OCT     C130507  17.407   4.983  11.666 -0.2097  0.1183  0.2431
15254OCT     C230508  17.418   5.415  11.935 -0.1930 -0.0280  0.1131
15255OCT     C130509   1.440   6.760   7.087  0.1621 -0.1551  0.0436
15255OCT     C230510   1.098   6.476   7.279 -0.2186  0.0830  0.0084
15256OCT     C130511   9.167   3.080   2.233  0.1480 -0.2036 -0.1969
15256OCT     C230512   8.914   3.300   2.549  0.0504 -0.0573 -0.1488
15257OCT     C130513  16.320  17.284  21.987 -0.0029 -0.3734  0.3418
15257OCT     C230514  16.474  16.883  21.812  0.0689  0.1956 -0.0110
15258OCT     C130515  10.233   8.612   3.717  0.1441  0.1155  0.2041
15258OCT     C230516   9.850   8.359   3.722 -0.0168 -0.1216  0.1709
15259OCT     C130517  22.638   9.677  17.785 -0.0517  0.1491  0.0755
15259OCT     C230518  22.492   9.554  17.330 -0.0299  0.3005 -0.0021
15260OCT     C130519   6.801  19.857   2.444  0.3068  0.1408 -0.1379
15260OCT     C230520   6.599  19.784   2.888  0.1593  0.1110  0.1515
15261OCT     C130521   0.172  22.940  14.911  0.2634  0.2160  0.2805
15261OCT     C230522   0.011  23.314  14.699  0.0221  0.0993  0.3876
15262OCT     C130523  11.481   1.163   4.883 -0.1260 -0.1617  0.0588
15262OCT     C230524  11.655   1.143   4.444  0.3181 -0.2943 -0.0582
15263OCT     C130525  14.441  21.742  20.773 -0.1415  0.0207  0.3046
15263OCT     C230526  14.719  22.111  20.751 -0.0563 -0.1512 -0.2440
15264OCT     C130527  19.877  10.875   3.153 -0.1166  0.3300  0.0672
15264OCT     C230528  20.031  11.078   2.737 -0.0660  0.0371 -0.0015
15265OCT     C130529   1.862   0.036   0.579  0.1504  0.1068  0.1357
15265OCT     C230530   2.144   0.287   0.222  0.0765  0.4942  0.5705
15266OCT     C130531  14.884   4.005  14.777 -0.4414  0.1260  0.2060
15266OCT     C230532  15.161   3.670  14.595 -0.1126  0.2157 -0.0964
15267OCT     C130533   0.105   3.607  13.667 -0.0376  0.0794 -0.1300
15267OCT     C230534  23.602   3.959  13.735  0.1516  0.0140  0.1988
15268OCT     C130535  19.821   1.047   3.301  0.1277 -0.1043  0.0763
15268OCT     C230536  19.359   1.092   3.154 -0.0068 -0.3376 -0.1363
15269OCT     C130537  10.558   9.986  11.012 -0.4855  0.1132  0.1355
15269OCT     C230538  10.479  10.445  10.881  0.2469  0.0488  0.2170
15270OCT     C130539  15.977  11.960  11.711 -0.2864 -0.1434  0.1770
15270OCT     C230540  15.993  12.233  12.084 -0.0075  0.0912  0.0608
15271OCT     C130541  20.628   3.582   4.691  0.3857  0.1823 -0.0394
15271OCT     C230542  20.509   3.264   4.935  0.0177 -0.1776  0.3188
15272OCT     C130543  20.650   7.138  21.830 -0.4396  0.2531 -0.2045
15272OCT     C230544  20.902   7.241  22.208 -0.2237 -0.2096  0.0183
15273OCT     C130545  15.464   3.868   6.499 -0.0397  0.0356 -0.0628
15273OCT     C230546  15.246   3.483   6.525  0.1498 -0.1551  0.4665
15274OCT     C130547  13.885   6.134  19.643 -0.0481 -0.0511 -0.1753
15274OCT     C230548  14.033   6.504  19.874 -0.1638  0.0149  0.1448
15275OCT     C130549   2.275  11.995  12.921 -0.4311 -0.2320  0.0607
15275OCT     C230550   1.885  12.278  12.773  0.3927  0.0017 -0.1772
15276OCT     C130551   3.238   9.627   9.223  0.1874 -0.1416 -0.0966
15276OCT     C230552   2.874   9.419   9.503  0.0084 -0.2129 -0.2835
15277OCT     C130553  18.372  23.360  15.866 -0.4720  0.2048 -0.0194
15277OCT     C230554  18.296  23.616  16.210  0.0242  0.2383  0.2378
15278OCT     C130555  15.937  16.009  23.291  0.2515 -0.2216  0.2126
15278OCT     C230556  16.301  16.133  23.116  0.0068  0.2540  0.0986
15279OCT     C130557   9.903   0.055  22.611 -0.1729 -0.1322  0.1807
15279OCT     C230558   9.558  23.528  22.429 -0.2776  0.3972  0.2616
15280OCT     C130559   0.301  20.662  18.713 -0.0787  0.2025  0.4511
15280OCT     C230560   0.510  21.013  18.935 -0.4072  0.0643 -0.1878
15281OCT     C130561  13.332  10.136   3.164  0.1497  0.0961  0.0659
15281OCT     C230562  13.218  10.573   3.334 -0.1659  0.5022  0.2141
15282OCT     C130563  18.264   4.426  17.922 -0.1171  0.2437  0.0350
15282OCT     C230564  18.660   4.532  17.764 -0.2832  0.0773  0.2452
15283OCT     C130565   8.682  19.343   6.077 -0.1687  0.0393 -0.0656
15283OCT     C230566   8.229  19.378   6.185  0.4298  0.4260 -0.0086
15284OCT     C130567  21.277  18.902   0.257  0.0409  0.1402  0.2870
15284OCT     C230568  20.923  18.620   0.364 -0.0580 -0.1116  0.0921
15285OCT     C130569   5.071  12.813   9.796 -0.4801  0.0269  0.0480
15285OCT     C230570   4.968  13.208   9.575 -0.4328  0.3932  0.0328
15286OCT     C130571   3.029  19.328  21.218  0.1082  0.0643  0.2510
15286OCT     C230572   3.201  19.024  20.861 -0.1235 -0.2490 -0.4634
15287OCT     C130573   5.947   3.259  10.739 -0.2031  0.0811  0.2976
15287OCT     C230574   6.374   3.007  10.719 -0.1356  0.0672 -0.0764
15288OCT     C130575  20.912  17.988   5.728 -0.0496 -0.1374  0.1630
15288OCT     C230576  20.850  18.298   5.388  0.2101  0.2407  0.1725
15289OCT     C130577   6.698   7.074  12.944 -0.0118  0.2776  0.4017
15289OCT     C230578   6.829   6.628  12.730  0.1759 -0.0940  0.2602
15290OCT     C130579   5.176  16.087  19.907 -0.1794  0.3169 -0.1091
15290OCT     C230580   5.084  16.387  20.243  0.1720  0.1259 -0.0002
15291OCT     C130581  10.799  23.556   3.802  0.1828  0.1621 -0.0772
15291OCT     C230582  11.195  23.576   3.513 -0.2787  0.2352 -0.3409
15292OCT     C130583   6.899  13.793  16.144 -0.3171 -0.0858  0.1853
15292OCT     C230584   6.697  14.139  15.965 -0.2298 -0.0402  0.2186
15293OCT     C130585   1.633   4.493  18.386  0.1861  0.0036  0.1938
15293OCT     C230586   1.862   4.582  17.998  0.3356  0.1641  0.2270
15294OCT     C130587  23.697  20.761  22.280  0.0110  0.0807 -0.1861
15294OCT     C230588  23.519  21.156  22.409  0.0006 -0.4926  0.1179
15295OCT     C130589   8.181  10.651  13.506  0.0807  0.0495 -0.1817
15295OCT     C230590   8.177  10.640  13.955  0.1004  0.2465 -0.6094
15296OCT     C130591   8.078  18.144  19.730  0.1321 -0.0634  0.3041
15296OCT     C230592   7.740  17.864  19.810  0.1492 -0.0590 -0.1874
15297OCT     C130593  11.206   0.794  15.097 -0.0347  0.2460  0.0926
15297OCT     C230594  10.985   1.153  14.918 -0.0932 -0.1951  0.2083
15298OCT     C130595  19.385  21.582   9.974 -0.0094 -0.0747 -0.0396
15298OCT     C230596  19.742  21.396   9.700  0.1537  0.3469 -0.2284
15299OCT     C130597   3.697  21.871  11.689  0.2535  0.0652  0.0015
15299OCT     C230598   3.537  22.149  11.388 -0.3308  0.0753  0.5731
15300OCT     C130599   0.996  13.278   4.312 -0.1275 -0.1017  0.1112
15300OCT     C230600   0.575  13.035   4.334  0.2467  0.0019  0.0636
15301OCT     C130601  10.535  16.414  17.476  0.2446  0.0479 -0.2043
15301OCT     C230602  10.144  16.543  17.308 -0.1319  0.4754  0.1826
15302OCT     C130603  20.507  14.358   3.448  0.1532 -0.0589 -0.1670
15302OCT     C230604  20.660  14.406   3.898  0.0855 -0.0323  0.4911
15303OCT     C130605  23.091   9.009  12.786 -0.1263 -0.1683 -0.2409
15303OCT     C230606  23.030   9.391  12.947 -0.2290  0.0049  0.1974
15304OCT     C130607   9.387   0.121   2.044 -0.0920 -0.2793  0.0026
15304OCT     C230608   8.945   0.026   1.966 -0.5014 -0.0551 -0.4608
15305OCT     C130609  19.424  14.940  18.050 -0.2005 -0.0292 -0.2332
15305OCT     C230610  19.317  14.973  17.605 -0.1442  0.1013  0.1920
15306OCT     C130611   4.195   5.951   4.662  0.0713  0.0126 -0.0067
15306OCT     C230612   4.108   5.788   4.259  0.0621 -0.1755 -0.2403
15307OCT     C130613   6.017  17.156   7.310 -0.1698 -0.1086  0.0691
15307OCT     C230614   6.170  16.832   7.016 -0.4627 -0.3323  0.0468
15308OCT     C130615  23.637  13.744  12.662 -0.3653  0.0007  0.0788
15308OCT     C230616  23.291  13.506  12.943  0.3069  0.2722  0.0530
15309OCT     C130617  14.365  18.570   7.969 -0.2659 -0.0784 -0.3272
15309OCT     C230618  14.024  18.769   7.746  0.1825  0.1228  0.0202
15310OCT     C130619   0.322  15.373  22.846 -0.1089 -0.2534 -0.1345
15310OCT     C230620   0.594  15.084  23.116 -0.3417  0.3387 -0.2441
15311OCT     C130621  11.457   1.686  18.791 -0.0552 -0.0222 -0.1362
15311OCT     C230622  11.278   1.756  19.214  0.2412  0.0219  0.3933
15312OCT     C130623   2.340  20.688  19.996  0.0451 -0.2218 -0.0729
15312OCT     C230624   2.343  21.125  19.897 -0.3467  0.0260 -0.1334
15313OCT     C130625   6.749  14.296   5.327 -0.1937 -0.1582 -0.0092
15313OCT     C230626   7.062  14.519   5.580 -0.0332 -0.0076  0.2327
15314OCT     C130627   2.457   3.959   1.300  0.2354 -0.0022 -0.0910
15314OCT     C230628   2.815   3.657   1.164 -0.0962  0.1778  0.1659
15315OCT     C130629   4.481  17.159  11.883 -0.3972 -0.1291 -0.2323
15315OCT     C230630   4.055  17.124  11.880 -0.1829 -0.0670 -0.0690
15316OCT     C130631  17.761  13.730  10.325  0.0528 -0.0839  0.0958
15316OCT     C230632  17.335  13.828  10.169 -0.0717 -0.1744  0.2324
15317OCT     C130633  16.242  20.933   6.800 -0.2675 -0.2676 -0.1535
15317OCT     C230634  16.421  20.779   7.191 -0.0454  0.1628 -0.1866
15318OCT     C130635   4.574  18.608  17.776  0.3086 -0.2618  0.1088
15318OCT     C230636   4.119  18.445  17.804  0.1340 -0.2125  0.1015
15319OCT     C130637   9.109   1.673   1.666  0.1428 -0.2632  0.0188
15319OCT     C230638   9.546   1.711   1.763 -0.0637 -0.3089 -0.0320
15320OCT     C130639   7.759  20.188  10.156  0.1068 -0.0631  0.3469
15320OCT     C230640   7.331  20.475  10.098  0.0157  0.1781 -0.6261
15321OCT     C130641   9.827  13.123   6.171 -0.1927 -0.2040  0.0237
15321OCT     C230642   9.599  12.721   6.376  0.1499  0.0294  0.1382
15322OCT     C130643   5.019   3.755   4.586 -0.0831  0.1359 -0.0099
15322OCT     C230644   4.672   3.818   4.264 -0.2056 -0.1755 -0.0142
15323OCT     C130645   8.440  11.673  14.786 -0.2493  0.4021  0.0776
15323OCT     C230646   8.420  11.625  14.272 -0.0000  0.1427 -0.0612
15324OCT     C130647  16.302   7.981  10.683  0.0596  0.0648  0.1355
15324OCT     C230648  16.160   8.148  11.106  0.2143 -0.5063 -0.1260
15325OCT     C130649  15.471  11.381   2.595  0.0664  0.2605  0.2471
15325OCT     C230650  15.835  11.632   2.705  0.1776 -0.2161  0.0059
15326OCT     C130651   8.787   8.463   1.257 -0.1499 -0.0218 -0.0410
15326OCT     C230652   8.461   8.733   1.558  0.2614  0.0669 -0.1677
15327OCT     C130653  16.503   4.435  21.057  0.0018  0.2354  0.1432
15327OCT     C230654  16.699   4.743  20.825 -0.0336 -0.4081 -0.2234
15328OCT     C130655  21.707   7.072  12.780 -0.0161 -0.1312  0.1465
15328OCT     C230656  22.078   7.371  12.735 -0.0499  0.0299  0.2466
15329OCT     C130657  22.376  14.428  19.287  0.1309  0.1465  0.1521
15329OCT     C230658  22.044  14.149  19.439 -0.0685  0.1822 -0.0197
15330OCT     C130659  14.016  18.771   1.210 -0.5335  0.2177 -0.0627
15330OCT     C230660  13.803  19.133   1.113  0.4009 -0.1712 -0.0065
15331OCT     C130661  12.812   6.406   2.155  0.0576 -0.1206 -0.1878
15331OCT     C230662  12.712   6.036   1.884 -0.3586 -0.2124 -0.0012
15332OCT     C130663  21.420  15.412  22.237  0.2576 -0.2386  0.3506
15332OCT     C230664  21.360  15.464  22.728 -0.0698  0.1140 -0.2192
15333OCT     C130665   0.430   5.119   7.221 -0.6132  0.0887 -0.2413
15333OCT     C230666   0.916   5.072   7.211  0.3850  0.2059  0.0373
15334OCT     C130667  18.208  11.920  18.627  0.2517 -0.3872  0.1944
15334OCT     C230668  17.900  12.234  18.606  0.0466 -0.1048 -0.2123
15335OCT     C130669   4.812   2.169  17.090 -0.0459 -0.3053 -0.0262
15335OCT     C230670   5.204   2.406  16.983 -0.2492 -0.1385  0.2227
15336OCT     C130671   9.399   0.172   2.617  0.2442 -0.1527 -0.1072
15336OCT     C230672   9.747   0.131   2.396 -0.2909 -0.1100  0.0944
15337OCT     C130673  23.389   6.190   4.024  0.0493  0.1047 -0.2500
15337OCT     C230674  22.889   6.142   4.018 -0.0042 -0.3030 -0.1102
15338OCT     C130675  15.501  14.155  20.377  0.2992 -0.0132 -0.3685
15338OCT     C230676  15.875  14.375  20.582 -0.2262  0.0683  0.2477
15339OCT     C130677   8.565  19.182  19.078  0.3649  0.0312 -0.0459
15339OCT     C230678   8.224  19.089  19.365  0.1571  0.0861 -0.0982
15340OCT     C130679  21.536   9.957  13.878  0.2764 -0.0956  0.3076
15340OCT     C230680  21.863   9.930  14.237 -0.0979  0.0867 -0.2012
15341OCT     C130681   2.493  10.286   7.125  0.2782 -0.2649  0.1104
15341OCT     C230682   2.237  10.490   7.448 -0.1507  0.2020 -0.2136
15342OCT     C130683  11.614   6.114  11.656 -0.0329 -0.0873 -0.0782
15342OCT     C230684  11.595   5.980  11.231 -0.0303  0.1267 -0.1076
15343OCT     C130685   3.639  16.977   7.944  0.0362  0.2441  0.2705
15343OCT     C230686   3.888  16.981   7.560 -0.1938  0.0556 -0.2759
15344OCT     C130687  20.198  19.567  10.015  0.0708  0.1880 -0.0593
15344OCT     C230688  20.696  19.624  10.003  0.1043  0.1368  0.1598
15345OCT     C130689  10.744   0.264  17.539  0.4742  0.1006  0.1878
15345OCT     C230690  10.913  23.642  17.342 -0.0650 -0.3209 -0.0135
15346OCT     C130691   2.554  12.396   1.244  0.0230 -0.1622  0.0558
15346OCT     C230692   2.589  12.866   1.177 -0.0740  0.0616  0.0415
15347OCT     C130693   0.416  14.716  12.704 -0.1371 -0.0091  0.2438
15347OCT     C230694   0.858  14.710  12.690 -0.1480 -0.0429 -0.1009
15348OCT     C130695  11.778  12.421  18.322 -0.2067  0.1813  0.2659
15348OCT     C230696  11.388  12.258  18.122  0.2482 -0.3101 -0.0668
15349OCT     C130697  12.293   9.720  16.691 -0.0197 -0.5924  0.6339
15349OCT     C230698  11.850   9.610  16.739 -0.2035  0.2667 -0.0875
15350OCT     C130699  18.832   2.624  17.308 -0.0779 -0.2972  0.2196
15350OCT     C230700  18.605   2.555  16.887 -0.0250 -0.3875 -0.4079
15351OCT     C130701  22.589   1.525  10.787  0.0912  0.3387 -0.0992
15351OCT     C230702  22.277   1.380  11.087  0.0270  0.3225 -0.0905
15352OCT     C130703  20.918   1.567  22.277 -0.0310  0.3183 -0.2845
15352OCT     C230704  20.467   1.589  22.477  0.1642  0.0675  0.1442
15353OCT     C130705   2.462  16.631  20.207  0.3419 -0.0299 -0.2845
15353OCT     C230706   2.873  16.687  20.015 -0.1598  0.1761  0.0892
15354OCT     C130707   9.298  14.896   1.664  0.2788 -0.0960 -0.2188
15354OCT     C230708   8.925  15.222   1.613 -0.1318  0.0265  0.0584
15355OCT     C130709  16.421  13.424  22.832 -0.1491 -0.1668 -0.1234
15355OCT     C230710  16.243  13.004  23.046 -0.1011 -0.1338 -0.1938
15356OCT     C130711   2.101   3.077   8.757 -0.2811 -0.0743 -0.0996
15356OCT     C230712   1.677   2.923   8.696  0.1197 -0.3439  0.0052
15357OCT     C130713  23.204   5.600  11.685  0.3773 -0.1756 -0.3887
15357OCT     C230714  22.764   5.633  11.475  0.0365  0.2683  0.1523
15358OCT     C130715   0.135  14.626   8.477 -0.0456  0.4665  0.1070
15358OCT     C230716  23.496  14.624   8.224  0.0896  0.0058  0.2040
15359OCT     C130717  20.818  10.191   3.312  0.3029 -0.4081  0.6870
15359OCT     C230718  20.534  10.008   3.669 -0.0371 -0.0119  0.2221
15360OCT     C130719  12.116  16.405  21.500  0.1161  0.2360  0.1374
15360OCT     C230720  11.990  16.663  21.909 -0.0406 -0.0905 -0.1111
15361OCT     C130721  16.761   8.463  16.458  0.1383 -0.0384 -0.1575
15361OCT     C230722  17.043   8.525  16.108  0.3680 -0.4564 -0.0669
15362OCT     C130723   6.640  11.245   1.366  0.0869 -0.5105 -0.2666
15362OCT     C230724   6.296  11.158   1.077  0.1235  0.1967  0.4705
15363OCT     C130725  19.639   8.287   4.417 -0.1694  0.1494 -0.0660
15363OCT     C230726  19.626   8.536   4.809 -0.1225 -0.1691 -0.0623
15364OCT     C130727   3.429   3.341  15.467  0.0646  0.1324  0.0357
15364OCT     C230728   3.482   3.801  15.339 -0.0507  0.0292  0.0472
15365OCT     C130729   0.820  17.627  17.945 -0.2073  0.2576 -0.0744
15365OCT     C230730   0.965  18.058  17.766 -0.0186  0.0856  0.0250
15366OCT     C130731   2.264  11.995  13.901  0.1052 -0.0225 -0.2389
15366OCT     C230732   2.369  11.599  14.062 -0.1964 -0.1860  0.0317
15367OCT     C130733  17.193   7.288  21.434 -0.1295  0.3098  0.1972
15367OCT     C230734  17.152   7.532  21.832 -0.0881  0.1582 -0.2955
15368OCT     C130735  23.382   6.913  12.046 -0.3073  0.1319  0.0642
15368OCT     C230736  23.599   7.288  12.131  0.0017 -0.1968  0.0557
15369OCT     C130737   0.181   6.125  11.149  0.2075  0.2243 -0.2926
15369OCT     C230738  23.571   5.971  10.899 -0.2082 -0.1602  0.0192
15370OCT     C130739  15.261   5.164  18.700  0.0057  0.2284 -0.1235
15370OCT     C230740  15.277   4.978  19.180  0.3330  0.0232 -0.1827
15371OCT     C130741  18.679  15.203  22.136 -0.1421 -0.5953  0.2995
15371OCT     C230742  18.620  15.135  22.594 -0.1202  0.4218  0.2715
15372OCT     C130743  14.063  13.040   2.934 -0.1699 -0.4779  0.0878
15372OCT     C230744  14.478  13.248   2.760  0.2276 -0.0714 -0.3200
15373OCT     C130745  13.383  13.223   1.799  0.0492  0.1091  0.4513
15373OCT     C230746  13.459  12.728   1.738 -0.0065 -0.0830 -0.1249
15374OCT     C130747  21.862  10.042   9.233  0.0928 -0.2459 -0.0265
15374OCT     C230748  21.964   9.642   9.125 -0.2031  0.1989 -0.2259
15375OCT     C130749  16.978   8.227   7.349  0.0944  0.2835 -0.2751
15375OCT     C230750  16.623   8.474   7.487  0.1914 -0.2634 -0.0592
15376OCT     C130751  11.839   0.962  22.252 -0.2040  0.1205  0.0586
15376OCT     C230752  11.755   0.906  21.796  0.0607 -0.1203  0.2218
15377OCT     C130753  13.034  20.259  12.712 -0.0291 -0.0711  0.2090
15377OCT     C230754  12.646  20.450  12.592  0.0440 -0.3103 -0.0836
15378OCT     C130755   5.487  16.089   8.281  0.2029 -0.1428  0.0201
15378OCT     C230756   5.418  15.692   8.317 -0.3373  0.0629 -0.2529
15379OCT     C130757   0.295   7.634   1.204 -0.1677  0.1527  0.1720
15379OCT     C230758   0.082   7.379   0.813  0.2747 -0.2922  0.3167
15380OCT     C130759  15.520   2.958  14.906 -0.3399 -0.3302  0.1601
15380OCT     C230760  15.182   3.280  15.025 -0.1001 -0.2573  0.0851
15381OCT     C130761  15.287  17.631   5.967 -0.2007  0.1303  0.0598
15381OCT     C230762  15.491  17.311   5.707  0.2252  0.3572  0.0049
15382OCT     C130763  18.154   9.579   6.503  0.2576  0.2049 -0.0641
15382OCT     C230764  18.224   9.314   6.837  0.1261  0.1392 -0.2684
15383OCT     C130765  11.603  13.298  12.111 -0.0514  0.4755 -0.3478
15383OCT     C230766  11.442  13.709  12.023  0.0294 -0.0059  0.1409
15384OCT     C130767   5.971  16.723  23.202  0.1378 -0.1126 -0.2616
15384OCT     C230768   6.235  16.706  23.635 -0.5333 -0.0143 -0.2009
15385OCT     C130769  12.400  20.672   6.913 -0.4195  0.1397 -0.1272
15385OCT     C230770  12.657  20.324   7.077 -0.3613  0.1192  0.1604
15386OCT     C130771   6.661  17.596  11.534 -0.4360 -0.0865  0.1432
15386OCT     C230772   7.091  17.443  11.607 -0.5802 -0.1643 -0.2468
15387OCT     C130773  12.394   5.303  23.070 -0.0298 -0.0594  0.1757
15387OCT     C230774  12.062   5.697  23.156 -0.0133 -0.0813  0.2571
15388OCT     C130775   9.633  16.864   2.318  0.2538  0.0637 -0.0515
15388OCT     C230776   9.482  16.673   1.982 -0.0452 -0.4187 -0.1623
15389OCT     C130777  16.467  12.477  19.366  0.0951 -0.0637  0.3292
15389OCT     C230778  16.535  12.442  19.779 -0.2539  0.4097  0.1153
15390OCT     C130779  13.520   4.228  11.879 -0.1523 -0.2847 -0.2831
15390OCT     C230780  13.851   4.444  11.640 -0.0271 -0.0089 -0.1811
15391OCT     C130781  16.900  12.539  11.901 -0.0056  0.1784  0.3712
15391OCT     C230782  17.228  12.643  12.210 -0.3811  0.1516 -0.0614
15392OCT     C130783   4.316  13.637   0.706  0.3092 -0.0261  0.3009
15392OCT     C230784   4.701  13.785   0.422  0.2334  0.0356 -0.3748
15393OCT     C130785  14.837  21.942  15.233  0.1340  0.4798 -0.2691
15393OCT     C230786  14.749  21.466  15.064  0.0356 -0.1708 -0.0972
15394OCT     C130787   9.592  18.405   1.537 -0.0687  0.1860 -0.2019
15394OCT     C230788   9.184  18.312   1.817 -0.0446  0.2860 -0.2549
15395OCT     C130789  17.478   2.560  11.427 -0.3051  0.0977 -0.1186
15395OCT     C230790  17.884   2.824  11.571  0.5821  0.0184  0.0436
15396OCT     C130791   0.942  12.261  21.826 -0.0338  0.1527 -0.0245
15396OCT     C230792   1.165  12.458  21.407 -0.0524 -0.0656 -0.2741
15397OCT     C130793  20.802  13.252  15.490 -0.3763  0.2928 -0.4333
15397OCT     C230794  20.973  13.130  15.026  0.1412  0.4751 -0.0614
15398OCT     C130795  11.112  15.101  19.851  0.0315  0.1714 -0.1299
15398OCT     C230796  10.808  15.300  20.116  0.1169  0.1870 -0.6401
15399OCT     C130797  18.262  15.991   5.841  0.2768  0.2447 -0.1076
15399OCT     C230798  17.959  16.141   5.566 -0.1367 -0.1788 -0.1297
15400OCT     C130799   2.022  14.308  22.270 -0.2135 -0.0510 -0.0208
15400OCT     C230800   1.645  14.431  22.030 -0.2400  0.1591  0.1466
15401OCT     C130801  23.603   2.006  16.599  0.2296 -0.2252  0.2684
15401OCT     C230802  23.269   1.929  16.338  0.2315  0.0937  0.4199
15402OCT     C130803  13.481   2.523   8.127 -0.1676  0.3184 -0.1200
15402OCT     C230804  13.768   2.818   7.908 -0.0414  0.0149  0.0709
15403OCT     C130805  16.475  16.864   0.118  0.0685 -0.2145 -0.3337
15403OCT     C230806  16.552  17.213   0.406  0.4693 -0.0650  0.0811
15404OCT     C130807  13.361   9.236  17.357 -0.1408 -0.0413 -0.1670
15404OCT     C230808  13.050   8.976  17.568 -0.5157 -0.1219  0.3619
15405OCT     C130809  21.782   7.875  12.070  0.1267 -0.0068 -0.1796
15405OCT     C230810  22.061   8.030  11.716  0.3066 -0.2159 -0.3118
15406OCT     C130811  12.590   9.356  16.206  0.2671  0.0853  0.2077
15406OCT     C230812  13.033   9.251  16.398 -0.1376  0.3530  0.2589
15407OCT     C130813   4.249   0.371  15.230  0.2021  0.0071 -0.2040
15407OCT     C230814   4.125  23.740  14.971  0.1505 -0.0703  0.4107
15408OCT     C130815   7.030  16.839   9.059  0.5837 -0.4013 -0.2345
15408OCT     C230816   7.274  16.857   8.673 -0.5526  0.2880  0.1121
15409OCT     C130817   1.675   7.714   1.084 -0.0788 -0.0424 -0.0074
15409OCT     C230818   1.997   8.082   1.017  0.0756 -0.1885 -0.0721
15410OCT     C130819  14.859   8.715   4.934  0.0584 -0.0931  0.1320
15410OCT     C230820  15.296   8.580   4.992 -0.0695 -0.2961 -0.1101
15411OCT     C130821  16.435   9.695  17.526  0.0369  0.0714  0.0323
15411OCT     C230822  16.794   9.553  17.269  0.2859  0.0588  0.1448
15412OCT     C130823  11.727  23.519  16.162 -0.1026  0.0272 -0.1452
15412OCT     C230824  11.391  23.390  15.867 -0.4102  0.2585  0.0408
15413OCT     C130825  19.792   2.164   9.405 -0.0065 -0.0226 -0.0066
15413OCT     C230826  19.417   2.142   9.157  0.3151  0.0224  0.1179
15414OCT     C130827   2.476  13.930  21.962 -0.0732 -0.0164 -0.2587
15414OCT     C230828   1.995  13.988  21.875  0.3444 -0.0256  0.1565
15415OCT     C130829  21.456   6.397  18.742 -0.1796  0.4729 -0.2069
15415OCT     C230830  21.096   6.086  18.838  0.0695  0.3208  0.0881
15416OCT     C130831  21.106  14.349  16.447  0.2686 -0.3182  0.0650
15416OCT     C230832  21.365  14.749  16.490 -0.0030 -0.1637 -0.0601
15417OCT     C130833  12.944   2.960   8.154 -0.0994  0.4217 -0.2715
15417OCT     C230834  13.048   2.808   7.745  0.1445 -0.1693  0.1586
15418OCT     C130835  16.086  12.026  10.196 -0.0741  0.1054  0.0361
15418OCT     C230836  16.385  11.789   9.935 -0.2486  0.0666  0.0554
15419OCT     C130837   8.275  15.998   6.737 -0.0421  0.0069  0.0692
15419OCT     C230838   8.434  15.803   6.281 -0.3119 -0.2828 -0.1187
15420OCT     C130839  19.786   0.626  10.929  0.2115  0.3813 -0.1738
15420OCT     C230840  20.255   0.701  10.823 -0.0818  0.0623 -0.3482
15421OCT     C130841  10.279  15.006  12.068  0.0060  0.0405 -0.0289
15421OCT     C230842  10.269  15.211  11.666  0.1110  0.0209 -0.1333
15422OCT     C130843   4.488  14.186  12.983 -0.1305 -0.0384 -0.0377
15422OCT     C230844   4.374  14.257  13.417 -0.0637  0.0329  0.3266
15423OCT     C130845  11.742  17.364  12.996 -0.0396  0.0570 -0.0305
15423OCT     C230846  11.569  17.690  12.704  0.1616  0.0911 -0.0960
15424OCT     C130847  20.104   6.159  15.095  0.0548 -0.2640 -0.0679
15424OCT     C230848  20.357   5.870  14.856 -0.3359  0.5755 -0.0034
15425OCT     C130849   4.692  19.211   8.867 -0.5069 -0.3179 -0.2009
15425OCT     C230850   4.396  18.847   8.910  0.2034 -0.0027  0.0377
15426OCT     C130851  23.631   7.511   3.349  0.0348 -0.3629 -0.1927
15426OCT     C230852  23.572   7.577   2.936 -0.0393 -0.2957 -0.1120
15427OCT     C130853   5.557   5.913  18.492 -0.0983  0.3333 -0.1141
15427OCT     C230854   5.141   6.070  18.391  0.2784 -0.4253  0.0560
15428OCT     C130855   2.161  14.589  10.849 -0.0646 -0.0925  0.3840
15428OCT     C230856   2.281  14.742  10.366 -0.1657  0.2921 -0.0202
15429OCT     C130857  13.938  21.868  21.962 -0.3189  0.1196 -0.0569
15429OCT     C230858  14.283  22.117  22.086 -0.1740  0.1578 -0.2090
15430OCT     C130859  11.952  10.835   0.015 -0.1698  0.2263  0.1542
15430OCT     C230860  11.779  10.615   0.363  0.2460 -0.1288  0.2907
15431OCT     C130861   9.480   0.214  17.637 -0.0138  0.0646  0.0933
15431OCT     C230862   9.380   0.424  18.019  0.2039 -0.0371  0.0665
15432OCT     C130863   2.336  14.087  11.579  0.2841 -0.1638 -0.1526
15432OCT     C230864   2.460  13.702  11.774  0.0656  0.2166 -0.2173
15433OCT     C130865  23.124   1.041  19.360 -0.0639 -0.1720 -0.2573
15433OCT     C230866  23.252   1.514  19.356  0.0980  0.3267 -0.1969
15434OCT     C130867  21.933  15.552  13.841 -0.0230  0.1582 -0.2787
15434OCT     C230868  22.032  15.673  14.289  0.1933  0.2339  0.2087
15435OCT     C130869  15.567  16.441   3.529 -0.0952 -0.1099 -0.0584
15435OCT     C230870  15.112  16.183   3.444 -0.0307 -0.1386 -0.2699
15436OCT     C130871   1.286  21.127  21.628  0.0543  0.1707  0.2559
15436OCT     C230872   0.933  21.003  21.386  0.4067  0.2063 -0.0376
15437OCT     C130873   6.712  21.204  12.996  0.4288  0.1261  0.1331
15437OCT     C230874   6.954  20.824  13.126 -0.0032  0.0123  0.0753
15438OCT     C130875   5.334   0.737  21.581 -0.2095  0.2330 -0.3584
15438OCT     C230876   4.894   0.897  21.739 -0.0331  0.0358  0.0556
15439OCT     C130877   4.182  12.507  17.530 -0.1083 -0.0050  0.0975
15439OCT     C230878   4.145  12.062  17.393  0.2346 -0.0399  0.6099
15440OCT     C130879   7.358  16.928   5.685  0.2143 -0.4683  0.2020
15440OCT     C230880   6.979  16.972   5.441 -0.0669  0.2837 -0.1097
15441OCT     C130881   3.497   5.212   5.355 -0.3145  0.2348 -0.2420
15441OCT     C230882   3.930   5.122   5.221 -0.0266  0.0957 -0.1966
15442OCT     C130883  15.023  17.986   6.771 -0.2639  0.1597 -0.2012
15442OCT     C230884  15.468  17.896   6.757 -0.1667 -0.0774  0.1077
15443OCT     C130885   1.745  11.186   2.526 -0.0064  0.3044 -0.2804
15443OCT     C230886   1.458  11.463   2.285  0.4337  0.1025 -0.3190
15444OCT     C130887   9.499   5.695   2.705  0.1268  0.0801  0.0258
15444OCT     C230888   9.251   6.056   2.851 -0.1177 -0.0196  0.3181
15445OCT     C130889  23.031   3.897  12.256 -0.1541  0.0238 -0.0480
15445OCT     C230890  22.762   3.496  12.375  0.3562  0.2412  0.0347
15446OCT     C130891  17.253   8.304   2.819 -0.1409 -0.1348 -0.2527
15446OCT     C230892  16.777   8.262   2.891 -0.3228 -0.1920  0.0804
15447OCT     C130893  14.065  10.425  18.142 -0.3587 -0.0381  0.2258
15447OCT     C230894  13.640  10.406  17.989  0.0914 -0.2548 -0.2296
15448OCT     C130895   6.132  14.819  17.630  0.0055  0.0947 -0.3421
15448OCT     C230896   5.702  14.902  17.389 -0.0854 -0.1947  0.0534
15449OCT     C130897  10.552   8.228  12.705 -0.0313 -0.0372  0.1085
15449OCT     C230898  10.197   8.006  12.891  0.1677  0.2509  0.3044
15450OCT     C130899  10.622   8.098  12.219  0.1123  0.1048  0.2127
15450OCT     C230900  10.165   8.055  12.351 -0.1541  0.0957  0.0005
15451OCT     C130901  16.298  23.439   0.571 -0.0945  0.0229  0.0210
15451OCT     C230902  16.238   0.153   0.684 -0.4706  0.3636  0.1085
15452OCT     C130903   1.132  14.263  17.817  0.0678 -0.1647  0.1183
15452OCT     C230904   1.610  14.312  17.680 -0.0659 -0.2268 -0.0290
15453OCT     C130905   0.799   8.569   1.312 -0.0185 -0.2858  0.1149
15453OCT     C230906   0.822   9.051   1.354  0.2053  0.0535  0.1846
15454OCT     C130907   3.233  12.244  21.222  0.1244 -0.4082 -0.1470
15454OCT     C230908   3.586  12.113  20.992 -0.1307 -0.2177 -0.2096
15455OCT     C130909   3.452  14.358   8.981  0.0763  0.0751  0.0613
15455OCT     C230910   3.202  13.968   8.961  0.4254 -0.0554  0.0358
15456OCT     C130911  17.860   2.174   8.085  0.2274  0.0760 -0.3024
15456OCT     C230912  17.588   1.922   8.265 -0.0497 -0.1408 -0.2377
15457OCT     C130913  21.594  10.519  21.125 -0.1729 -0.4438  0.0444
15457OCT     C230914  21.829  10.103  21.199  0.2919  0.1005  0.0940
15458OCT     C130915  16.948   3.785   5.397 -0.0943  0.2282  0.3614
15458OCT     C230916  17.041   4.048   4.996 -0.0479 -0.2260  0.2898
15459OCT     C130917   8.504  18.713   7.444  0.3125  0.0424  0.3385
15459OCT     C230918   8.877  18.950   7.305  0.2992 -0.0487  0.3372
15460OCT     C130919   5.144  17.849   3.267 -0.2656 -0.0198 -0.2804
15460OCT     C230920   5.525  17.636   3.215 -0.2919 -0.1225  0.3570
15461OCT     C130921  19.332  22.782   8.718  0.1473  0.1228 -0.2063
15461OCT     C230922  19.050  22.639   9.076  0.2484 -0.0648  0.1548
15462OCT     C130923   9.092   5.036   8.421 -0.0159 -0.1688  0.0528
15462OCT     C230924   8.902   4.815   8.728  0.0673  0.3032 -0.0419
15463OCT     C130925  17.688  16.004   4.155  0.0982  0.2824  0.2559
15463OCT     C230926  17.875  15.671   4.405  0.2852 -0.3446 -0.0948
15464OCT     C130927  20.121  10.864   9.462 -0.0528  0.1687 -0.1546
15464OCT     C230928  20.375  11.115   9.767  0.1586  0.1946 -0.1430
15465OCT     C130929  23.222   0.707   5.149 -0.0819 -0.1589  0.1262
15465OCT     C230930  22.901   0.892   5.422 -0.4830 -0.2251 -0.1165
15466OCT     C130931  14.476   7.709  10.901  0.0132  0.0361  0.0578
15466OCT     C230932  14.655   7.336  11.148 -0.2321  0.0559  0.1280
15467OCT     C130933  16.302   1.225   4.683  0.2175  0.0173  0.1514
15467OCT     C230934  16.068   0.804   4.612 -0.0528  0.2926  0.1399
15468OCT     C130935   3.025  13.575  13.212 -0.0818 -0.1198 -0.2826
15468OCT     C230936   2.878  13.503  13.681 -0.3452  0.2348  0.0668
15469OCT     C130937  19.247  16.873  19.703 -0.0571  0.0114  0.1763
15469OCT     C230938  19.071  17.130  20.114 -0.0453 -0.2965  0.2299
15470OCT     C130939  16.190   0.301  12.399  0.2768 -0.2441  0.0942
15470OCT     C230940  16.011   0.535  12.789  0.0894 -0.1561 -0.1843
15471OCT     C130941   7.275   9.805  13.154 -0.0870  0.4659  0.1809
15471OCT     C230942   7.130   9.746  12.740 -0.1903  0.0609 -0.2139
15472OCT     C130943   5.096  17.886  20.376 -0.0426 -0.0201 -0.1226
15472OCT     C230944   5.284  18.298  20.221  0.1763 -0.0232  0.0594
15473OCT     C130945   7.044   8.346   6.625  0.3396  0.3903  0.0222
15473OCT     C230946   7.132   8.111   6.218  0.0768  0.0066  0.3642
15474OCT     C130947  12.162  14.624  15.868  0.1253 -0.3580  0.1105
15474OCT     C230948  12.045  14.233  16.047 -0.1754 -0.2100  0.2859
15475OCT     C130949  16.787  20.343  10.477  0.2453  0.2607 -0.0816
15475OCT     C230950  16.476  20.123  10.736  0.2272  0.3789 -0.2390
15476OCT     C130951   3.458   9.651  11.499  0.0601  0.0502 -0.0493
15476OCT     C230952   3.182  10.041  11.584  0.0723 -0.0093  0.1215
15477OCT     C130953   0.092   6.574  22.374 -0.1263  0.2615 -0.1784
15477OCT     C230954  23.509   6.728  22.692  0.0186 -0.0605  0.0960
15478OCT     C130955  17.140  21.865   5.712 -0.1749 -0.4780 -0.4571
15478OCT     C230956  17.585  21.739   5.772 -0.0416 -0.1192 -0.2403
15479OCT     C130957   0.947  19.439   9.933 -0.0994 -0.0300 -0.3752
15479OCT     C230958   1.317  19.207   9.713  0.2704  0.1506 -0.1937
15480OCT     C130959   4.157  20.569  12.106 -0.1448  0.3266  0.1173
15480OCT     C230960   4.549  20.346  12.281 -0.2364 -0.1240 -0.0751
15481OCT     C130961   0.473  14.131  10.515 -0.1792 -0.1223 -0.3509
15481OCT     C230962   0.615  13.735  10.287 -0.3140 -0.1819 -0.0147
15482OCT     C130963  17.572  18.125  16.597 -0.0635  0.1250 -0.0219
15482OCT     C230964  17.806  17.964  16.220 -0.1908 -0.1451  0.0665
15483OCT     C130965   0.419  11.741  13.943  0.0296 -0.0082  0.0802
15483OCT     C230966   0.359  11.995  13.567  0.0044  0.0506  0.1816
15484OCT     C130967   9.060   8.634   4.831 -0.3459  0.0264 -0.3351
15484OCT     C230968   9.478   8.692   5.030 -0.0403 -0.1740 -0.0378
15485OCT     C130969  22.044   2.045   6.391 -0.4316  0.2186 -0.0901
15485OCT     C230970  22.395   1.923   6.646 -0.2087  0.1339 -0.4373
15486OCT     C130971   0.533  12.849   0.691  0.2385 -0.1695  0.1870
15486OCT     C230972   0.929  12.656   0.766 -0.0582 -0.2285  0.2180
15487OCT     C130973  17.555   8.477   2.399 -0.0594  0.0470  0.0573
15487OCT     C230974  17.444   8.466   1.952 -0.1029 -0.0617 -0.0524
15488OCT     C130975  17.715  21.362  21.972  0.0752  0.0171  0.1039
15488OCT     C230976  17.857  21.829  21.865 -0.3469  0.0036  0.0792
15489OCT     C130977  21.710   6.433  13.092 -0.1527 -0.1935 -0.1128
15489OCT     C230978  21.446   6.796  13.212  0.1345 -0.0242 -0.0553
15490OCT     C130979  12.035   0.190  15.994 -0.2948  0.2304  0.2228
15490OCT     C230980  11.691   0.364  16.243 -0.0872  0.1333  0.1018
15491OCT     C130981  17.166  17.119  20.668  0.0955  0.0314 -0.1923
15491OCT     C230982  17.047  16.746  20.847 -0.0966 -0.5786 -0.0158
15492OCT     C130983   1.473   8.359   7.380  0.1348  0.3172  0.1906
15492OCT     C230984   1.587   7.845   7.318  0.4230 -0.1366 -0.0542
15493OCT     C130985  22.443  15.511  13.891  0.2002  0.1669 -0.0664
15493OCT     C230986  22.723  15.407  14.239  0.2736  0.2368 -0.0268
15494OCT     C130987  18.365   8.625  16.947  0.6169 -0.0151  0.0930
15494OCT     C230988  18.018   8.927  17.060  0.2633  0.0829 -0.1436
15495OCT     C130989   1.187   5.709  20.635  0.0768  0.0576  0.0338
15495OCT     C230990   1.213   5.556  21.054  0.0854  0.3601 -0.4691
15496OCT     C130991  20.406  11.370   3.833  0.2766 -0.1040  0.4072
15496OCT     C230992  20.291  11.643   3.538  0.0361  0.1173 -0.0039
15497OCT     C130993  12.830   4.454  17.709  0.3568 -0.2279 -0.1175
15497OCT     C230994  13.262   4.478  17.476 -0.0556  0.1843  0.1327
15498OCT     C130995  18.283   7.356   1.933  0.4519  0.0485  0.3750
15498OCT     C230996  18.385   7.617   2.317  0.0325  0.1427  0.0400
15499OCT     C130997   1.790  17.986  11.938  0.0487 -0.0258 -0.2927
15499OCT     C230998   2.265  18.082  11.911  0.0271 -0.1242 -0.1033
15500OCT     C130999  13.179   9.859   8.382  0.0933 -0.2518  0.0190
15500OCT     C231000  13.376   9.721   7.979 -0.2640  0.1373 -0.5017
15501OCT     C131001  16.405   6.490  18.695 -0.0364  0.1067  0.0221
15501OCT     C231002  15.995   6.645  18.583 -0.0502 -0.1077 -0.0154
15502OCT     C131003  12.273   3.424   4.637  0.0182  0.1212 -0.0229
15502OCT     C231004  12.407   3.012   4.468 -0.0479  0.0945  0.1363
15503OCT     C131005  20.973  19.000  13.399 -0.1819 -0.2915 -0.3116
15503OCT     C231006  20.837  18.765  13.790  0.3248 -0.0934  0.0433
15504OCT     C131007  11.988  21.288  13.421 -0.2320  0.2038  0.1818
15504OCT     C231008  12.237  21.270  13.023 -0.3349  0.2823 -0.0284
15505OCT     C131009  15.959   4.337  22.436  0.1341  0.0139  0.0169
15505OCT     C231010  16.267   4.179  22.730 -0.0133  0.2996 -0.0381
15506OCT     C131011   7.692   0.371  18.801 -0.2527  0.1537  0.3116
15506OCT     C231012   7.839   0.431  18.398  0.0395  0.0866 -0.0199
15507OCT     C131013  19.160  14.830  19.223  0.3209  0.2223  0.2117
15507OCT     C231014  19.309  14.492  19.519  0.2878 -0.0838 -0.0792
15508OCT     C131015   9.602  15.781   4.527  0.1129 -0.0124 -0.2401
15508OCT     C231016   9.450  15.764   4.943 -0.0914 -0.0657 -0.2468
15509OCT     C131017  14.846   1.101   8.393  0.2226 -0.3367  0.0322
15509OCT     C231018  14.968   0.734   8.655  0.0795  0.0297 -0.0939
15510OCT     C131019   1.339   4.863  23.733 -0.1376 -0.1291 -0.1798
15510OCT     C231020   0.942   4.621   0.098 -0.0365 -0.3267 -0.1593
15511OCT     C131021  20.611  17.198  20.349  0.0276 -0.1346  0.0234
15511OCT     C231022  20.810  17.184  19.885 -0.0804  0.0231  0.2636
15512OCT     C131023  12.321  18.723   0.605 -0.0272 -0.2517 -0.2232
15512OCT     C231024  11.943  18.570   0.755  0.1701  0.2789 -0.2107
15513OCT     C131025   4.592  22.790  21.119 -0.0464  0.5899  0.0884
15513OCT     C231026   4.336  23.221  21.131 -0.1790  0.1008 -0.0561
15514OCT     C131027  14.471  14.819  17.065 -0.3142 -0.0542  0.2432
15514OCT     C231028  14.158  15.121  17.255  0.1860  0.2646  0.1522
15515OCT     C131029  21.629   6.860   6.692 -0.0132  0.0174  0.3005
15515OCT     C231030  21.963   7.071   6.996 -0.3967 -0.1930  0.0217
15516OCT     C131031  11.019  10.637   9.041  0.2365  0.3061 -0.1679
15516OCT     C231032  11.124  10.580   8.566 -0.2980  0.0117  0.0482
15517OCT     C131033   3.181  19.521  19.439  0.4016  0.0524  0.0124
15517OCT     C231034   3.548  19.761  19.253 -0.2104 -0.1167 -0.4922
15518OCT     C131035  11.084  22.984   9.322 -0.2183  0.0882  0.1556
15518OCT     C231036  10.941  23.083   8.868 -0.1108 -0.0030  0.2989
15519OCT     C131037  13.294   8.292  10.743 -0.1690  0.1419 -0.0972
15519OCT     C231038  13.012   8.462  11.055  0.0689  0.0064 -0.0179
15520OCT     C131039  23.221   0.516  21.052  0.3658  0.1238 -0.1543
15520OCT     C231040  23.418   0.052  21.052 -0.0109  0.1174  0.1722
15521OCT     C131041   3.125  18.141  22.579  0.3262 -0.1594  0.3329
15521OCT     C231042   3.580  17.996  22.489 -0.2437 -0.0654 -0.0088
15522OCT     C131043   6.207  11.930  23.300  0.0873 -0.3825 -0.0478
15522OCT     C231044   6.568  12.288  23.245  0.2479  0.0904 -0.0049
15523OCT     C131045   6.133  19.215  21.796  0.2369  0.0590 -0.1252
15523OCT     C231046   6.449  19.074  22.097  0.1299  0.1872  0.1966
15524OCT     C131047   9.202  22.888  10.915 -0.0212 -0.3144 -0.3992
15524OCT     C231048   9.084  23.300  10.795 -0.1517  0.0965 -0.0535
15525OCT     C131049   6.872   8.126  17.599 -0.4450 -0.0500 -0.1071
15525OCT     C231050   7.263   8.350  17.784  0.0810  0.0095  0.1471
15526OCT     C131051   3.458   9.181   2.934  0.1445 -0.4067 -0.2482
15526OCT     C231052   3.097   8.995   2.788 -0.0112  0.1013  0.1848
15527OCT     C131053  14.880  22.783  16.597 -0.0501 -0.0552  0.1477
15527OCT     C231054  14.554  22.761  16.920 -0.1972 -0.2230  0.1869
15528OCT     C131055  19.391  11.236   5.672 -0.1790 -0.3255 -0.2695
15528OCT     C231056  19.378  11.209   5.225 -0.2406 -0.0996  0.1977
15529OCT     C131057  13.393  23.088   3.335 -0.1259  0.1288 -0.1754
15529OCT     C231058  13.340  22.569   3.315  0.0137 -0.0034  0.1301
15530OCT     C131059  17.027  21.122  12.282 -0.0185  0.1161 -0.1468
15530OCT     C231060  16.951  20.904  11.868  0.2263  0.4011 -0.2591
15531OCT     C131061  15.405  18.819   1.347  0.3771 -0.0251 -0.1053
15531OCT     C231062  15.258  19.150   1.083 -0.0557  0.4537 -0.0529
15532OCT     C131063  16.844  23.680   1.878 -0.1373  0.0069 -0.3872
15532OCT     C231064  16.920   0.042   1.419 -0.2638  0.3670  0.0617
15533OCT     C131065  12.663   3.572   2.638 -0.0048 -0.0383  0.1699
15533OCT     C231066  12.952   3.506   2.358  0.3664 -0.4186 -0.0963
15534OCT     C131067  16.336  12.984  21.199  0.2017 -0.3184 -0.1383
15534OCT     C231068  16.530  12.809  21.610  0.0698 -0.0506  0.2389
15535OCT     C131069   1.525  17.572   1.789  0.1643  0.0447 -0.1276
15535OCT     C231070   1.698  17.286   1.454  0.1307  0.1974 -0.4321
15536OCT     C131071   2.005  13.900  12.414 -0.3921 -0.1590  0.0755
15536OCT     C231072   1.985  14.232  12.099 -0.0858 -0.0143  0.3273
15537OCT     C131073  19.118  12.042  13.790  0.2550  0.2607  0.1109
15537OCT     C231074  18.946  12.370  14.115 -0.2190 -0.5097  0.0386
15538OCT     C131075   5.829  16.183   6.951 -0.1553 -0.2653  0.1233
15538OCT     C231076   6.207  16.400   7.200 -0.0095 -0.2437  0.1090
15539OCT     C131077  17.506   2.066  15.321 -0.0686  0.3043  0.2802
15539OCT     C231078  17.922   2.090  15.346 -0.1886  0.1750  0.0073
15540OCT     C131079   5.817  23.684  20.033 -0.3297 -0.4275  0.2120
15540OCT     C231080   6.308  23.601  19.974 -0.0240 -0.0110 -0.0425
15541OCT     C131081   2.609  11.976   9.142  0.1680  0.0708 -0.0851
15541OCT     C231082   2.848  11.617   9.203 -0.2908 -0.2623 -0.3676
15542OCT     C131083  12.973  15.079  19.447 -0.1356 -0.1303  0.0518
15542OCT     C231084  13.336  14.997  19.794  0.0646  0.3846 -0.0720
15543OCT     C131085   9.500  22.603   9.600  0.0376 -0.5800  0.2508
15543OCT     C231086   9.734  22.912   9.321  0.4827  0.3242  0.3017
15544OCT     C131087  19.790  11.985   8.729 -0.1241  0.0904 -0.0408
15544OCT     C231088  19.427  11.750   8.836 -0.2553 -0.2155 -0.2226
15545OCT     C131089  17.877  11.186  14.946 -0.0968 -0.0961 -0.3164
15545OCT     C231090  17.769  10.735  14.834 -0.2263  0.0806 -0.0311
15546OCT     C131091   4.981  15.513  13.561 -0.4690  0.3600  0.0800
15546OCT     C231092   4.924  15.222  13.243  0.0929 -0.1920 -0.0277
15547OCT     C131093  14.322   8.186  17.687 -0.0976  0.1633 -0.2845
15547OCT     C231094  14.418   7.748  17.645 -0.1280  0.1457  0.1857
15548OCT     C131095   5.188   5.568  21.972 -0.1341 -0.1933 -0.2131
15548OCT     C231096   4.973   5.322  21.701  0.1858  0.1832 -0.1461
15549OCT     C131097  11.441  22.470   4.772  0.2710 -0.1988  0.0464
15549OCT     C231098  11.666  22.402   4.374  0.1367 -0.0869  0.0234
15550OCT     C131099  12.997  14.549  12.610  0.1848 -0.0348 -0.0090
15550OCT     C231100  12.835  14.354  12.989 -0.0320 -0.2697 -0.1076
15551OCT     C131101   8.626  12.482   3.534 -0.2869  0.3494  0.0964
15551OCT     C231102   8.594  12.254   3.153  0.2615  0.0693  0.0223
15552OCT     C131103   2.300  14.220  12.679 -0.0581 -0.1192  0.0425
15552OCT     C231104   1.806  14.319  12.599  0.0586  0.1043 -0.1334
15553OCT     C131105   3.145   1.002  11.984 -0.0229 -0.0414  0.0012
15553OCT     C231106   3.295   1.307  11.612  0.2609 -0.4605  0.1303
15554OCT     C131107  22.014   3.591   9.314  0.2389 -0.1705  0.3514
15554OCT     C231108  22.284   3.975   9.240 -0.0972 -0.2189  0.2354
15555OCT     C131109   5.263   7.435   0.738 -0.4740  0.0068  0.1627
15555OCT     C231110   5.210   7.086   0.434  0.2904 -0.2544  0.0940
15556OCT     C131111  18.042   2.425  13.566  0.1183  0.2763  0.3054
15556OCT     C231112  18.508   2.260  13.702 -0.0231 -0.1433 -0.3181
15557OCT     C131113  19.420  17.256  12.682  0.0195  0.4776  0.1669
15557OCT     C231114  19.378  17.600  13.077 -0.1909 -0.0219  0.0589
15558OCT     C131115   5.266  12.712  15.467  0.2950  0.0132  0.0154
15558OCT     C231116   4.986  12.683  15.073 -0.3252  0.3120  0.3115
15559OCT     C131117  22.102   0.694   4.170 -0.2126  0.1969 -0.1329
15559OCT     C231118  22.185   1.105   4.212 -0.0710 -0.2096 -0.2518
15560OCT     C131119  18.744  19.020  19.817 -0.1780  0.1819 -0.0176
15560OCT     C231120  18.394  19.204  19.582 -0.0938  0.0857 -0.4382
15561OCT     C131121   3.267   8.381  23.221  0.0317 -0.7057 -0.0955
15561OCT     C231122   3.118   8.799  23.164 -0.0051 -0.2372  0.4351
15562OCT     C131123   7.545  13.970  19.560  0.0813  0.2034 -0.1492
15562OCT     C231124   7.701  13.694  19.242  0.1095 -0.0653  0.4625
15563OCT     C131125   1.509  23.720   0.230 -0.4905  0.0879  0.1018
15563OCT     C231126   1.104  23.526   0.246 -0.1621 -0.4282 -0.3331
15564OCT     C131127  13.965   7.037  16.886  0.3111 -0.2862  0.1044
15564OCT     C231128  14.198   6.884  17.204 -0.0773 -0.0238 -0.2069
15565OCT     C131129  14.259  18.349  15.679  0.3658 -0.1254 -0.5577
15565OCT     C231130  14.642  18.649  15.792  0.3127  0.1855 -0.1318
15566OCT     C131131   2.784   6.574  18.350 -0.3059 -0.0741  0.0075
15566OCT     C231132   2.714   6.987  18.192  0.3339 -0.0541  0.1499
15567OCT     C131133   0.501   0.699  21.113 -0.3228  0.0221  0.0712
15567OCT     C231134   0.919   0.474  21.056  0.2133 -0.1042  0.3878
15568OCT     C131135  19.776  22.506  21.836 -0.0166  0.1393  0.0273
15568OCT     C231136  20.004  22.748  22.164  0.3122 -0.2235  0.1432
15569OCT     C131137   8.859  11.181  23.313 -0.1375  0.0808  0.1482
15569OCT     C231138   9.116  10.912  23.065 -0.0284  0.2724 -0.0197
15570OCT     C131139   8.401   9.039   9.264 -0.1679 -0.3348  0.0354
15570OCT     C231140   8.518   8.590   9.417  0.1943  0.0016 -0.2054
15571OCT     C131141  23.635  22.465  14.785  0.0180 -0.0253  0.1854
15571OCT     C231142   0.154  22.700  14.478 -0.3659  0.0955  0.2988
15572OCT     C131143   7.938  11.294  19.088  0.0099 -0.0655  0.0245
15572OCT     C231144   8.326  11.494  18.924 -0.1378 -0.0300  0.0805
15573OCT     C131145   6.016  22.056  17.892  0.0724  0.1483  0.2067
15573OCT     C231146   5.992  22.234  18.301 -0.0476 -0.1186  0.1965
15574OCT     C131147   5.136   7.878   3.498 -0.0513 -0.1012 -0.5112
15574OCT     C231148   4.760   8.049   3.696  0.3218  0.0591 -0.2184
15575OCT     C131149  18.014  20.527  20.776  0.3382 -0.1173 -0.3404
15575OCT     C231150  17.564  20.479  20.714  0.0955 -0.8238 -0.0363
15576OCT     C131151   5.875   0.925  14.215 -0.1594 -0.0860  0.2182
15576OCT     C231152   5.923   1.083  14.658  0.1714  0.2910  0.1518
15577OCT     C131153   1.876   6.269  23.682 -0.1126  0.1568  0.2641
15577OCT     C231154   1.581   6.612  23.638 -0.0165  0.0873  0.2456
15578OCT     C131155  23.021  23.715  16.250 -0.1514 -0.0550  0.1066
15578OCT     C231156  23.084  23.664  15.777 -0.1460 -0.2017  0.3603
15579OCT     C131157   2.187  22.028  14.750  0.1161  0.5475 -0.0289
15579OCT     C231158   2.438  22.460  14.759 -0.3674  0.0058  0.2367
15580OCT     C131159  22.085  21.485   9.785 -0.4990  0.0900  0.0152
15580OCT     C231160  21.753  21.229   9.576  0.2051  0.1621  0.0809
15581OCT     C131161   9.013  13.101   9.485  0.0637 -0.1496  0.0421
15581OCT     C231162   8.756  12.941   9.854 -0.1821 -0.3050 -0.1359
15582OCT     C131163   7.031   6.640  20.987 -0.1485 -0.3026 -0.0785
15582OCT     C231164   7.422   6.608  21.270  0.0456  0.0643  0.2433
15583OCT     C131165  17.393   0.196   4.415 -0.1089  0.1006  0.0386
15583OCT     C231166  17.772   0.017   4.674 -0.1827  0.2828 -0.1220
15584OCT     C131167   1.277   8.682   3.262  0.0725 -0.1476 -0.1128
15584OCT     C231168   0.998   8.307   3.168  0.2636  0.0396  0.0059
15585OCT     C131169  12.898   8.617  10.394 -0.1881  0.3920  0.3082
15585OCT     C231170  13.325   8.456  10.233 -0.0439 -0.1942 -0.2149
15586OCT     C131171  21.534   4.410  10.738 -0.0110  0.0936 -0.0427
15586OCT     C231172  21.576   4.324  10.252 -0.0780 -0.1574  0.0944
15587OCT     C131173  11.716   8.536  19.586 -0.1424 -0.0664 -0.0921
15587OCT     C231174  11.486   8.852  19.829 -0.0061  0.2182 -0.1887
15588OCT     C131175  23.119   3.249   5.691  0.1716 -0.2533  0.2505
15588OCT     C231176  23.092   3.217   6.154  0.1858 -0.0867  0.1172
15589OCT     C131177  15.486   9.671  22.081  0.0472  0.0166  0.1085
15589OCT     C231178  15.647  10.011  21.759  0.1612  0.1699  0.3735
15590OCT     C131179   8.346  12.743  18.616  0.2903  0.0265  0.0883
15590OCT     C231180   8.193  13.144  18.578 -0.1152  0.0982 -0.5664
15591OCT     C131181  13.667  15.405   4.812  0.2819  0.0972  0.1005
15591OCT     C231182  13.785  14.978   4.615 -0.1166  0.0171  0.0083
15592OCT     C131183  21.532  12.055   0.621  0.2707  0.1626 -0.0360
15592OCT     C231184  21.527  11.785   0.235  0.1452 -0.1633  0.0563
15593OCT     C131185   4.900   3.423   5.542 -0.1352  0.0963  0.1302
15593OCT     C231186   4.940   3.812   5.802 -0.1962  0.2917 -0.0648
15594OCT     C131187   4.450  13.676  18.054 -0.2179  0.1100 -0.3974
15594OCT     C231188   4.210  14.053  18.223 -0.0542 -0.3807 -0.3053
15595OCT     C131189  10.555  14.205  21.201 -0.0026  0.1394  0.3099
15595OCT     C231190  10.466  14.428  20.813 -0.0168  0.1357  0.0154
15596OCT     C131191   0.531   4.136  11.738  0.0405 -0.0079  0.5174
15596OCT     C231192   0.162   3.845  11.756  0.0783 -0.0288 -0.0829
15597OCT     C131193  17.971  13.752   5.231  0.0381  0.1727  0.0290
15597OCT     C231194  17.999  14.154   5.031  0.1201 -0.1152 -0.1643
15598OCT     C131195   1.364   2.704  16.464  0.3992  0.1832 -0.0145
15598OCT     C231196   1.293   2.367  16.108 -0.0611 -0.3661 -0.1315
15599OCT     C131197  21.711   4.367   3.753  0.4300  0.1624  0.1585
15599OCT     C231198  21.912   4.762   3.695  0.2046 -0.0551  0.1531
15600OCT     C131199  18.003   7.779   1.073  0.1750  0.0561 -0.0374
15600OCT     C231200  18.321   8.017   1.359 -0.1703 -0.3604  0.2247
15601OCT     C131201   2.057  17.345   5.596 -0.1967 -0.0259 -0.0360
15601OCT     C231202   1.745  17.702   5.787 -0.0201 -0.0589  0.2094
15602OCT     C131203   8.927  19.616   7.926  0.2618  0.0959  0.2103
15602OCT     C231204   8.931  19.515   7.428  0.0239 -0.1236  0.5285
15603OCT     C131205   9.388   2.888  21.988  0.1872  0.0796 -0.3239
15603OCT     C231206   9.584   3.124  21.628  0.6063 -0.2135 -0.2536
15604OCT     C131207  11.610  22.936  12.710  0.0240  0.0072  0.2045
15604OCT     C231208  11.494  23.274  13.112  0.3129 -0.0817 -0.0837
15605OCT     C131209  15.993  20.644  17.099  0.0496  0.1175 -0.1921
15605OCT     C231210  16.348  20.301  17.008  0.0302 -0.3377  0.0051
15606OCT     C131211   5.084  18.836  13.533  0.0332  0.3004  0.0911
15606OCT     C231212   5.174  19.249  13.822  0.0163  0.2226 -0.1787
15607OCT     C131213  19.456  17.930  20.917 -0.1399  0.0657  0.1860
15607OCT     C231214  19.288  17.486  20.934  0.0967  0.0591  0.0067
15608OCT     C131215  13.009   0.224   0.375 -0.1536 -0.1997 -0.2616
15608OCT     C231216  12.818   0.373  23.682 -0.3319  0.0626 -0.0559
15609OCT     C131217  10.634  10.032   3.054  0.0180 -0.0008 -0.1322
15609OCT     C231218  10.804  10.220   2.683 -0.0864 -0.5835  0.1922
15610OCT     C131219   4.830  23.435  18.920  0.1148  0.2623  0.1829
15610OCT     C231220   4.801  23.473  19.319 -0.6430  0.1121 -0.1262
15611OCT     C131221   3.055  21.574   7.579  0.1119 -0.3446 -0.0661
15611OCT     C231222   3.183  21.319   7.253  0.0118  0.4760 -0.0919
15612OCT     C131223  13.583   5.016  23.276  0.1442 -0.2445  0.1254
15612OCT     C231224  13.389   5.378  23.056  0.0949 -0.2720  0.2486
15613OCT     C131225  17.174  16.047  16.192 -0.0402  0.1378  0.1563
15613OCT     C231226  17.408  16.468  16.086  0.3539  0.3959  0.0614
15614OCT     C131227   2.343   1.461   7.403  0.1092  0.1871  0.3905
15614OCT     C231228   2.491   1.397   7.837 -0.3933  0.2167  0.0147
15615OCT     C131229   3.377  11.264  21.927  0.2496 -0.2853  0.3927
15615OCT     C231230   3.825  11.499  21.954 -0.6335  0.0007 -0.1302
15616OCT     C131231  12.690  10.746   0.402  0.0129  0.3747  0.0033
15616OCT     C231232  12.371  11.092   0.222  0.3205 -0.0829  0.1703
15617OCT     C131233  11.975  19.604   8.729  0.0728  0.1761  0.2870
15617OCT     C231234  11.586  19.902   8.669 -0.2705 -0.1620 -0.1466
15618OCT     C131235  13.563   1.963  19.603  0.2562 -0.4141  0.1102
15618OCT     C231236  13.213   2.142  19.847 -0.3422 -0.0232 -0.7731
15619OCT     C131237  21.984   8.744   0.580  0.1628 -0.0341 -0.1454
15619OCT     C231238  21.644   8.427   0.418 -0.1032  0.2240  0.3808
15620OCT     C131239  19.905  13.421  10.575  0.2483 -0.1862  0.0990
15620OCT     C231240  20.333  13.281  10.625  0.2043 -0.0298  0.3990
15621OCT     C131241   8.011  17.466  23.257 -0.0095 -0.2123 -0.2989
15621OCT     C231242   8.453  17.528  23.101 -0.2547 -0.0169  0.2900
15622OCT     C131243  11.097  14.953  21.545  0.0809  0.1248  0.0967
15622OCT     C231244  10.994  15.260  21.238 -0.0643  0.0283 -0.0795
15623OCT     C131245  19.258  20.571   4.511  0.0160  0.0028 -0.1520
15623OCT     C231246  19.435  21.004   4.423 -0.0280  0.1932  0.1475
15624OCT     C131247  16.305  17.653  10.202 -0.0326 -0.4402  0.0509
15624OCT     C231248  16.448  17.427   9.807 -0.1814  0.1585  0.2414
15625OCT     C131249  11.466  13.484  19.480  0.1287  0.0328  0.3832
15625OCT     C231250  11.553  13.732  19.029  0.0864 -0.2725 -0.0750
15626OCT     C131251   3.434  19.628   1.892  0.0941 -0.2559  0.3429
15626OCT     C231252   3.852  19.451   1.749  0.1127  0.2372 -0.1731
15627OCT     C131253  13.134  11.046   5.250 -0.0531  0.1072  0.1102
15627OCT     C231254  12.770  10.782   5.046 -0.0859 -0.1474  0.0277
15628OCT     C131255  15.517   9.764  23.452  0.0197  0.3035  0.0579
15628OCT     C231256  15.969   9.822  23.218  0.6353  0.1985  0.1673
15629OCT     C131257  20.253   8.159  11.732  0.0241  0.0289  0.3174
15629OCT     C231258  20.033   7.840  11.405 -0.1729 -0.1142 -0.0229
15630OCT     C131259  11.608  17.971  21.976 -0.1328  0.2161  0.3190
15630OCT     C231260  11.932  17.681  21.997 -0.3834  0.3364  0.1095
15631OCT     C131261   2.360   1.238  21.661  0.1272 -0.0414  0.2910
15631OCT     C231262   2.576   1.636  21.522  0.0111 -0.1430 -0.2748
15632OCT     C131263   4.307   1.525  15.324 -0.3308 -0.2255 -0.0334
15632OCT     C231264   4.667   1.435  15.042  0.2693 -0.0996 -0.1371
15633OCT     C131265  19.423   7.646  16.905 -0.0063 -0.2361  0.0218
15633OCT     C231266  19.897   7.578  16.893  0.5010 -0.3697 -0.0946
15634OCT     C131267   9.256   3.068  12.116 -0.0451 -0.1682 -0.2741
15634OCT     C231268   9.163   2.806  12.478 -0.1899 -0.0441  0.3383
15635OCT     C131269  11.205   4.276   6.566  0.0363 -0.0937 -0.2477
15635OCT     C231270  11.567   4.251   6.794 -0.3349 -0.0319 -0.0773
15636OCT     C131271   7.539  21.623  20.578  0.2312  0.0932  0.1943
15636OCT     C231272   7.937  21.634  20.384 -0.2432 -0.0245  0.0920
15637OCT     C131273   8.978  18.201   0.474  0.2771 -0.2826 -0.0630
15637OCT     C231274   8.855  17.952   0.887  0.0182  0.6008  0.1388
15638OCT     C131275   3.411  21.007  18.082 -0.1343  0.1231  0.1927
15638OCT     C231276   3.372  21.443  18.229 -0.1085 -0.3945 -0.0389
15639OCT     C131277  13.821   1.997  16.408 -0.4671  0.1268  0.0565
15639OCT     C231278  14.262   2.180  16.295 -0.1562  0.2784  0.0759
15640OCT     C131279  20.897  10.106  17.169 -0.3175  0.3934 -0.0844
15640OCT     C231280  20.523  10.147  17.487 -0.0364 -0.0364  0.1204
15641OCT     C131281   3.143   3.001  13.521  0.1022 -0.0359  0.2246
15641OCT     C231282   2.863   3.210  13.788 -0.0780 -0.0702  0.2174
15642OCT     C131283  12.501  20.962  18.108 -0.1096  0.6132 -0.0753
15642OCT     C231284  12.365  21.176  17.754  0.3096  0.0238  0.1689
15643OCT     C131285  21.530   6.694   2.215 -0.0158  0.2600 -0.0484
15643OCT     C231286  21.511   6.214   2.388  0.2914 -0.0782  0.1906
15644OCT     C131287   9.740  20.600   8.598 -0.0397 -0.2972 -0.0755
15644OCT     C231288   9.348  20.347   8.557  0.1881 -0.3285  0.0429
15645OCT     C131289   6.628  11.262   7.209 -0.0560 -0.0508 -0.0319
15645OCT     C231290   6.474  10.802   7.309  0.4305 -0.2708 -0.1661
15646OCT     C131291  23.181  11.609  11.923 -0.1422 -0.1861  0.1637
15646OCT     C231292  23.433  11.540  12.268 -0.2360  0.3109 -0.4757
15647OCT     C131293   7.461  17.442  20.132  0.2091  0.1415  0.3712
15647OCT     C231294   7.056  17.601  20.276  0.1093  0.0431 -0.0961
15648OCT     C131295  15.311   9.224  18.369  0.1699 -0.3934 -0.0873
15648OCT     C231296  15.809   9.210  18.497  0.1354  0.0853 -0.1836
15649OCT     C131297   2.364   3.113   2.447  0.1716 -0.0797 -0.3247
15649OCT     C231298   2.770   3.096   2.214 -0.1525 -0.0636  0.0559
15650OCT     C131299  22.019   4.496  11.605  0.0277  0.0935 -0.5115
15650OCT     C231300  22.158   4.870  11.798 -0.2188 -0.0031  0.0217
15651OCT     C131301   8.970  16.035  15.116  0.0105 -0.0883  0.1358
15651OCT     C231302   8.697  15.694  15.094  0.4559 -0.3375 -0.1204
15652OCT     C131303   8.784  20.576  14.861 -0.1070 -0.1790 -0.1164
15652OCT     C231304   8.484  20.605  15.171 -0.0782  0.3714 -0.3438
15653OCT     C131305   7.649  16.043  10.946  0.0204 -0.3579 -0.0239
15653OCT     C231306   8.047  15.776  10.757  0.1684 -0.2373  0.0216
15654OCT     C131307   2.128  11.990  14.611  0.0548  0.1744 -0.0656
15654OCT     C231308   2.155  12.395  14.767  0.3127 -0.1084  0.0130
15655OCT     C131309   3.006  20.048  14.375  0.0792  0.0371  0.3046
15655OCT     C231310   3.329  20.150  14.695 -0.0064  0.0785  0.2536
15656OCT     C131311  18.882  20.376  11.450 -0.2625  0.0841  0.2774
15656OCT     C231312  19.053  20.510  11.869 -0.1283 -0.1614  0.1566
15657OCT     C131313   6.984  18.583   7.252 -0.0735 -0.0733  0.1060
15657OCT     C231314   7.435  18.798   7.239 -0.3419 -0.2480  0.0066
15658OCT     C131315   6.376  14.572  11.699  0.1329 -0.1368  0.4434
15658OCT     C231316   6.233  14.936  11.457  0.4794 -0.0563 -0.1787
15659OCT     C131317   4.621  18.415   9.406 -0.2855 -0.2539  0.2611
15659OCT     C231318   4.378  18.784   9.570  0.1644  0.4232  0.1098
15660OCT     C131319  21.101  11.066   5.827  0.1633 -0.1519 -0.0502
15660OCT     C231320  21.349  10.726   6.073 -0.0625  0.0422 -0.1383
15661OCT     C131321  20.872  14.887  10.654  0.1500 -0.0591 -0.5408
15661OCT     C231322  20.930  14.675  11.013 -0.1222 -0.2808  0.0023
15662OCT     C131323  13.394   1.448   3.869 -0.1183 -0.1635 -0.1515
15662OCT     C231324  13.662   1.639   3.562 -0.4246  0.2656 -0.2237
15663OCT     C131325   7.701   8.558  14.866 -0.1105  0.2256 -0.2523
15663OCT     C231326   7.295   8.591  15.109  0.0514 -0.2099  0.0051
15664OCT     C131327  18.561  17.734   3.913  0.0961  0.0659  0.4341
15664OCT     C231328  18.993  17.678   4.028 -0.1653 -0.1855  0.3392
15665OCT     C131329   0.951  22.713  15.038  0.0694 -0.3389 -0.1438
15665OCT     C231330   0.805  23.146  14.857 -0.1713  0.1904  0.2017
15666OCT     C131331   6.773  14.140  13.797  0.0129  0.1572 -0.1438
15666OCT     C231332   6.879  13.719  13.583  0.4054  0.1192 -0.2631
15667OCT     C131333   4.659   6.694  12.901  0.2264  0.0587 -0.1420
15667OCT     C231334   4.854   6.575  13.277  0.4188  0.2385 -0.0659
15668OCT     C131335  10.074  15.724   6.484  0.5932  0.0792 -0.0758
15668OCT     C231336   9.835  15.310   6.489  0.3236 -0.0870  0.3505
15669OCT     C131337  17.779  13.116  10.956 -0.0283 -0.2364  0.3278
15669OCT     C231338  17.993  13.447  10.739 -0.0895 -0.1154 -0.2034
15670OCT     C131339   7.826   1.516  15.835  0.2926 -0.2329 -0.1887
15670OCT     C231340   7.680   1.312  15.459 -0.0473 -0.2318  0.1603
15671OCT     C131341   6.755   5.111  13.266  0.2954  0.1275 -0.1313
15671OCT     C231342   7.127   4.804  13.308  0.1770 -0.0660 -0.0473
15672OCT     C131343  21.068   9.800   7.805 -0.2448  0.3598 -0.0759
15672OCT     C231344  21.238   9.754   7.360 -0.1662  0.0928 -0.1251
15673OCT     C131345  11.725   0.068   9.033 -0.1200  0.1188 -0.1098
15673OCT     C231346  11.862   0.113   9.514 -0.3398  0.1871 -0.0155
15674OCT     C131347   8.095  10.840  20.932 -0.0222  0.1245  0.0065
15674OCT     C231348   8.370  10.588  21.234 -0.2022 -0.0837  0.1824
15675OCT     C131349  18.179  21.715  10.731  0.0581  0.1605  0.0855
15675OCT     C231350  18.468  21.327  10.792 -0.1593  0.0873 -0.1739
15676OCT     C131351  21.705   9.195  11.371  0.0706 -0.1373  0.3841
15676OCT     C231352  21.747   9.491  10.980 -0.2721 -0.0835 -0.1766
15677OCT     C131353  17.421  23.681   2.008 -0.1323  0.3076  0.3466
15677OCT     C231354  17.483  23.163   1.922 -0.2139  0.4807  0.4424
15678OCT     C131355  15.863  18.611  12.013 -0.2911  0.0475 -0.1944
15678OCT     C231356  15.722  18.216  12.255  0.0048 -0.4920  0.1244
15679OCT     C131357  20.053  21.838  23.312 -0.0341 -0.2874 -0.1750
15679OCT     C231358  20.351  21.517  23.412 -0.1977  0.4793  0.2873
15680OCT     C131359   2.201  17.030   1.419  0.3978 -0.1296 -0.0940
15680OCT     C231360   2.151  17.497   1.383  0.2038 -0.2239 -0.1983
15681OCT     C131361  22.045   4.493  11.078  0.2992  0.1849  0.1232
15681OCT     C231362  22.445   4.585  11.353  0.1150 -0.2590 -0.0537
15682OCT     C131363  19.535  11.284  11.942 -0.0513 -0.4620 -0.0775
15682OCT     C231364  19.258  11.430  11.615 -0.4005  0.0008 -0.1284
15683OCT     C131365   9.365   5.485  19.462  0.5065  0.0077  0.3406
15683OCT     C231366   9.217   5.951  19.420 -0.0223 -0.0201  0.2791
15684OCT     C131367  23.101  22.904  14.046  0.4260 -0.0495 -0.2639
15684OCT     C231368  23.395  22.985  13.729 -0.2468 -0.0465  0.0111
15685OCT     C131369  17.071  18.805  18.119  0.1264 -0.0467 -0.0397
15685OCT     C231370  17.328  18.685  17.713 -0.0687  0.2820 -0.3126
15686OCT     C131371   7.124  13.848   3.325  0.2626  0.0749  0.2651
15686OCT     C231372   6.933  13.762   2.870 -0.4175  0.0589  0.2350
15687OCT     C131373  17.676  16.853   9.713 -0.3916 -0.2573  0.0926
15687OCT     C231374  17.470  16.528  10.018 -0.0534  0.0420 -0.0116
15688OCT     C131375   9.799  17.527   2.791 -0.2314  0.0727  0.1326
15688OCT     C231376   9.487  17.170   2.859 -0.1551 -0.1589  0.1797
15689OCT     C131377   4.692  11.174   3.216  0.0425  0.2483  0.0146
15689OCT     C231378   4.575  10.696   3.224 -0.0904 -0.0921  0.0227
15690OCT     C131379  18.207  15.488   0.351 -0.2049  0.2239 -0.1359
15690OCT     C231380  18.108  15.619   0.805 -0.0597  0.0069 -0.0586
15691OCT     C131381  22.136  20.178  19.357  0.0163 -0.2084 -0.1077
15691OCT     C231382  21.816  20.372  19.642 -0.0922  0.0161 -0.1494
15692OCT     C131383  17.759   5.894   8.932 -0.0333 -0.4910  0.1353
15692OCT     C231384  17.508   5.985   9.298  0.1473 -0.2006  0.1055
15693OCT     C131385  14.907  14.507  19.538  0.4931 -0.0368 -0.5550
15693OCT     C231386  15.147  14.849  19.327  0.2815 -0.0422 -0.0727
15694OCT     C131387  10.588   3.351  17.673 -0.1090  0.1709  0.0073
15694OCT     C231388  10.936   3.610  17.872  0.2020 -0.1470  0.2529
15695OCT     C131389   1.740  11.737  10.042 -0.2552 -0.0638 -0.0499
15695OCT     C231390   1.814  11.533   9.616  0.1626 -0.2810  0.0438
15696OCT     C131391   7.514  20.319  18.175 -0.2518  0.0957 -0.0083
15696OCT     C231392   7.942  20.440  18.047  0.0333  0.1623 -0.0828
15697OCT     C131393  15.607   8.789   7.988  0.2041  0.1670  0.2026
15697OCT     C231394  15.519   9.250   8.006 -0.4316 -0.0160  0.0245
15698OCT     C131395   0.197  18.525  10.819  0.0613  0.0080 -0.0357
15698OCT     C231396   0.343  18.534  10.382  0.1463  0.0887  0.2012
15699OCT     C131397  15.166   6.216  16.253 -0.0176 -0.0040  0.2010
15699OCT     C231398  15.185   6.371  16.655 -0.0727  0.1150  0.3930
15700OCT     C131399  12.821  14.324  17.093  0.1422 -0.0007  0.2292
15700OCT     C231400  12.996  14.518  17.500  0.0662 -0.0499  0.4552
15701OCT     C131401  16.499   3.090  21.468  0.0152 -0.0387 -0.5696
15701OCT     C231402  16.843   2.762  21.428 -0.4610  0.3069  0.3605
15702OCT     C131403  20.614  19.763  21.385  0.1917  0.0313  0.2159
15702OCT     C231404  20.818  19.454  21.661  0.1634  0.0885  0.2403
15703OCT     C131405   4.266  19.062   1.556  0.1916 -0.3272  0.1331
15703OCT     C231406   4.344  19.454   1.821  0.0415  0.1265 -0.2780
15704OCT     C131407  21.886  20.706  18.053 -0.3368 -0.1023  0.1132
15704OCT     C231408  21.631  20.437  17.767 -0.1812 -0.1325 -0.1804
15705OCT     C131409   8.087  21.647   8.703 -0.0492  0.0766  0.1625
15705OCT     C231410   7.824  21.847   8.380 -0.0413 -0.2754  0.3879
15706OCT     C131411   4.962   3.881  16.562  0.1176  0.0698 -0.0051
15706OCT     C231412   4.692   3.949  16.205 -0.2283  0.2899  0.2760
15707OCT     C131413  19.279  12.249  16.817 -0.1474 -0.2625  0.0611
15707OCT     C231414  19.319  12.745  16.700 -0.1700  0.0788  0.2113
15708OCT     C131415  18.826   8.979  18.687 -0.0823  0.1258 -0.2782
15708OCT     C231416  18.859   8.940  18.223  0.0860  0.1650  0.1345
15709OCT     C131417  12.103  16.926  19.867 -0.2997  0.3401 -0.0859
15709OCT     C231418  11.964  17.330  19.884 -0.1918 -0.2625 -0.0119
15710OCT     C131419  15.870  22.852  18.372  0.0163  0.0654 -0.0074
15710OCT     C231420  15.589  22.779  18.022 -0.0114  0.4425 -0.3660
15711OCT     C131421  15.635   6.795   2.587 -0.0613 -0.1724  0.1401
15711OCT     C231422  15.820   6.894   2.182  0.2803  0.0823 -0.0584
15712OCT     C131423   6.886  23.096  14.357 -0.0256  0.0070 -0.0638
15712OCT     C231424   7.347  23.122  14.398 -0.1733  0.2378 -0.1452
15713OCT     C131425   6.653  17.236   1.391  0.0216  0.2551 -0.2246
15713OCT     C231426   6.547  17.759   1.442  0.2653  0.1081  0.4178
15714OCT     C131427  19.168  12.169   0.930  0.0598  0.0670  0.2381
15714OCT     C231428  18.781  12.275   0.740  0.1648  0.1499  0.2190
15715OCT     C131429  13.292  20.762  21.373 -0.1246  0.0559 -0.2308
15715OCT     C231430  12.972  20.887  21.074  0.1522 -0.0246  0.3106
15716OCT     C131431   9.775   1.736   9.772  0.1192 -0.0539  0.1287
15716OCT     C231432   9.760   1.602  10.248  0.1463 -0.0831  0.0030
15717OCT     C131433   5.864  22.377  14.472  0.1697 -0.1320 -0.1654
15717OCT     C231434   6.027  22.067  14.206  0.1253 -0.1767  0.2027
15718OCT     C131435  23.591   8.812  22.154  0.1892 -0.3876 -0.0498
15718OCT     C231436   0.004   8.387  22.199 -0.0029 -0.2332  0.1390
15719OCT     C131437  11.995   2.135   9.696 -0.2754 -0.3196  0.0565
15719OCT     C231438  12.306   2.456   9.708 -0.0009 -0.1278 -0.0513
15720OCT     C131439  20.709  11.017   4.179 -0.2398 -0.1239 -0.0349
15720OCT     C231440  20.792  11.425   4.398 -0.0535 -0.0650 -0.3848
15721OCT     C131441  20.431  10.665  13.477 -0.1831 -0.2078  0.1965
15721OCT     C231442  20.503  10.516  13.921  0.3200 -0.0593  0.0451
15722OCT     C131443   8.265  20.819  17.932  0.0431  0.2119 -0.0195
15722OCT     C231444   8.708  20.835  17.836  0.0270 -0.2047  0.2440
15723OCT     C131445  10.263  11.311   8.367  0.2396 -0.0066  0.1891
15723OCT     C231446   9.975  11.105   8.113  0.2467 -0.1692  0.2352
15724OCT     C131447  20.833  12.417   5.074  0.0769  0.0635 -0.2578
15724OCT     C231448  21.227  12.156   4.993 -0.1337  0.1736  0.1421
15725OCT     C131449  11.452   9.293  19.479 -0.0341  0.2487 -0.0937
15725OCT     C231450  11.000   9.297  19.381 -0.1517 -0.0434  0.1574
15726OCT     C131451   1.219  13.271  18.653  0.1151  0.4192 -0.3282
15726OCT     C231452   0.828  13.393  18.830 -0.0049 -0.2594  0.0506
15727OCT     C131453   8.170   2.709   1.821  0.1225 -0.3891 -0.0089
15727OCT     C231454   8.501   3.033   1.673  0.0695  0.0325 -0.1267
15728OCT     C131455  13.569   6.234  11.840  0.4045  0.0403  0.0186
15728OCT     C231456  13.902   6.426  12.117  0.2094 -0.0323  0.1650
15729OCT     C131457   8.540   7.748   1.387  0.3724  0.5478 -0.0510
15729OCT     C231458   8.735   7.836   0.939 -0.0644 -0.0381  0.1433
15730OCT     C131459  22.530  14.980  21.554  0.2168 -0.0803  0.4393
15730OCT     C231460  22.350  15.276  21.275  0.0397 -0.0995 -0.1104
15731OCT     C131461  14.642  13.542  18.916 -0.1776  0.1500 -0.0582
15731OCT     C231462  14.466  13.140  18.757 -0.3987 -0.1713  0.3108
15732OCT     C131463   1.293  22.204  12.445 -0.2205  0.1825 -0.2124
15732OCT     C231464   1.554  22.512  12.165  0.2597 -0.0378  0.0264
15733OCT     C131465   5.328  23.601   2.357 -0.0381  0.1113 -0.0967
15733OCT     C231466   5.625  23.212   2.431  0.1899  0.0989  0.0658
15734OCT     C131467   3.902  20.725  17.578  0.1084  0.0006 -0.0654
15734OCT     C231468   4.155  21.103  17.728  0.1358  0.1986 -0.0330
15735OCT     C131469  11.242  12.018   5.840 -0.5541 -0.2779  0.1688
15735OCT     C231470  11.194  11.577   5.734  0.2584 -0.0032  0.3476
15736OCT     C131471  23.444  12.720   0.462 -0.0672  0.0971 -0.3820
15736OCT     C231472  23.570  13.142   0.606  0.1340  0.3987  0.3754
15737OCT     C131473  23.398   9.792   8.519 -0.1543  0.0249 -0.0577
15737OCT     C231474  23.099  10.112   8.517 -0.3553 -0.0852  0.0217
15738OCT     C131475  22.823  17.545  14.638 -0.1974 -0.0271 -0.0763
15738OCT     C231476  23.071  17.840  14.889 -0.0536 -0.1627  0.0981
15739OCT     C131477  22.024  14.494   2.901  0.0372 -0.2089  0.1537
15739OCT     C231478  22.239  14.397   2.539  0.0410  0.2252  0.0225
15740OCT     C131479  19.362   5.044  17.945 -0.3375  0.5310 -0.0722
15740OCT     C231480  19.390   5.083  17.454 -0.2971  0.3515 -0.0239
15741OCT     C131481  23.606   6.656  17.056  0.1265 -0.2110  0.3632
15741OCT     C231482   0.040   6.461  16.623  0.1194 -0.3256  0.1619
15742OCT     C131483  12.868  16.290  16.119 -0.2128  0.2349  0.3035
15742OCT     C231484  12.538  16.075  16.371  0.0165  0.0513 -0.0362
15743OCT     C131485  12.500  18.011   0.253  0.1716  0.0159  0.0296
15743OCT     C231486  12.565  18.208   0.693  0.3013  0.1325 -0.2345
15744OCT     C131487  12.392   5.148   5.822  0.0072  0.0855  0.2928
15744OCT     C231488  12.442   5.175   6.285  0.0386  0.3392  0.1355
15745OCT     C131489  19.587   5.839   2.463 -0.3912 -0.0192  0.1217
15745OCT     C231490  19.241   5.616   2.385  0.0434  0.1483 -0.0655
15746OCT     C131491   6.584  19.515   7.567 -0.0540  0.0391 -0.1652
15746OCT     C231492   6.762  19.209   7.887 -0.3323 -0.0865 -0.0862
15747OCT     C131493   0.360  13.789   1.152  0.0505 -0.4952  0.0102
15747OCT     C231494   0.348  14.066   0.776 -0.0804 -0.1374  0.1762
15748OCT     C131495  16.055  14.020  22.156  0.1579 -0.3185 -0.6394
15748OCT     C231496  16.262  13.825  22.508 -0.0055 -0.1781  0.1893
15749OCT     C131497   1.729  20.120   4.634  0.0947  0.1178 -0.0958
15749OCT     C231498   1.921  19.891   4.253 -0.0291 -0.3830  0.2522
15750OCT     C131499  20.847   8.866  22.491 -0.2744 -0.2499  0.0967
15750OCT     C231500  20.988   8.918  22.067 -0.1929 -0.1908 -0.0643
15751OCT     C131501  12.115  14.017  23.643 -0.1935 -0.0502 -0.4032
15751OCT     C231502  12.527  14.039   0.039 -0.2194 -0.3525 -0.0595
15752OCT     C131503  16.121  22.895  15.964 -0.2237  0.1057  0.3293
15752OCT     C231504  16.479  23.218  16.054 -0.1948 -0.0421  0.0474
15753OCT     C131505   2.793   0.282  20.059  0.0173 -0.3115  0.1963
15753OCT     C231506   2.852   0.674  19.824  0.4291 -0.1922 -0.1603
15754OCT     C131507   1.692   2.111  10.087  0.1415 -0.0664 -0.1498
15754OCT     C231508   1.977   1.837  10.251  0.1864  0.1060  0.0328
15755OCT     C131509  15.223   4.147  11.880 -0.1599 -0.1898 -0.0416
15755OCT     C231510  15.682   4.130  11.956 -0.0517 -0.2898 -0.0991
15756OCT     C131511   8.837  13.263  13.714 -0.0104 -0.2160  0.2331
15756OCT     C231512   8.640  13.103  14.097  0.0990  0.0055  0.3364
15757OCT     C131513   6.692   1.704   3.300 -0.1750  0.0309 -0.0202
15757OCT     C231514   6.930   2.132   3.351 -0.0283 -0.1360 -0.1860
15758OCT     C131515  10.892   7.272   4.537 -0.2161  0.0230 -0.0392
15758OCT     C231516  11.296   7.516   4.662 -0.1355  0.2327  0.2711
15759OCT     C131517  18.834  17.767  19.109  0.1158 -0.4579 -0.1406
15759OCT     C231518  19.033  18.113  19.295 -0.0515  0.2471 -0.0539
15760OCT     C131519  11.065  22.082  20.345  0.2427  0.1612 -0.3835
15760OCT     C231520  11.048  21.684  20.536 -0.2605  0.0693 -0.2601
15761OCT     C131521   0.450   6.893  22.683  0.1029 -0.1071  0.1540
15761OCT     C231522   0.592   6.635  22.365  0.3912  0.1559 -0.0425
15762OCT     C131523  21.609   9.528  13.450 -0.0045  0.0476 -0.5013
15762OCT     C231524  21.929   9.267  13.679  0.0651  0.0014 -0.2617
15763OCT     C131525  11.437   7.682  13.479  0.1285 -0.0874  0.1065
15763OCT     C231526  11.210   8.087  13.526 -0.1600 -0.3321  0.2846
15764OCT     C131527  18.667  11.845   9.889  0.2604 -0.0962 -0.0802
15764OCT     C231528  18.315  12.159   9.837  0.1325  0.0520  0.4662
15765OCT     C131529  19.426  23.390  14.324  0.3839 -0.0919 -0.2327
15765OCT     C231530  19.799  23.277  14.570  0.3582  0.0280  0.1793
15766OCT     C131531   9.109   7.184  22.737 -0.0573 -0.2598  0.1478
15766OCT     C231532   9.265   6.781  23.001 -0.2126 -0.0795 -0.3790
15767OCT     C131533   3.902  17.409   4.507 -0.2638  0.1178  0.1394
15767OCT     C231534   4.265  17.650   4.738  0.3068 -0.0152 -0.0025
15768OCT     C131535  16.467  12.347  13.132 -0.0563  0.2410 -0.2161
15768OCT     C231536  16.635  12.580  13.521 -0.1925  0.0109  0.0293
15769OCT     C131537   5.020   1.824  10.534  0.4246 -0.0390 -0.1143
15769OCT     C231538   4.657   2.091  10.809  0.1570 -0.0078 -0.1761
15770OCT     C131539   7.209   8.156   0.703 -0.2751 -0.3088 -0.0316
15770OCT     C231540   7.465   7.856   0.508 -0.0593  0.2194  0.0756
15771OCT     C131541  11.343  18.309  12.179 -0.2756  0.1375 -0.0449
15771OCT     C231542  11.402  18.759  12.161  0.1635 -0.0772 -0.0949
15772OCT     C131543  22.390  21.567   6.555 -0.1562  0.4019  0.2064
15772OCT     C231544  22.579  21.926   6.326  0.1723  0.1321 -0.2720
15773OCT     C131545  12.260   2.876   5.802  0.2590  0.1275  0.1409
15773OCT     C231546  12.260   2.654   6.244 -0.0107  0.2706 -0.3832
15774OCT     C131547  21.160   4.808  21.651 -0.0775 -0.0373  0.1219
15774OCT     C231548  21.428   4.401  21.792 -0.3259 -0.0538 -0.2136
15775OCT     C131549  21.768   3.016   3.493  0.1167  0.0873 -0.0031
15775OCT     C231550  21.871   2.757   3.109 -0.0425 -0.0888  0.1143
15776OCT     C131551   0.325  19.000   9.263  0.3841 -0.1267  0.2123
15776OCT     C231552   0.668  18.752   9.516 -0.2913 -0.1555  0.0904
15777OCT     C131553  17.842   5.099  15.059  0.0466  0.0198 -0.0738
15777OCT     C231554  18.142   4.733  14.942 -0.1913 -0.0289  0.3609
15778OCT     C131555  13.414   7.722  13.804 -0.0274 -0.0267 -0.0055
15778OCT     C231556  13.278   7.416  13.414 -0.1907  0.0543  0.1286
15779OCT     C131557  23.497  13.822  12.016 -0.0790 -0.2291  0.2680
15779OCT     C231558  23.372  13.412  11.935  0.4144  0.3546 -0.0702
15780OCT     C131559   0.018   3.833  12.640  0.0320  0.3534 -0.1912
15780OCT     C231560   0.395   3.735  12.899  0.1326  0.0886  0.3746
15781OCT     C131561  23.450  15.159   3.857  0.1152 -0.1374 -0.2965
15781OCT     C231562  23.686  15.342   4.200  0.1197  0.1769  0.5600
15782OCT     C131563  20.424  19.824  23.735  0.2234 -0.0461 -0.0535
15782OCT     C231564  20.767  19.865  23.433 -0.1535 -0.2591  0.2580
15783OCT     C131565  19.957   4.038   5.131  0.3453 -0.0697 -0.2178
15783OCT     C231566  19.774   4.363   4.921  0.1740 -0.2560 -0.0495
15784OCT     C131567  20.051   9.321  19.040  0.2596 -0.1525  0.0246
15784OCT     C231568  19.873   8.863  18.966  0.0463 -0.0234  0.2139
15785OCT     C131569  12.633   6.339   6.780  0.4146  0.0462 -0.0687
15785OCT     C231570  12.836   6.708   7.001 -0.2255  0.1372 -0.0248
15786OCT     C131571   9.722  21.501   5.638 -0.1251  0.3182  0.4376
15786OCT     C231572  10.104  21.294   5.784  0.3964  0.0436  0.1280
15787OCT     C131573   4.109  22.158  12.586 -0.1075 -0.4845 -0.1508
15787OCT     C231574   4.580  22.299  12.658  0.0007 -0.0810  0.0048
15788OCT     C131575  15.019  21.363   0.488 -0.1118  0.1482 -0.0568
15788OCT     C231576  14.650  21.586   0.484  0.2688  0.2022 -0.1709
15789OCT     C131577  18.623  23.088   1.899  0.2328  0.1340  0.2006
15789OCT     C231578  18.336  23.241   1.567  0.2298  0.6255  0.0123
15790OCT     C131579  20.293  22.111   4.317  0.1690 -0.0932  0.2052
15790OCT     C231580  19.884  22.151   4.203 -0.3110 -0.0755 -0.4165
15791OCT     C131581  20.113  10.574  22.424  0.1860 -0.2443 -0.2694
15791OCT     C231582  20.269  10.690  21.977 -0.0245 -0.0793 -0.1600
15792OCT     C131583   2.767   0.014   8.597 -0.4897  0.0795 -0.2259
15792OCT     C231584   2.747   0.408   8.729 -0.1630 -0.0303  0.4246
15793OCT     C131585   1.153  18.195   2.612 -0.1424  0.1011  0.3259
15793OCT     C231586   0.821  17.942   2.631  0.1656 -0.0286 -0.1423
15794OCT     C131587  14.652   3.857  15.670 -0.1347  0.1452  0.0350
15794OCT     C231588  15.058   3.833  15.583 -0.2021 -0.0058  0.2421
15795OCT     C131589  21.231  10.458   2.025 -0.2087  0.0577 -0.3271
15795OCT     C231590  20.997  10.494   2.458 -0.4167 -0.0708 -0.2709
15796OCT     C131591   9.023   6.973  10.362  0.3521  0.2444  0.0446
15796OCT     C231592   8.945   7.466  10.472 -0.5244 -0.1835  0.0582
15797OCT     C131593  15.164   0.479  22.120  0.0156 -0.0037 -0.0906
15797OCT     C231594  14.828   0.544  22.433 -0.0933  0.0500  0.0541
15798OCT     C131595   2.245   5.891  17.361 -0.4986  0.0093  0.0289
15798OCT     C231596   2.158   6.334  17.342 -0.2715 -0.2424  0.0726
15799OCT     C131597  16.411  21.768  19.823 -0.3992  0.1334  0.2296
15799OCT     C231598  16.042  21.495  19.912 -0.1833 -0.1647 -0.0803
15800OCT     C131599  18.513   8.124  19.679 -0.2955 -0.0664  0.0766
15800OCT     C231600  18.604   7.905  19.290  0.2844 -0.2820 -0.2489
15801OCT     C131601  11.757  11.667   0.343  0.1147  0.3607 -0.2815
15801OCT     C231602  12.111  11.867   0.005 -0.2842  0.1369  0.0884
15802OCT     C131603   4.637   8.638  11.951  0.0207  0.2301  0.1104
15802OCT     C231604   4.185   8.615  11.825  0.3300  0.3602 -0.0733
15803OCT     C131605   7.146   3.613   9.481  0.1659  0.0953  0.0585
15803OCT     C231606   7.327   3.226   9.538 -0.2666 -0.1319 -0.3062
15804OCT     C131607  19.251   1.773   2.441 -0.0936 -0.0817 -0.1288
15804OCT     C231608  19.422   1.364   2.652  0.4729  0.4357  0.2207
15805OCT     C131609  10.184  21.327   5.232  0.2392 -0.0980 -0.1513
15805OCT     C231610   9.946  21.693   5.142  0.3477  0.1020 -0.0265
15806OCT     C131611   7.597  11.717   5.991 -0.6309  0.3576  0.1389
15806OCT     C231612   7.710  11.880   5.550 -0.1647  0.0088  0.1948
15807OCT     C131613  13.412  22.896  13.233  0.1123 -0.0364  0.0163
15807OCT     C231614  13.380  23.125  13.690  0.0226 -0.0979  0.1874
15808OCT     C131615  20.593  12.445  10.491  0.2018  0.0261  0.2264
15808OCT     C231616  20.576  12.907  10.355  0.2345 -0.1929 -0.0225
15809OCT     C131617   2.745   3.772  17.093 -0.0262  0.0318  0.1654
15809OCT     C231618   2.709   4.254  17.028  0.0289  0.1453 -0.3275
15810OCT     C131619  20.532  16.682   2.006  0.0813  0.0182  0.1980
15810OCT     C231620  20.559  16.410   2.329  0.2816  0.0124  0.2338
15811OCT     C131621   5.776  17.770   9.816 -0.2466  0.2956  0.0830
15811OCT     C231622   5.800  17.878   9.386 -0.2025 -0.1299  0.2062
15812OCT     C131623  12.482  22.170  15.654 -0.1085  0.1217 -0.2277
15812OCT     C231624  12.773  22.412  15.438  0.1854 -0.4102 -0.3800
15813OCT     C131625   1.461  11.366   9.205  0.0702  0.0832  0.0726
15813OCT     C231626   1.886  11.365   9.107 -0.2579  0.1873  0.3265
15814OCT     C131627  23.592   5.575   3.627 -0.4492 -0.0108 -0.1229
15814OCT     C231628  23.466   5.348   4.032 -0.2471 -0.1125 -0.0856
15815OCT     C131629  20.012  15.005  15.429  0.0376 -0.0528 -0.1739
15815OCT     C231630  20.368  14.851  15.194 -0.0047  0.0210 -0.6403
15816OCT     C131631   6.055  17.341   8.649 -0.0241 -0.1233 -0.0681
15816OCT     C231632   5.812  17.588   8.374  0.1950 -0.1444  0.1465
15817OCT     C131633  21.887   5.924  18.151  0.1014 -0.0126  0.1981
15817OCT     C231634  21.907   6.274  18.479  0.0409 -0.1173 -0.1851
15818OCT     C131635  10.794   1.877  15.755 -0.4127 -0.0666 -0.1098
15818OCT     C231636  11.206   1.650  15.831 -0.1595 -0.4916  0.3606
15819OCT     C131637  18.787  15.581  15.218 -0.1080 -0.1060 -0.2251
15819OCT     C231638  18.815  15.311  14.880 -0.4018  0.1502 -0.2713
15820OCT     C131639  20.659   6.895   5.056  0.2919  0.1916 -0.0503
15820OCT     C231640  20.382   7.185   5.362  0.1279 -0.0520 -0.0409
15821OCT     C131641   0.673   8.513   5.688  0.0412  0.1943 -0.1271
15821OCT     C231642   0.729   8.168   5.995  0.0249 -0.0594  0.3056
15822OCT     C131643  12.253  19.569  17.795 -0.0502 -0.0777  0.2437
15822OCT     C231644  12.382  19.744  18.207  0.2533 -0.2282  0.1072
15823OCT     C131645   3.346   3.934  18.799 -0.2291  0.0500  0.2037
15823OCT     C231646   3.704   3.612  18.993 -0.1712  0.0859 -0.2131
15824OCT     C131647   0.229  15.139  16.021  0.0117 -0.0415  0.1650
15824OCT     C231648  23.714  14.848  15.708  0.3396  0.0246  0.0363
15825OCT     C131649  18.604  22.462   6.301 -0.1470  0.0009 -0.2872
15825OCT     C231650  18.506  22.229   6.698 -0.2108 -0.1962  0.1499
15826OCT     C131651  17.243   4.980   5.141 -0.2127 -0.1150  0.1327
15826OCT     C231652  17.325   4.804   4.684  0.3849 -0.0977 -0.3232
15827OCT     C131653  22.514  12.297  17.235  0.0630  0.2251  0.2159
15827OCT     C231654  22.422  12.177  17.728  0.0496  0.0558  0.5067
15828OCT     C131655  10.830   4.144  19.307  0.0759  0.1544 -0.1173
15828OCT     C231656  10.530   3.856  19.170  0.0059 -0.2209 -0.2254
15829OCT     C131657  22.312   3.734  20.289 -0.0222  0.0698 -0.2577
15829OCT     C231658  21.938   3.623  20.026  0.2035 -0.0094  0.1127
15830OCT     C131659   4.510  15.395  13.728  0.1444  0.1421  0.3375
15830OCT     C231660   4.052  15.555  13.562 -0.0820 -0.0340 -0.1756
15831OCT     C131661   8.296  12.094   3.627  0.1374 -0.3357 -0.1358
15831OCT     C231662   8.584  11.817   3.307  0.0969  0.0779  0.0348
15832OCT     C131663   6.993  14.291  21.340 -0.1571 -0.0959 -0.5817
15832OCT     C231664   7.375  14.533  21.303  0.1698 -0.4922 -0.4157
15833OCT     C131665  15.530   8.256  12.200  0.1905 -0.1338 -0.1111
15833OCT     C231666  15.052   8.196  12.110 -0.0262 -0.0606  0.4627
15834OCT     C131667  18.559  22.178   4.950  0.1740  0.4485 -0.0621
15834OCT     C231668  18.529  22.158   5.400  0.2261  0.0693 -0.0581
15835OCT     C131669  11.644   0.636  23.318 -0.1640  0.0169  0.1486
15835OCT     C231670  11.695   0.495  23.712 -0.0442  0.1550  0.3223
15836OCT     C131671  19.835   1.423   1.167 -0.1850 -0.1226 -0.1856
15836OCT     C231672  20.036   1.868   1.104  0.2197  0.2697 -0.0886
15837OCT     C131673  10.698  22.372  23.691 -0.0650  0.0643  0.1727
15837OCT     C231674  11.136  22.430  23.535  0.1446  0.0951  0.0138
15838OCT     C131675  15.202  15.849  16.678 -0.0557  0.0783 -0.0003
15838OCT     C231676  15.109  16.326  16.658  0.1909 -0.3575 -0.2819
15839OCT     C131677   3.265  13.162   2.391  0.1528 -0.2235  0.0627
15839OCT     C231678   2.886  12.947   2.388  0.0789  0.0345 -0.3023
15840OCT     C131679   7.062  21.108  10.162 -0.0028  0.2319  0.0561
15840OCT     C231680   7.269  20.850  10.495 -0.1872  0.0393  0.0522
15841OCT     C131681  13.865   7.893  17.047  0.5884  0.3210 -0.0445
15841OCT     C231682  14.071   7.486  17.199  0.0314 -0.0083 -0.4067
15842OCT     C131683  18.506   3.155   0.539  0.2492 -0.0613 -0.0346
15842OCT     C231684  18.763   2.742   0.620  0.2622 -0.1573  0.1771
15843OCT     C131685   8.923  11.710  23.578 -0.2916  0.0156  0.4137
15843OCT     C231686   8.933  11.443   0.162 -0.3516 -0.1802 -0.4147
15844OCT     C131687   3.857  21.468  10.711 -0.1240  0.0752  0.2845
15844OCT     C231688   3.665  21.732  10.356  0.0396  0.0638 -0.0748
15845OCT     C131689  14.324  11.968   4.973  0.1379 -0.2861 -0.1536
15845OCT     C231690  14.413  11.500   4.823 -0.1655 -0.1041 -0.2793
15846OCT     C131691  19.651  22.893  17.737  0.2253 -0.3657  0.0471
15846OCT     C231692  19.280  23.152  17.655 -0.0512  0.1072  0.1698
15847OCT     C131693   4.395  21.906  12.303 -0.1260  0.1192 -0.1394
15847OCT     C231694   4.041  21.611  12.164 -0.1242  0.2697  0.4311
15848OCT     C131695   7.756  14.820   6.133 -0.0645  0.1638  0.2144
15848OCT     C231696   7.373  14.794   6.419 -0.1530  0.6378  0.1396
15849OCT     C131697  11.489  10.521  19.224  0.0406  0.0821  0.1686
15849OCT     C231698  11.054  10.449  19.345  0.3684  0.1906 -0.1045
15850OCT     C131699  22.773  23.571  21.329 -0.2587  0.0580  0.0505
15850OCT     C231700  22.858   0.215  21.186 -0.0868  0.3693  0.0111
15851OCT     C131701  16.223  16.674  22.205 -0.2126 -0.0885  0.0857
15851OCT     C231702  15.769  16.554  22.337  0.2430  0.3678 -0.0480
15852OCT     C131703  21.209   9.362  14.311  0.0832 -0.4147 -0.1520
15852OCT     C231704  21.278   9.533  13.805  0.2918 -0.0517 -0.0427
15853OCT     C131705   8.062   9.024   1.380 -0.3006  0.1073 -0.2287
15853OCT     C231706   8.128   9.026   1.829 -0.0023 -0.1013 -0.0283
15854OCT     C131707   4.283   0.793   3.903 -0.2222 -0.5975 -0.3745
15854OCT     C231708   3.800   0.726   3.888  0.0806  0.0483  0.0578
15855OCT     C131709  11.888  11.520  23.201  0.3243 -0.0229 -0.0814
15855OCT     C231710  12.172  11.876  23.227  0.0578  0.1515 -0.1796
15856OCT     C131711  21.607   7.287   4.279 -0.0810 -0.0269 -0.1075
15856OCT     C231712  21.399   7.420   3.912 -0.0321 -0.2577  0.2191
15857OCT     C131713   9.385   6.840  14.506 -0.6013  0.0111 -0.0068
15857OCT     C231714   9.244   7.240  14.707 -0.2601 -0.1096  0.0113
15858OCT     C131715   5.916   1.917  11.055 -0.0863  0.3293  0.1109
15858OCT     C231716   5.649   1.537  10.864  0.0506  0.0983  0.0976
15859OCT     C131717  14.017   9.635   7.072 -0.2098  0.0998 -0.0614
15859OCT     C231718  13.882   9.243   6.844  0.0975 -0.3073  0.0405
15860OCT     C131719  16.779   7.527   5.381  0.1492 -0.0682  0.0439
15860OCT     C231720  16.370   7.815   5.353  0.0678  0.2046 -0.2149
15861OCT     C131721  20.563  21.878   2.844  0.0241  0.2075  0.0733
15861OCT     C231722  20.360  22.050   2.477  0.2601  0.1399 -0.1027
15862OCT     C131723  14.740  12.229  15.937 -0.0861  0.3929 -0.0225
15862OCT     C231724  14.959  12.601  15.727  0.1466  0.2191 -0.0283
15863OCT     C131725  11.596  13.324  17.557  0.1108  0.1638  0.1624
15863OCT     C231726  11.639  12.876  17.491  0.0012  0.0340 -0.1470
15864OCT     C131727  21.650   7.516  14.843  0.5418  0.1627  0.0879
15864OCT     C231728  21.719   7.043  14.625  0.2311  0.0955  0.1671
15865OCT     C131729  16.269  19.836  11.227 -0.1909 -0.3146 -0.4046
15865OCT     C231730  15.894  20.044  11.479 -0.1465  0.1163 -0.6869
15866OCT     C131731  18.594  22.686   2.150 -0.0667 -0.2095 -0.3167
15866OCT     C231732  19.031  22.623   1.999 -0.0133 -0.1152 -0.2445
15867OCT     C131733  19.762   2.420  16.394  0.3427  0.0545  0.1391
15867OCT     C231734  20.069   2.319  16.775 -0.1388 -0.1595 -0.0862
15868OCT     C131735  22.914  12.636  15.165  0.0856 -0.1517 -0.0131
15868OCT     C231736  23.149  12.347  14.854  0.2202  0.2100  0.2952
15869OCT     C131737   1.658   4.542  13.537 -0.4191  0.1138 -0.1327
15869OCT     C231738   2.039   4.242  13.612  0.2503 -0.1084 -0.0134
15870OCT     C131739  10.074  14.324  19.400  0.3602  0.2120 -0.3217
15870OCT     C231740  10.324  14.314  19.807  0.2482  0.1284 -0.2747
15871OCT     C131741   8.812  15.780  15.576  0.1888 -0.2677 -0.1676
15871OCT     C231742   8.900  15.678  16.068  0.0768  0.2530  0.0728
15872OCT     C131743   8.012   6.694  20.661 -0.3355  0.2260  0.3663
15872OCT     C231744   8.296   6.392  20.501 -0.1207 -0.1780 -0.0008
15873OCT     C131745  12.143  13.002  11.225 -0.3500 -0.1619  0.3472
15873OCT     C231746  11.729  12.767  11.081  0.1921  0.3326 -0.0835
15874OCT     C131747  12.018   0.652  15.348  0.2721 -0.1290  0.1784
15874OCT     C231748  12.429   0.448  15.313  0.1466 -0.2894 -0.0130
15875OCT     C131749   6.396   7.234  16.196 -0.1305 -0.2883 -0.1694
15875OCT     C231750   6.705   7.361  16.528 -0.1815  0.0549 -0.0264
15876OCT     C131751   2.849   9.086   6.109  0.1060 -0.0979  0.1931
15876OCT     C231752   2.573   9.209   5.800 -0.1331  0.4617  0.2555
15877OCT     C131753  12.991  20.983  20.581 -0.5598 -0.0516  0.0614
15877OCT     C231754  12.693  21.251  20.794  0.2267 -0.0155 -0.4639
15878OCT     C131755   2.514  19.216  20.158  0.3699 -0.5487 -0.3602
15878OCT     C231756   2.475  18.874  20.474  0.2146 -0.0709  0.0603
15879OCT     C131757  20.623   4.221  21.700 -0.1197  0.0248 -0.0722
15879OCT     C231758  20.838   4.503  21.338  0.0666  0.0859  0.1663
15880OCT     C131759   7.343  20.669  11.065  0.1022  0.1328  0.0275
15880OCT     C231760   7.706  21.033  11.049  0.1382  0.1387  0.2762
15881OCT     C131761   7.482  11.536  12.266 -0.1865 -0.0743 -0.1055
15881OCT     C231762   7.416  11.916  12.012  0.2689  0.1690 -0.2172
15882OCT     C131763   1.507  11.919  11.667  0.1368  0.0423 -0.0174
15882OCT     C231764   1.176  11.817  11.967  0.0141  0.0115 -0.3454
15883OCT     C131765   1.818  18.119  13.973  0.0352  0.0533  0.1183
15883OCT     C231766   1.445  18.406  13.876 -0.1572 -0.0559 -0.1320
15884OCT     C131767  15.212  20.090   8.468 -0.3583  0.0072  0.3279
15884OCT     C231768  15.452  20.064   8.055 -0.2867 -0.0712  0.1408
15885OCT     C131769   2.748  14.742  19.760  0.2526  0.1383 -0.0390
15885OCT     C231770   2.829  14.332  19.570  0.2323 -0.0884 -0.0185
15886OCT     C131771  16.331  14.743   7.432  0.0841 -0.0584  0.1192
15886OCT     C231772  15.903  14.525   7.648 -0.4711 -0.0896 -0.1412
15887OCT     C131773  22.078   1.627   6.983  0.1329 -0.3087  0.0350
15887OCT     C231774  22.157   1.126   6.927 -0.0733 -0.0053 -0.2888
15888OCT     C131775  10.435   1.606   8.463  0.0017 -0.0706  0.3127
15888OCT     C231776  10.053   1.396   8.279 -0.0051 -0.0083  0.2006
15889OCT     C131777  12.394   8.086  14.306  0.1768 -0.1889 -0.1126
15889OCT     C231778  12.036   7.808  14.317 -0.2657 -0.1356  0.3186
15890OCT     C131779  20.429  19.204   3.661 -0.2333  0.0340 -0.1435
15890OCT     C231780  20.758  18.873   3.695  0.2425 -0.1953  0.3567
15891OCT     C131781   0.384  13.837  11.238  0.2979  0.0372  0.0459
15891OCT     C231782   0.448  13.700  10.811 -0.2387  0.1072 -0.3656
15892OCT     C131783   8.908  23.181   8.433  0.0194  0.0829 -0.0479
15892OCT     C231784   8.902  22.822   8.695  0.3583  0.0424  0.1787
15893OCT     C131785   2.649  16.450   1.091  0.2198  0.3505  0.1729
15893OCT     C231786   2.532  16.012   1.269 -0.3155 -0.0350  0.2320
15894OCT     C131787  19.314   9.426   6.200  0.1668 -0.0569  0.0347
15894OCT     C231788  19.356   9.113   6.509 -0.4985 -0.2789  0.0740
15895OCT     C131789   7.367  18.627   7.793  0.0126 -0.3241 -0.2040
15895OCT     C231790   7.539  18.205   7.862  0.3178  0.1685  0.2179
15896OCT     C131791   2.453   7.066  14.449  0.1335 -0.2216 -0.1003
15896OCT     C231792   2.110   7.150  14.705 -0.0643 -0.1232 -0.0324
15897OCT     C131793  14.418   3.649  20.621 -0.2831  0.2904  0.1183
15897OCT     C231794  14.018   3.530  20.705 -0.0799  0.1687  0.1690
15898OCT     C131795   4.048   0.347   1.657  0.1492  0.3311  0.1491
15898OCT     C231796   4.177  23.686   1.525 -0.0783  0.1582 -0.1340
15899OCT     C131797  16.788   1.523   4.525 -0.1235  0.2865  0.4263
15899OCT     C231798  16.649   1.179   4.260 -0.3363  0.1142 -0.0572
15900OCT     C131799   6.300  10.867  12.642 -0.1071 -0.1062  0.2832
15900OCT     C231800   6.593  10.658  12.435 -0.1494 -0.1085 -0.0094
15901OCT     C131801  19.815   9.779  23.280  0.0219  0.4914 -0.2566
15901OCT     C231802  19.397   9.577  23.195  0.2660 -0.2927 -0.1660
15902OCT     C131803  12.958  15.864  15.349  0.1080  0.0799  0.5167
15902OCT     C231804  13.008  16.239  15.639  0.1090 -0.0844  0.2660
15903OCT     C131805  11.285   9.208   2.854 -0.0895 -0.1916  0.1678
15903OCT     C231806  10.926   9.514   2.824  0.1944 -0.2304 -0.1119
15904OCT     C131807  22.488   9.610  19.063 -0.2603 -0.2264  0.1695
15904OCT     C231808  22.619  10.047  19.048 -0.0422 -0.0305 -0.1432
15905OCT     C131809   2.226   9.452  17.025  0.2436  0.0943  0.0468
15905OCT     C231810   2.177   9.219  17.433 -0.2884  0.0717 -0.1938
15906OCT     C131811   8.980  20.779  23.231  0.0916 -0.0209  0.2998
15906OCT     C231812   9.205  20.494  23.501 -0.2740 -0.0711 -0.4597
15907OCT     C131813   7.289  16.389   8.516  0.0211 -0.0720 -0.1744
15907OCT     C231814   7.624  16.058   8.626  0.0199 -0.2086 -0.0544
15908OCT     C131815   5.012  14.955  23.483  0.1174  0.1477 -0.1446
15908OCT     C231816   5.139  15.331  23.236  0.1551 -0.1644  0.3928
15909OCT     C131817   7.819  16.047   2.028 -0.0748  0.3038  0.2504
15909OCT     C231818   7.942  15.855   2.452  0.1863  0.1301  0.1685
15910OCT     C131819  19.592  12.113   9.677  0.1682 -0.3023 -0.3783
15910OCT     C231820  19.864  12.072   9.282 -0.0215  0.2110 -0.3020
15911OCT     C131821  11.200  17.732  18.246  0.0818 -0.4821 -0.1798
15911OCT     C231822  10.797  17.789  18.139 -0.3800 -0.1104 -0.1267
15912OCT     C131823  20.021   2.220   1.450 -0.5230 -0.1532 -0.1060
15912OCT     C231824  20.197   2.163   1.871  0.0752  0.2576 -0.0748
15913OCT     C131825   3.869  10.878   3.263  0.1053  0.0527  0.1672
15913OCT     C231826   4.152  10.665   3.598  0.3411 -0.0041 -0.1248
15914OCT     C131827   8.307  12.098  20.335 -0.0254  0.2283  0.0210
15914OCT     C231828   8.424  11.650  20.226 -0.2545  0.2356 -0.0642
15915OCT     C131829   2.969   8.845  12.285  0.0827 -0.2076 -0.2406
15915OCT     C231830   2.589   8.569  12.281 -0.1921 -0.2847 -0.0333
15916OCT     C131831   7.349   5.464  13.987 -0.1094  0.0089  0.1585
15916OCT     C231832   7.788   5.529  14.234  0.0700  0.1309 -0.1347
15917OCT     C131833   9.028   2.591  10.261 -0.2108 -0.1675  0.4596
15917OCT     C231834   9.240   2.703   9.820  0.4417  0.0136 -0.2340
15918OCT     C131835  14.792  21.069  12.420  0.5513  0.1184  0.0207
15918OCT     C231836  14.348  20.873  12.343 -0.0288 -0.1542  0.1865
15919OCT     C131837   5.223   1.735  11.665 -0.1333  0.0486 -0.1741
15919OCT     C231838   5.064   1.845  12.058 -0.2091  0.2236 -0.0847
15920OCT     C131839  14.744  19.762  13.294  0.1823 -0.1449 -0.2639
15920OCT     C231840  15.193  19.638  13.376  0.1168  0.0820 -0.2069
15921OCT     C131841  18.947   5.285  23.538 -0.1224  0.0812 -0.0297
15921OCT     C231842  18.964   5.713   0.013 -0.3486  0.4670  0.1036
15922OCT     C131843  11.644   6.173  14.291  0.2969  0.2201 -0.2902
15922OCT     C231844  11.880   5.757  14.233 -0.2092 -0.2449  0.1992
15923OCT     C131845   9.617  17.905  14.060 -0.3076 -0.2179 -0.0562
15923OCT     C231846   9.152  17.874  14.010  0.2767  0.3766  0.0816
15924OCT     C131847  18.792   9.351   1.203  0.2368  0.0451  0.2121
15924OCT     C231848  18.746   9.299   0.703 -0.0507 -0.2666  0.0983
15925OCT     C131849  23.390  20.376  16.707 -0.1450 -0.0809 -0.0542
15925OCT     C231850  23.564  20.781  16.870  0.0884 -0.2127  0.3232
15926OCT     C131851   9.107  17.119  22.757 -0.0695 -0.0891 -0.1345
15926OCT     C231852   9.224  17.399  22.407  0.1324 -0.2007 -0.0498
15927OCT     C131853   7.855   7.764   5.880 -0.3656 -0.1078 -0.1879
15927OCT     C231854   7.623   7.886   5.473  0.3072  0.3595 -0.2202
15928OCT     C131855  12.421   3.778  16.658 -0.0851 -0.0344  0.0340
15928OCT     C231856  12.151   3.394  16.523 -0.3893 -0.0571 -0.1402
15929OCT     C131857  11.847  15.860   1.152 -0.2120  0.0564  0.0278
15929OCT     C231858  11.600  15.567   0.908 -0.3776  0.0605 -0.0411
15930OCT     C131859  23.372   9.662  14.710  0.1910 -0.0347  0.0668
15930OCT     C231860  23.168   9.789  15.127  0.0103  0.0904 -0.0749
15931OCT     C131861   4.005   0.679   1.264  0.0795  0.0553 -0.1309
15931OCT     C231862   3.588   0.463   1.434 -0.1486  0.2384  0.1906
15932OCT     C131863   1.287   9.517  16.899 -0.1141  0.1797  0.2601
15932OCT     C231864   1.397   9.363  16.401  0.0084  0.0984 -0.1357
15933OCT     C131865   1.355  20.155  19.096  0.1646  0.3165 -0.0842
15933OCT     C231866   1.514  20.146  19.554 -0.0008 -0.0430 -0.1553
15934OCT     C131867  21.341   1.178  12.686 -0.3482 -0.4259 -0.1996
15934OCT     C231868  21.014   1.490  12.717 -0.0798 -0.1549  0.2773
15935OCT     C131869  16.612  15.233  23.200 -0.2561 -0.1543 -0.0307
15935OCT     C231870  16.529  15.422  23.582  0.2861  0.2558 -0.4552
15936OCT     C131871   2.212   9.856  10.421  0.0132 -0.1684 -0.0281
15936OCT     C231872   2.595   9.894  10.104 -0.1849  0.2013 -0.2761
15937OCT     C131873   3.201   0.467  13.821 -0.1669  0.2023 -0.2795
15937OCT     C231874   3.142   0.275  13.369 -0.0638 -0.2175 -0.0524
15938OCT     C131875   3.878  13.465   4.786  0.1476  0.2463  0.1282
15938OCT     C231876   3.629  13.855   4.889 -0.0428 -0.0013  0.2167
15939OCT     C131877  17.622  12.637  10.812  0.1792 -0.3623 -0.1986
15939OCT     C231878  17.470  13.019  10.552  0.2646  0.3350 -0.3190
15940OCT     C131879   7.151  21.130  18.695  0.0048  0.0729  0.0762
15940OCT     C231880   7.573  20.951  18.734  0.2311 -0.0112 -0.0020
15941OCT     C131881  11.601  16.277   2.089 -0.0097  0.0218 -0.0343
15941OCT     C231882  11.189  16.023   2.145 -0.1205  0.0036 -0.0436
15942OCT     C131883   1.070   8.280  20.445  0.4755  0.2108 -0.0564
15942OCT     C231884   0.648   8.016  20.476 -0.3717 -0.0340 -0.0976
15943OCT     C131885   7.677  17.823   6.303  0.2219  0.1057  0.1342
15943OCT     C231886   7.663  18.191   6.601 -0.1151  0.4349  0.2919
15944OCT     C131887  10.239   3.969   8.616  0.1034  0.1142  0.2767
15944OCT     C231888  10.078   3.827   8.186  0.2554 -0.1760  0.0137
15945OCT     C131889   8.872   7.327  17.633  0.1598 -0.0484  0.1204
15945OCT     C231890   8.427   7.395  17.629  0.0292  0.0148  0.1072
15946OCT     C131891   1.771  17.954  15.374 -0.3402 -0.1691  0.1600
15946OCT     C231892   2.168  18.209  15.343 -0.1686  0.0924 -0.0292
15947OCT     C131893  11.896   7.518   8.963  0.0304 -0.5993 -0.0914
15947OCT     C231894  11.944   7.782   9.385 -0.4102  0.5048  0.3926
15948OCT     C131895  10.956  10.217  17.067  0.0668  0.3865  0.0305
15948OCT     C231896  11.427  10.379  16.966 -0.3086  0.2151 -0.4117
15949OCT     C131897   2.878  17.820   3.208 -0.0802 -0.1655  0.2693
15949OCT     C231898   2.667  18.035   2.845  0.1628 -0.0405 -0.0934
15950OCT     C131899  17.834   8.715  20.687  0.2322 -0.1161  0.2526
15950OCT     C231900  17.690   9.095  20.392  0.0137  0.0911  0.2438
15951OCT     C131901   8.615   0.771   2.756  0.1406  0.1480 -0.0653
15951OCT     C231902   8.921   0.706   2.372 -0.0744 -0.0633 -0.2551
15952OCT     C131903  12.566  16.629  13.727 -0.0683 -0.1447  0.2394
15952OCT     C231904  12.281  16.928  13.531 -0.2466  0.3217 -0.1729
15953OCT     C131905   7.702   5.524   2.121  0.1624 -0.0696 -0.2119
15953OCT     C231906   7.260   5.640   1.862 -0.3211  0.0164  0.1833
15954OCT     C131907  18.467  11.185  15.612  0.0577  0.2193  0.0714
15954OCT     C231908  18.508  11.289  15.130 -0.0627 -0.1077 -0.4331
15955OCT     C131909   6.749   8.244  12.983  0.3567  0.0873 -0.1437
15955OCT     C231910   6.308   8.186  12.800 -0.0375  0.1202  0.2810
15956OCT     C131911   1.436  11.853  18.087  0.0380  0.2646 -0.0781
15956OCT     C231912   1.721  11.851  17.698  0.0829  0.0427  0.3802
15957OCT     C131913   3.421  18.348   3.537 -0.4105 -0.1691  0.0320
15957OCT     C231914   3.349  18.282   4.001 -0.1369  0.1323 -0.0151
15958OCT     C131915  15.885  11.345   6.488  0.4230  0.2085 -0.0980
15958OCT     C231916  16.044  11.180   6.894  0.4583  0.2546 -0.4142
15959OCT     C131917  11.935  13.379   7.459 -0.1348 -0.2459  0.0942
15959OCT     C231918  11.717  13.805   7.647 -0.1946 -0.1391  0.2881
15960OCT     C131919  22.712  23.016  14.519  0.0460  0.0579  0.1838
15960OCT     C231920  22.569  22.591  14.647 -0.2858 -0.3852  0.1413
15961OCT     C131921  11.424  21.909   2.125  0.1730  0.0089 -0.0036
15961OCT     C231922  11.860  21.801   2.092  0.0509  0.1717 -0.3030
15962OCT     C131923   8.720   8.930  11.854 -0.0736 -0.4063 -0.1139
15962OCT     C231924   9.064   8.699  12.077 -0.0534 -0.1771 -0.0311
15963OCT     C131925   9.771   9.018  11.825 -0.1403 -0.0479 -0.3449
15963OCT     C231926  10.184   9.155  11.703  0.1066 -0.4178  0.0686
15964OCT     C131927   6.518  18.446  20.626  0.3519 -0.2634  0.2775
15964OCT     C231928   6.579  18.816  20.404 -0.1000  0.2440  0.2800
15965OCT     C131929  22.065  10.030  18.225 -0.0390 -0.2774  0.0515
15965OCT     C231930  21.805  10.357  18.449  0.0330  0.1844 -0.0928
15966OCT     C131931  13.250  20.572  16.754 -0.0677  0.3264 -0.2577
15966OCT     C231932  13.207  20.145  16.654  0.0096 -0.4916 -0.0262
15967OCT     C131933   7.153  22.038   7.849 -0.2402 -0.2049 -0.2693
15967OCT     C231934   7.155  21.736   8.208  0.0348  0.1408 -0.1379
15968OCT     C131935  11.698   2.093  15.903 -0.2055 -0.0098 -0.1068
15968OCT     C231936  11.695   1.695  15.630  0.1315  0.2117 -0.0967
15969OCT     C131937   6.611  11.008   2.204  0.0819  0.0052 -0.2422
15969OCT     C231938   6.763  10.689   1.873  0.1325 -0.0851 -0.1661
15970OCT     C131939   8.137   8.736  23.302 -0.0541  0.2368  0.0930
15970OCT     C231940   8.478   8.464  23.492  0.3434  0.0714  0.1485
15971OCT     C131941   8.149   4.227  22.517 -0.0872 -0.1546 -0.1900
15971OCT     C231942   8.411   4.518  22.783  0.3413 -0.1485  0.2013
15972OCT     C131943   0.350   5.399   0.956  0.0339 -0.0759 -0.0425
15972OCT     C231944   0.142   5.410   1.365 -0.0481 -0.1305 -0.0902
15973OCT     C131945   4.402   0.360  17.782  0.2161 -0.1904  0.0422
15973OCT     C231946   4.084   0.219  17.503 -0.2413  0.0480 -0.1511
15974OCT     C131947   1.017  18.948   9.953 -0.0691 -0.0641  0.0822
15974OCT     C231948   1.192  18.658  10.331 -0.1764 -0.3378  0.1255
15975OCT     C131949  17.227   5.993  14.024  0.0932 -0.2765 -0.0874
15975OCT     C231950  17.693   6.054  13.977  0.1530 -0.1610 -0.0637
15976OCT     C131951  23.576  10.728  11.525  0.2128 -0.3639  0.0425
15976OCT     C231952  23.532  10.984  11.136  0.3507  0.0181 -0.2245
15977OCT     C131953   5.985   9.337   4.262  0.0950  0.0554  0.0244
15977OCT     C231954   5.809   8.907   4.468  0.0807  0.1437  0.0464
15978OCT     C131955   5.448   1.910  11.226  0.0023  0.1273  0.1719
15978OCT     C231956   4.965   1.818  11.177  0.0917  0.3357  0.0617
15979OCT     C131957   7.768   1.745   7.157  0.1858 -0.1584 -0.1004
15979OCT     C231958   7.614   1.845   7.609 -0.0622 -0.1407 -0.1065
15980OCT     C131959  21.052  15.568  14.340  0.2030  0.2848 -0.1890
15980OCT     C231960  21.150  16.011  14.218  0.2184 -0.1763  0.4015
15981OCT     C131961  21.056  11.298  15.218 -0.1530  0.2221 -0.1684
15981OCT     C231962  20.749  11.401  14.922 -0.3492 -0.0937  0.2497
15982OCT     C131963   2.262   0.400  11.061  0.2042  0.2458  0.1016
15982OCT     C231964   1.847   0.520  10.843 -0.1020  0.0727 -0.1678
15983OCT     C131965  16.970   8.657  20.999 -0.1550 -0.1891 -0.0254
15983OCT     C231966  16.633   8.901  20.840  0.1594  0.2948 -0.3545
15984OCT     C131967   6.593  11.324  15.698 -0.0917 -0.2982 -0.2698
15984OCT     C231968   7.079  11.372  15.551 -0.2006 -0.2217  0.1771
15985OCT     C131969  10.184   6.987  18.058  0.0730 -0.1662  0.1864
15985OCT     C231970   9.943   7.047  18.464 -0.1134  0.0981 -0.0195
15986OCT     C131971   9.956  10.737   4.254 -0.3966 -0.1129  0.1449
15986OCT     C231972   9.492  10.834   4.129  0.0432  0.0169 -0.1844
15987OCT     C131973  16.323  18.590  10.305  0.0880 -0.0450  0.1247
15987OCT     C231974  16.573  18.657   9.927  0.2957  0.1204  0.0682
15988OCT     C131975   0.188  19.932  10.299 -0.1814 -0.0997 -0.0938
15988OCT     C231976  23.581  19.686  10.084 -0.1153 -0.2256 -0.0371
15989OCT     C131977  21.025   4.006   1.731  0.2043 -0.0593 -0.0345
15989OCT     C231978  21.231   3.600   1.907  0.1217 -0.2026  0.0927
15990OCT     C131979   0.502  12.158  14.214  0.0824 -0.1143  0.0861
15990OCT     C231980   0.314  12.433  13.902 -0.3723 -0.0248  0.0656
15991OCT     C131981  16.185   3.313  17.957 -0.3400  0.2226 -0.2790
15991OCT     C231982  16.097   3.182  17.488 -0.1768  0.2722 -0.4260
15992OCT     C131983   9.910  19.198  13.513 -0.3509 -0.0625 -0.0072
15992OCT     C231984   9.460  19.117  13.383  0.2276  0.1088  0.4850
15993OCT     C131985   3.484   9.998  14.659 -0.1242  0.0722  0.1875
15993OCT     C231986   3.345  10.424  14.417  0.0087  0.0825  0.0150
15994OCT     C131987   9.093  22.025  20.202 -0.3641 -0.1495  0.0166
15994OCT     C231988   8.672  21.946  19.965  0.2627  0.1365 -0.1939
15995OCT     C131989  16.987   3.405  23.387 -0.4092 -0.3888 -0.3996
15995OCT     C231990  17.406   3.605  23.498 -0.1696  0.2298 -0.0658
15996OCT     C131991   8.121   4.428   7.881  0.2330  0.0151 -0.0172
15996OCT     C231992   7.953   4.837   7.700  0.1481 -0.0934  0.0365
15997OCT     C131993   0.645  19.048   8.583 -0.1765  0.2268  0.2758
15997OCT     C231994   0.379  18.750   8.777 -0.0861  0.0311  0.4464
15998OCT     C131995   9.603  19.262  21.437 -0.0980 -0.0476 -0.0996
15998OCT     C231996   9.861  19.253  21.845  0.1979 -0.1457  0.1781
15999OCT     C131997  15.130   1.128   4.228  0.2550  0.0767  0.0728
15999OCT     C231998  14.741   1.340   4.104  0.0288  0.0425 -0.1094
16000OCT     C131999  10.493  21.910   0.084 -0.1521  0.1877  0.1738
16000OCT     C232000  10.033  22.017  23.710 -0.4632  0.1253  0.0041
16001OCT     C132001   7.578  12.804   3.964 -0.1914 -0.0974  0.1048
16001OCT     C232002   7.384  13.252   3.819 -0.0045  0.2726  0.3483
16002OCT     C132003   6.102  16.794  21.317 -0.4057  0.0202 -0.3428
16002OCT     C232004   5.706  16.741  21.545  0.5757 -0.3008  0.0383
16003OCT     C132005  20.284  17.915   8.720 -0.3970  0.1945  0.1287
16003OCT     C232006  20.312  18.121   9.119 -0.1339  0.3055 -0.0931
16004OCT     C132007  11.611   8.065  21.960  0.1815 -0.2780  0.1784
16004OCT     C232008  11.635   8.504  22.025 -0.3073  0.0365  0.0316
16005OCT     C132009   0.919  14.651   2.544  0.5499  0.1621 -0.2346
16005OCT     C232010   1.112  15.025   2.336  0.1531 -0.0986  0.1171
16006OCT     C132011   3.495  12.165   2.697  0.1712  0.0988  0.0372
16006OCT     C232012   3.887  12.304   2.417  0.0543  0.2103  0.1644
16007OCT     C132013   9.817  12.256   3.182  0.0833 -0.0427 -0.1368
16007OCT     C232014  10.222  12.059   3.016  0.2795 -0.5506  0.0128
16008OCT     C132015   0.683  18.540   0.610  0.0309 -0.0483 -0.3087
16008OCT     C232016   0.291  18.312   0.683  0.1397 -0.1233  0.0547
16009OCT     C132017  21.383   3.812   3.261  0.3117  0.2435  0.0538
16009OCT     C232018  21.541   3.850   3.702  0.2360 -0.2433  0.1793
16010OCT     C132019   0.884   1.038   3.447  0.2882 -0.1942  0.0431
16010OCT     C232020   0.833   1.387   3.707  0.1364 -0.4131  0.2760
16011OCT     C132021   2.314  15.711   5.147 -0.0391 -0.0871 -0.2703
16011OCT     C232022   2.540  16.042   5.334 -0.1134  0.0652  0.1864
16012OCT     C132023   3.236   5.413   2.986  0.0503 -0.0969 -0.3993
16012OCT     C232024   3.134   5.447   3.361 -0.1946 -0.3882  0.3404
16013OCT     C132025  23.069   6.695  15.600  0.2303  0.1394 -0.1995
16013OCT     C232026  23.573   6.743  15.544  0.0134  0.5181 -0.1528
16014OCT     C132027  17.837  15.547   5.760 -0.0281  0.1398 -0.0654
16014OCT     C232028  18.155  15.653   5.422 -0.0168 -0.1509 -0.1742
16015OCT     C132029   2.145  23.417  23.490  0.2129 -0.1000 -0.1850
16015OCT     C232030   2.014  22.987  23.573 -0.2235 -0.0096 -0.2786
16016OCT     C132031  15.039  18.341  13.897 -0.0826  0.2060 -0.4524
16016OCT     C232032  14.667  18.310  14.155  0.3039  0.0775  0.0492
16017OCT     C132033   4.988   5.337   3.483  0.2111 -0.1062  0.0553
16017OCT     C232034   5.193   5.667   3.712 -0.2232 -0.1989 -0.1318
16018OCT     C132035  21.671   1.710  18.039 -0.0374  0.0914  0.3349
16018OCT     C232036  21.474   1.293  18.003 -0.2119 -0.4496  0.2416
16019OCT     C132037  18.881  21.769   5.593 -0.2056 -0.0368  0.2756
16019OCT     C232038  18.771  21.580   5.975  0.0471 -0.0426 -0.1875
16020OCT     C132039   9.456   0.679   5.543  0.2048 -0.1671  0.1521
16020OCT     C232040   9.546   0.282   5.725  0.3509 -0.0585  0.1121
16021OCT     C132041  17.446  13.852  14.032  0.2246  0.2877 -0.4256
16021OCT     C232042  17.669  13.653  13.672 -0.0545  0.1079  0.2033
16022OCT     C132043   5.520  15.175   7.220 -0.1160 -0.2627  0.0763
16022OCT     C232044   5.332  15.523   7.509  0.0369  0.2689 -0.0532
16023OCT     C132045  17.883   0.030   1.035 -0.2045 -0.1541  0.0519
16023OCT     C232046  17.582   0.346   0.836  0.1904 -0.1555  0.0340
16024OCT     C132047  10.662   8.487  11.819 -0.2975 -0.0290  0.1827
16024OCT     C232048  10.465   8.864  12.014  0.0416  0.1613  0.0875
16025OCT     C132049  11.217  19.232  13.988  0.4655  0.4101 -0.1832
16025OCT     C232050  10.763  19.452  14.062  0.0027 -0.1864  0.1913
16026OCT     C132051  23.234   2.878  16.428  0.1881 -0.0283  0.3149
16026OCT     C232052  23.648   3.032  16.256  0.0423  0.3423 -0.1480
16027OCT     C132053   2.412   1.011   4.465  0.3090  0.3935 -0.1071
16027OCT     C232054   2.893   0.989   4.599 -0.3511  0.2858 -0.1172
16028OCT     C132055   7.302   6.870  15.912  0.1116  0.1600  0.1637
16028OCT     C232056   7.578   6.855  15.605  0.1843  0.2327 -0.1580
16029OCT     C132057  12.377  10.825  12.390 -0.1139 -0.3186 -0.0425
16029OCT     C232058  12.640  10.519  12.176  0.0340 -0.0466 -0.1317
16030OCT     C132059   8.792   0.184   1.497  0.2501  0.1580 -0.3641
16030OCT     C232060   8.446  23.704   1.781 -0.3070 -0.0552 -0.2507
16031OCT     C132061   1.219   3.877   0.842  0.0359 -0.0801 -0.1996
16031OCT     C232062   1.631   4.051   0.681 -0.2163  0.2935 -0.0861
16032OCT     C132063  13.468   1.647  17.242 -0.1570  0.2104  0.5097
16032OCT     C232064  13.033   1.768  17.391  0.0201  0.2562  0.2025
16033OCT     C132065  20.931   3.707  16.230  0.0278 -0.0766 -0.3430
16033OCT     C232066  20.985   3.790  15.788  0.2491  0.0218  0.1253
16034OCT     C132067  12.494  14.828  19.206  0.3135 -0.3330 -0.0949
16034OCT     C232068  12.383  14.649  19.625  0.0186  0.1593 -0.1445
16035OCT     C132069  11.069  15.978   8.499  0.0661 -0.2001  0.0881
16035OCT     C232070  11.487  15.975   8.364 -0.0009 -0.3437  0.7316
16036OCT     C132071   1.333  11.036  13.317 -0.0607 -0.1282  0.1501
16036OCT     C232072   1.536  11.184  12.920  0.1799  0.0876 -0.1127
16037OCT     C132073  21.117  16.628   6.442  0.0195  0.2825 -0.4023
16037OCT     C232074  21.053  16.934   6.089 -0.1816  0.3299  0.3152
16038OCT     C132075  11.666   8.143  13.470 -0.3755 -0.0165  0.2503
16038OCT     C232076  11.462   8.526  13.662  0.0782  0.0879  0.1380
16039OCT     C132077   6.045   8.847   5.357 -0.2986  0.1365 -0.3993
16039OCT     C232078   6.333   9.221   5.192  0.0802  0.0888  0.2405
16040OCT     C132079  20.484  18.453   2.717  0.0152 -0.2830  0.3195
16040OCT     C232080  20.519  18.022   2.630 -0.2160  0.1186 -0.2606
16041OCT     C132081  16.264  18.545  20.442 -0.0466  0.0002 -0.2190
16041OCT     C232082  16.107  18.750  20.809 -0.1865 -0.0364 -0.2197
16042OCT     C132083  15.272  14.429   4.730 -0.1676  0.1048 -0.1150
16042OCT     C232084  15.719  14.438   4.706 -0.0095  0.0933 -0.1782
16043OCT     C132085   2.371   5.758  10.289  0.2435 -0.5048  0.0632
16043OCT     C232086   2.671   5.796  10.661 -0.2836  0.0362 -0.3085
16044OCT     C132087   1.318   7.006   5.663  0.0322  0.1275 -0.1613
16044OCT     C232088   1.008   7.370   5.597  0.2495  0.0639 -0.1194
16045OCT     C132089  19.299  23.058  17.020 -0.0961  0.0702  0.0278
16045OCT     C232090  19.065  23.307  16.672 -0.3904 -0.0081 -0.0732
16046OCT     C132091   2.230   5.280   1.258 -0.0718 -0.2314  0.3026
16046OCT     C232092   2.474   4.913   1.082  0.1560  0.1920 -0.1031
16047OCT     C132093   6.465  14.556  18.879 -0.4020  0.0193 -0.1715
16047OCT     C232094   6.179  14.631  18.495 -0.0054  0.0502  0.0517
16048OCT     C132095  17.714  15.331  13.471 -0.0557  0.1499  0.1723
16048OCT     C232096  18.037  15.183  13.205 -0.0428  0.0870  0.2162
16049OCT     C132097   8.764   3.499   5.675 -0.0336  0.3598 -0.4629
16049OCT     C232098   9.211   3.269   5.755 -0.3568 -0.2385 -0.1179
16050OCT     C132099  15.231  14.108   9.230  0.1731  0.0058  0.1286
16050OCT     C232100  15.398  14.499   9.474  0.0893 -0.1770  0.4183
16051OCT     C132101  22.879   0.937  15.115 -0.1171 -0.1534 -0.0547
16051OCT     C232102  22.652   0.865  14.687  0.0075 -0.3859 -0.0510
16052OCT     C132103   4.219   9.851   9.661  0.2162 -0.0156 -0.2337
16052OCT     C232104   3.861   9.915   9.384  0.1200 -0.2616  0.1421
16053OCT     C132105   1.673  12.486   7.109 -0.1556 -0.0446  0.1664
16053OCT     C232106   1.264  12.614   6.953  0.1422 -0.2488 -0.0434
16054OCT     C132107   2.729  12.595   3.493 -0.0720  0.1545  0.1946
16054OCT     C232108   2.558  12.806   3.111 -0.2381  0.2507 -0.2104
16055OCT     C132109   0.147  14.053  19.810 -0.2161 -0.1548 -0.3698
16055OCT     C232110  23.724  13.742  20.138 -0.0027  0.0626 -0.2171
16056OCT     C132111  18.012  13.526  18.268  0.2612  0.3092  0.1147
16056OCT     C232112  18.009  13.993  18.322 -0.2173  0.1666  0.1723
16057OCT     C132113  23.246  12.788  13.201 -0.2736  0.1080  0.1133
16057OCT     C232114  22.956  12.504  12.937 -0.2298  0.0873 -0.0756
16058OCT     C132115   0.692  17.197  13.977  0.4722  0.1305 -0.0359
16058OCT     C232116   0.863  16.835  14.222 -0.0099 -0.0689 -0.0979
16059OCT     C132117  23.441  23.153  21.746 -0.0630 -0.0332  0.2150
16059OCT     C232118  22.965  23.318  21.779 -0.0949 -0.0789 -0.2945
16060OCT     C132119  14.652   4.365  19.043 -0.1970  0.1435 -0.0370
16060OCT     C232120  14.872   4.776  18.973  0.2374  0.0229 -0.1870
16061OCT     C132121  13.225   3.649  13.915 -0.0147  0.2001 -0.2492
16061OCT     C232122  12.903   3.997  13.755 -0.0845  0.3111  0.1006
16062OCT     C132123  21.098   1.274   0.570 -0.0566 -0.2105 -0.1904
16062OCT     C232124  21.113   1.666   0.302  0.3536 -0.2739  0.3237
16063OCT     C132125   2.125  12.120  22.806  0.1334 -0.2315  0.1414
16063OCT     C232126   1.816  11.985  23.067 -0.4144 -0.2487 -0.1207
16064OCT     C132127   8.021  23.149   8.896 -0.4155 -0.1609 -0.0872
16064OCT     C232128   7.538  23.171   8.867  0.2694  0.2189  0.0114
16065OCT     C132129  17.939  23.564  19.164  0.0575 -0.0286  0.1965
16065OCT     C232130  17.747  23.702  19.572  0.2320 -0.1207  0.0385
16066OCT     C132131   5.498   0.634  20.601 -0.1738  0.2404  0.1481
16066OCT     C232132   5.778   0.987  20.582  0.2750  0.2444 -0.0092
16067OCT     C132133   2.672   7.723   5.680 -0.4684  0.1435  0.2908
16067OCT     C232134   2.498   8.128   5.752 -0.1548 -0.2423  0.1702
16068OCT     C132135  14.720   9.968  10.034 -0.1262 -0.1981 -0.0201
16068OCT     C232136  14.602  10.266   9.645 -0.3505 -0.0161 -0.2024
16069OCT     C132137   9.567   1.287  20.798  0.0675 -0.1035 -0.0973
16069OCT     C232138   9.218   1.427  21.040  0.0577  0.2455 -0.1432
16070OCT     C132139  21.100  15.106   5.698  0.0717  0.1581  0.1949
16070OCT     C232140  21.010  15.543   5.871  0.2265 -0.3334 -0.0179
16071OCT     C132141  22.252   7.990   5.957 -0.2180  0.0768  0.1442
16071OCT     C232142  22.173   8.438   6.118  0.0937 -0.1317 -0.2753
16072OCT     C132143   7.988  10.125  13.385 -0.0930 -0.0550 -0.3567
16072OCT     C232144   7.744   9.706  13.357  0.2043  0.2479 -0.1805
16073OCT     C132145   5.753   1.997   8.803 -0.2016  0.1041 -0.1689
16073OCT     C232146   5.664   1.700   9.099  0.3471 -0.0727 -0.1762
16074OCT     C132147  13.425  20.004  12.518  0.0086 -0.0953 -0.0334
16074OCT     C232148  13.484  20.164  12.922 -0.3370 -0.2260 -0.0922
16075OCT     C132149   5.539  18.987  21.314 -0.1729  0.1137  0.1145
16075OCT     C232150   5.502  18.509  21.276 -0.2964  0.0881  0.1896
16076OCT     C132151   1.402   6.754  11.655  0.1731  0.0766 -0.0832
16076OCT     C232152   1.178   6.821  11.250  0.1225  0.3210  0.2950
16077OCT     C132153   6.167   6.757   1.105  0.0175 -0.1147 -0.1358
16077OCT     C232154   6.319   6.307   1.144  0.0756  0.0601 -0.0763
16078OCT     C132155  14.921   7.355   4.422  0.0269  0.2106 -0.3385
16078OCT     C232156  15.242   6.994   4.487  0.0211  0.0057 -0.0914
16079OCT     C132157   2.176  23.737  16.791  0.2615 -0.0224 -0.3028
16079OCT     C232158   2.286   0.377  16.577 -0.0318 -0.0285  0.1497
16080OCT     C132159   3.702  15.950  12.072  0.0941  0.0812 -0.1754
16080OCT     C232160   3.342  16.129  11.802 -0.6200 -0.0096 -0.0428
16081OCT     C132161   9.135   1.419  22.803  0.2699 -0.1948 -0.1607
16081OCT     C232162   9.447   1.367  23.104  0.1632  0.3389  0.4141
16082OCT     C132163   6.679  18.663  23.296 -0.1331  0.1651  0.1361
16082OCT     C232164   7.117  18.511  23.213  0.4639 -0.2999 -0.1354
16083OCT     C132165   3.267   6.954  21.346  0.0272 -0.0682  0.0018
16083OCT     C232166   3.316   6.615  21.697  0.1571 -0.0264  0.0010
16084OCT     C132167   0.932   2.582  13.582 -0.1146  0.3705  0.0336
16084OCT     C232168   0.650   2.701  13.970 -0.1828  0.4157 -0.1383
16085OCT     C132169  17.295  13.830   7.739 -0.0271  0.2674 -0.2506
16085OCT     C232170  17.530  14.003   8.131 -0.4665  0.0431  0.1023
16086OCT     C132171  11.878  14.884   2.165 -0.0407  0.2828 -0.2182
16086OCT     C232172  12.013  14.778   1.757  0.2404  0.0445  0.0550
16087OCT     C132173  23.633  18.289  18.431 -0.2432  0.0314  0.2342
16087OCT     C232174  23.628  17.829  18.341 -0.0068 -0.2210  0.0510
16088OCT     C132175  13.633   5.488  22.210 -0.0340 -0.1668  0.0952
16088OCT     C232176  13.332   5.752  22.497  0.4834 -0.2149  0.0530
16089OCT     C132177  10.684  19.425   4.133  0.0191  0.3240  0.2957
16089OCT     C232178  10.920  19.754   4.358  0.2394 -0.0151 -0.0158
16090OCT     C132179   6.722   2.662   6.001 -0.0362 -0.2331 -0.1529
16090OCT     C232180   6.515   2.409   5.684  0.0996  0.0301  0.0771
16091OCT     C132181   8.121  23.151  10.850 -0.0329 -0.0148 -0.2300
16091OCT     C232182   7.647  23.066  10.914  0.3469  0.0521  0.3376
16092OCT     C132183  20.848  17.956  12.849 -0.4176 -0.0821  0.0903
16092OCT     C232184  20.457  18.146  12.876 -0.1508  0.0019 -0.2315
16093OCT     C132185   0.218   0.682  13.378  0.1462 -0.0794 -0.2220
16093OCT     C232186   0.537   0.408  13.604  0.0734  0.1531  0.2722
16094OCT     C132187   0.252   8.286  16.134 -0.0527 -0.2058 -0.0221
16094OCT     C232188  23.533   8.452  16.169 -0.0617 -0.0988 -0.1490
16095OCT     C132189  15.094  11.844   8.579 -0.1904 -0.2975 -0.1087
16095OCT     C232190  15.489  11.564   8.721 -0.3072  0.0146  0.1514
16096OCT     C132191  23.539   5.988  19.164  0.0201 -0.2696  0.1126
16096OCT     C232192  23.434   6.075  18.723 -0.2397 -0.1015 -0.0373
16097OCT     C132193   3.907  19.756  19.590 -0.1960  0.1666 -0.3402
16097OCT     C232194   3.901  19.270  19.647 -0.2832 -0.3208 -0.1566
16098OCT     C132195  19.898   1.619  11.233 -0.4760  0.0557 -0.4162
16098OCT     C232196  19.915   1.860  10.826 -0.0423  0.0480  0.1208
16099OCT     C132197  15.512   7.385  13.788 -0.2442  0.1339  0.0957
16099OCT     C232198  15.766   7.724  13.800 -0.0295  0.0366 -0.1339
16100OCT     C132199  22.720   0.723  11.145  0.1893  0.1307 -0.3757
16100OCT     C232200  22.440   0.779  11.487  0.0324  0.0606  0.1676
16101OCT     C132201  18.095  11.624  20.267 -0.1338  0.0850 -0.0287
16101OCT     C232202  18.575  11.481  20.207  0.0115 -0.0036 -0.1090
16102OCT     C132203  11.229  21.159  11.182  0.3469 -0.0888  0.1493
16102OCT     C232204  11.555  21.371  10.855 -0.2405 -0.3455 -0.3608
16103OCT     C132205   7.177  22.574  15.208 -0.1423 -0.2061 -0.0614
16103OCT     C232206   7.502  22.718  15.510 -0.1855 -0.1666  0.1808
16104OCT     C132207  16.141   1.361  10.274 -0.2080 -0.2515  0.2623
16104OCT     C232208  16.192   1.078   9.906  0.3328  0.0504 -0.2630
16105OCT     C132209   4.805  13.873  10.163  0.1534 -0.0913 -0.2782
16105OCT     C232210   5.169  13.788   9.899 -0.1633 -0.1438 -0.1351
16106OCT     C132211  21.876   6.088   4.274 -0.0294  0.0301 -0.0531
16106OCT     C232212  22.067   6.506   4.445  0.2228  0.4239 -0.1603
16107OCT     C132213  22.332   5.642  10.597 -0.1606  0.0152  0.0200
16107OCT     C232214  22.015   5.837  10.854  0.2514 -0.1141 -0.0289
16108OCT     C132215   5.027  10.473   8.299  0.4375 -0.4503 -0.0144
16108OCT     C232216   4.829  10.693   7.969  0.1654  0.0853 -0.0312
16109OCT     C132217  23.440  10.486  23.574 -0.4463  0.1849  0.3848
16109OCT     C232218  23.265  10.866  23.320  0.1304  0.2532  0.3849
16110OCT     C132219  21.557  18.096   7.489  0.0879 -0.0518  0.3265
16110OCT     C232220  21.681  17.979   7.937 -0.1041  0.1693  0.2035
16111OCT     C132221   1.114   1.841  21.302 -0.1455 -0.0627 -0.1306
16111OCT     C232222   0.735   1.633  21.230 -0.2333  0.1831  0.2218
16112OCT     C132223  15.977  20.589   9.940 -0.0385 -0.2354 -0.0949
16112OCT     C232224  16.109  20.923  10.267 -0.0395 -0.1479  0.0965
16113OCT     C132225  19.337   5.484   4.735 -0.1362 -0.1166 -0.0779
16113OCT     C232226  19.616   5.137   4.648  0.3869  0.1803 -0.2192
16114OCT     C132227  11.200   0.063  11.676  0.0461  0.1196  0.3437
16114OCT     C232228  11.121  23.418  11.425 -0.4962  0.0789  0.1823
16115OCT     C132229   7.113  14.081   5.888 -0.2144  0.1908  0.3931
16115OCT     C232230   7.430  14.429   6.066  0.1992 -0.3418  0.2322
16116OCT     C132231  22.545  21.637  13.163  0.0810  0.2985 -0.1752
16116OCT     C232232  22.695  22.005  13.379  0.2022 -0.3920  0.1030
16117OCT     C132233  14.275   9.174  20.007  0.0685  0.0289  0.0154
16117OCT     C232234  14.340   9.265  20.478  0.3685  0.3370  0.1783
16118OCT     C132235   4.498  21.032   1.653  0.3331  0.0303 -0.5454
16118OCT     C232236   4.098  20.828   1.712 -0.0018  0.0837  0.0348
16119OCT     C132237  18.140   6.258  15.019 -0.2337  0.0631  0.1460
16119OCT     C232238  18.447   6.426  14.746 -0.0838  0.0518  0.2574
16120OCT     C132239   2.974   5.990  20.507  0.2370  0.1729 -0.1231
16120OCT     C232240   3.317   5.933  20.837 -0.1864 -0.0518 -0.2194
16121OCT     C132241   9.559  22.555   2.875  0.2452  0.0723 -0.0534
16121OCT     C232242  10.004  22.399   2.897  0.3349 -0.3244 -0.0426
16122OCT     C132243  15.572   7.763   9.646  0.0132  0.0013  0.0676
16122OCT     C232244  15.461   8.100   9.312  0.2994  0.2892 -0.0876
16123OCT     C132245  11.335  16.578  21.697 -0.0050  0.1014  0.2567
16123OCT     C232246  11.684  16.848  21.533 -0.3108 -0.1070  0.0532
16124OCT     C132247   2.592  21.630  20.183  0.2319 -0.0310 -0.0869
16124OCT     C232248   2.867  21.413  19.902 -0.2251 -0.2679 -0.0169
16125OCT     C132249   3.402  16.176   2.628  0.2697 -0.1776 -0.5071
16125OCT     C232250   3.697  15.819   2.838  0.0011 -0.1614  0.1214
16126OCT     C132251   7.500  16.767   8.146 -0.1576  0.2126 -0.2444
16126OCT     C232252   6.956  16.661   8.156 -0.1567 -0.1113  0.2569
16127OCT     C132253  12.967  16.202  17.446  0.1650  0.2800  0.3326
16127OCT     C232254  13.070  16.167  16.966 -0.2279 -0.2388 -0.1378
16128OCT     C132255  15.725  18.370   4.071  0.0974  0.0113  0.1554
16128OCT     C232256  16.132  18.430   4.377  0.4075 -0.3426  0.0824
16129OCT     C132257   5.959  22.475  19.001  0.4580  0.1984 -0.0530
16129OCT     C232258   5.921  22.689  18.569 -0.2479 -0.4843  0.0182
16130OCT     C132259   7.226   4.975   3.801 -0.0247 -0.1847 -0.0558
16130OCT     C232260   7.045   4.488   3.753 -0.0855  0.3243  0.0577
16131OCT     C132261   4.082   4.073  23.476 -0.1725  0.3154 -0.1256
16131OCT     C232262   4.182   4.510  23.467  0.1254 -0.1032  0.4079
16132OCT     C132263  17.171  19.784  15.572 -0.1704  0.0679 -0.2039
16132OCT     C232264  17.059  20.200  15.766 -0.2873 -0.0937 -0.0901
16133OCT     C132265  15.995   1.515  11.500 -0.0820 -0.1339 -0.1485
16133OCT     C232266  15.626   1.295  11.763 -0.3865  0.0909 -0.0377
16134OCT     C132267  15.741  21.770   3.703  0.0130  0.1561  0.2319
16134OCT     C232268  15.479  21.460   3.413  0.0215  0.0301 -0.3232
16135OCT     C132269  11.780   2.652   5.284  0.1984 -0.0835 -0.1031
16135OCT     C232270  11.513   2.868   5.078 -0.2375  0.0864 -0.1536
16136OCT     C132271  17.214  15.554   5.156 -0.2980 -0.0869  0.0923
16136OCT     C232272  17.290  15.093   5.101 -0.2492  0.1788  0.0472
16137OCT     C132273   2.107  10.183  11.528  0.2997  0.2656 -0.0402
16137OCT     C232274   1.918  10.000  11.167 -0.2836  0.0528  0.1318
16138OCT     C132275  17.335   2.589  15.203 -0.0292 -0.1763  0.0298
16138OCT     C232276  17.830   2.653  15.166 -0.3334  0.0973 -0.0595
16139OCT     C132277  17.329  13.172  16.057 -0.2506 -0.3870 -0.2020
16139OCT     C232278  16.934  13.100  16.030  0.0477 -0.4521 -0.2828
16140OCT     C132279  12.319   6.010  15.800  0.0610  0.0896 -0.1227
16140OCT     C232280  11.942   6.281  15.625  0.2639  0.1117 -0.0883
16141OCT     C132281   5.685  11.511   6.233  0.0588  0.1283 -0.0529
16141OCT     C232282   5.388  11.561   6.554  0.3305 -0.2442  0.0837
16142OCT     C132283  14.220   5.145  12.104 -0.1223 -0.0238 -0.0013
16142OCT     C232284  13.923   4.934  11.815  0.0518 -0.2722 -0.1746
16143OCT     C132285  19.379   2.763  18.880 -0.0117 -0.1837 -0.0439
16143OCT     C232286  19.286   3.183  19.005  0.0904  0.0569 -0.0848
16144OCT     C132287  19.397  14.420   9.785  0.2412 -0.1421  0.0027
16144OCT     C232288  19.209  14.188   9.384  0.3454 -0.0932  0.2736
16145OCT     C132289  14.796  17.909  21.866 -0.1106 -0.0580  0.1138
16145OCT     C232290  14.331  17.879  21.732 -0.0794  0.1646 -0.1293
16146OCT     C132291  20.132  17.217   5.565  0.0118  0.1783  0.2454
16146OCT     C232292  20.098  17.651   5.635  0.2429 -0.0362 -0.0935
16147OCT     C132293  20.737  23.019  14.195  0.1760  0.0110 -0.4783
16147OCT     C232294  20.874  23.037  14.598  0.0365  0.1162  0.3046
16148OCT     C132295  14.919  19.772  19.180 -0.0729 -0.0876 -0.4185
16148OCT     C232296  14.578  19.856  18.925  0.0148  0.0917  0.2057
16149OCT     C132297   4.554   7.015   5.451  0.0968 -0.2803  0.1997
16149OCT     C232298   4.376   7.284   5.793  0.1565 -0.0011 -0.2416
16150OCT     C132299   4.491   1.198  23.623  0.0757 -0.3257  0.0557
16150OCT     C232300   4.699   0.901  23.306 -0.2751  0.2500  0.2121
16151OCT     C132301  14.115   0.058   7.018  0.0429 -0.0499  0.0470
16151OCT     C232302  14.162  23.457   6.648  0.1543 -0.7878  0.2197
16152OCT     C132303   7.177  19.757   0.097 -0.5198 -0.1050  0.0844
16152OCT     C232304   6.764  19.767   0.172 -0.0567 -0.3748 -0.2394
16153OCT     C132305  17.212   3.874   4.012 -0.0129  0.3289  0.2172
16153OCT     C232306  17.348   3.482   3.841 -0.1278 -0.0459 -0.1556
16154OCT     C132307  18.956   1.745  13.749  0.0424  0.1822  0.1724
16154OCT     C232308  18.500   1.568  13.610  0.2079 -0.0735  0.3624
16155OCT     C132309  14.773  20.357   1.914 -0.0222  0.1669  0.2127
16155OCT     C232310  15.093  20.201   2.222 -0.0172  0.0739  0.0013
16156OCT     C132311  10.119   6.367  14.951  0.0411 -0.1528 -0.2594
16156OCT     C232312  10.061   6.180  15.385  0.1905 -0.2700 -0.0611
16157OCT     C132313  16.377  22.716  19.829 -0.0176  0.4269 -0.0010
16157OCT     C232314  16.288  23.136  19.699  0.0339 -0.0170 -0.1013
16158OCT     C132315   5.892   3.478  17.938  0.1906 -0.2630 -0.2626
16158OCT     C232316   6.078   3.882  17.848  0.1871 -0.0787  0.2883
16159OCT     C132317   3.838   8.158  22.419 -0.0455 -0.0894 -0.4138
16159OCT     C232318   4.108   8.319  22.751  0.2331  0.1074  0.3882
16160OCT     C132319  19.908  13.633  16.432 -0.1073  0.0780  0.1696
16160OCT     C232320  20.163  13.785  16.767 -0.3108  0.0082 -0.1374
16161OCT     C132321   8.639   5.862  14.126  0.1247  0.0772 -0.0143
16161OCT     C232322   8.401   5.520  14.390  0.3787 -0.2329 -0.3127
16162OCT     C132323   2.886  16.625   3.961  0.1431  0.1884  0.0933
16162OCT     C232324   3.051  16.352   4.251 -0.0693 -0.2883  0.0627
16163OCT     C132325   0.393  10.212  11.426  0.0539  0.0375  0.4286
16163OCT     C232326   0.232   9.828  11.265 -0.2528  0.0508 -0.1718
16164OCT     C132327   5.033  19.393  12.859 -0.0787  0.2887  0.3034
16164OCT     C232328   4.711  19.707  12.724  0.0158 -0.0152 -0.0610
16165OCT     C132329  15.842   8.856  22.195  0.4862 -0.0424  0.3161
16165OCT     C232330  15.849   9.296  21.993  0.0868 -0.3288 -0.0841
16166OCT     C132331  17.360  12.575  20.870 -0.1520 -0.1313  0.1148
16166OCT     C232332  17.787  12.511  20.634 -0.1781 -0.5548  0.0275
16167OCT     C132333   2.106  18.664  16.267 -0.3255 -0.2286  0.2737
16167OCT     C232334   2.130  19.002  16.057 -0.1204  0.0511 -0.1281
16168OCT     C132335  11.154  11.922   8.436 -0.4690 -0.0320  0.2874
16168OCT     C232336  11.434  11.725   8.161 -0.0297 -0.2803  0.1455
16169OCT     C132337   2.911   2.977   5.692 -0.0745 -0.0557  0.2363
16169OCT     C232338   3.208   2.670   5.809 -0.2867 -0.2351  0.0660
16170OCT     C132339  15.889  20.314  12.632  0.1063  0.3493 -0.1062
16170OCT     C232340  15.901  19.921  12.348  0.0504  0.1714 -0.1266
16171OCT     C132341  17.500   3.121  23.585  0.0094  0.0877 -0.2127
16171OCT     C232342  17.737   2.719  23.659  0.0287  0.1523 -0.2489
16172OCT     C132343  16.178   1.858  15.513  0.0468  0.0880 -0.1422
16172OCT     C232344  15.942   1.446  15.535  0.2286 -0.4360  0.1542
16173OCT     C132345  19.802  19.033  19.990  0.1284  0.1241  0.2251
16173OCT     C232346  20.169  19.365  19.863 -0.0620  0.0079 -0.0811
16174OCT     C132347  10.884  18.178  17.826 -0.1692  0.0228 -0.1950
16174OCT     C232348  11.390  18.212  17.686  0.1935 -0.0138  0.2080
16175OCT     C132349  23.350  16.938  14.280 -0.2176 -0.0527 -0.1835
16175OCT     C232350  23.682  16.910  14.591  0.1661 -0.3929 -0.0466
16176OCT     C132351   6.911  21.979  21.410 -0.4514 -0.1196 -0.0396
16176OCT     C232352   7.308  21.752  21.530  0.1466  0.1427 -0.3315
16177OCT     C132353  20.709  21.753   4.101  0.0598  0.0804  0.1139
16177OCT     C232354  21.125  21.936   4.191  0.3305 -0.0155  0.1603
16178OCT     C132355  10.406   9.776   5.050 -0.3175 -0.0690 -0.1252
16178OCT     C232356  10.203  10.219   5.246  0.2720 -0.0531  0.0599
16179OCT     C132357  11.881   6.874  11.089  0.1996 -0.2659 -0.0006
16179OCT     C232358  11.745   6.568  11.367  0.2781 -0.1426 -0.2079
16180OCT     C132359   6.300  19.135  14.923  0.0780 -0.1704 -0.0012
16180OCT     C232360   6.216  18.913  14.533 -0.0168  0.0867  0.2417
16181OCT     C132361   8.748   0.824   8.398 -0.0353 -0.2743  0.1642
16181OCT     C232362   8.688   0.451   8.316  0.1708  0.3722 -0.1542
16182OCT     C132363  19.929   3.124   1.860  0.2363  0.1712 -0.1489
16182OCT     C232364  20.363   3.244   1.724  0.0341  0.1258  0.1465
16183OCT     C132365  19.059  12.236  10.486 -0.1756  0.1336 -0.1155
16183OCT     C232366  19.172  11.987  10.089  0.1492  0.3547 -0.1301
16184OCT     C132367  12.810  17.245   3.593  0.2018 -0.1312 -0.3924
16184OCT     C232368  12.816  16.790   3.464  0.1788  0.4030 -0.1568
16185OCT     C132369   5.982  11.619   3.916  0.1034  0.2869  0.1214
16185OCT     C232370   5.988  11.806   3.501 -0.0729 -0.0513  0.1562
16186OCT     C132371  20.478  10.498  14.485  0.0269  0.0652  0.2158
16186OCT     C232372  20.632  10.908  14.652  0.3899 -0.3688  0.2221
16187OCT     C132373  15.595  20.313  10.291  0.0957  0.1424  0.0136
16187OCT     C232374  15.255  20.052  10.100  0.0350 -0.3550  0.4274
16188OCT     C132375  12.285  11.925  14.044 -0.1167  0.4625 -0.0281
16188OCT     C232376  11.949  11.783  13.817 -0.0254 -0.4176 -0.0510
16189OCT     C132377   2.443  23.402   0.234 -0.2052 -0.2539 -0.0115
16189OCT     C232378   2.389  23.737   0.520 -0.0471  0.0309 -0.1595
16190OCT     C132379   0.635  15.163   2.466 -0.0381 -0.2320  0.4314
16190OCT     C232380   0.898  15.165   2.818 -0.1879  0.0948 -0.1762
16191OCT     C132381  17.496  16.547   7.738  0.0719  0.0599 -0.1547
16191OCT     C232382  17.120  16.661   7.971  0.5843 -0.0323 -0.2311
16192OCT     C132383  20.507  11.473  14.441  0.0090 -0.2019  0.0378
16192OCT     C232384  20.240  11.242  14.701  0.0545  0.1844  0.1276
16193OCT     C132385   1.640   9.097  12.988  0.1423  0.0788 -0.0529
16193OCT     C232386   2.063   8.888  12.962 -0.3697 -0.0753  0.2268
16194OCT     C132387  22.564  16.933  22.605  0.3159  0.0688  0.1512
16194OCT     C232388  22.072  16.916  22.603 -0.0372 -0.0718 -0.1939
16195OCT     C132389   5.384  20.051  19.127  0.2947  0.2129 -0.2336
16195OCT     C232390   5.344  19.591  19.270  0.0523 -0.4222  0.2451
16196OCT     C132391  11.501   8.953   1.047  0.0577 -0.2352  0.2849
16196OCT     C232392  11.117   8.728   1.191  0.2150  0.0152 -0.2248
16197OCT     C132393   5.380   3.796  17.240 -0.0449  0.1931 -0.1988
16197OCT     C232394   5.611   3.714  17.624 -0.1087 -0.0935  0.1235
16198OCT     C132395   3.242   4.208   3.749 -0.0813  0.2099 -0.2795
16198OCT     C232396   2.807   4.327   3.597  0.2741 -0.1640 -0.0253
16199OCT     C132397  21.495  12.291  15.020  0.0679  0.0484  0.1002
16199OCT     C232398  21.335  12.375  14.571 -0.1179  0.3825 -0.3288
16200OCT     C132399  13.687  14.300   2.163  0.3483  0.3241  0.1318
16200OCT     C232400  13.347  14.175   2.427  0.1600  0.1594 -0.3179
16201OCT     C132401   4.908  11.186   6.606  0.6234 -0.1161  0.3019
16201OCT     C232402   4.420  11.175   6.577  0.1603  0.0182 -0.0343
16202OCT     C132403  19.868  22.665  19.316 -0.1227  0.0087  0.2425
16202OCT     C232404  19.846  22.682  19.778  0.0350  0.4321  0.3109
16203OCT     C132405  19.022   5.173  20.716 -0.0953 -0.0695 -0.1961
16203OCT     C232406  18.567   5.004  20.804 -0.3033 -0.1675 -0.2470
16204OCT     C132407  16.622   0.090  17.884 -0.3140  0.0927 -0.1475
16204OCT     C232408  16.459  23.527  17.642  0.1313 -0.2432  0.1371
16205OCT     C132409   1.877   6.256  21.506  0.1607  0.2591  0.0113
16205OCT     C232410   2.074   6.298  21.052 -0.4461 -0.2587  0.0148
16206OCT     C132411   6.874  10.293  13.663  0.0792  0.1126  0.1272
16206OCT     C232412   6.947   9.835  13.729  0.0135 -0.3411 -0.4991
16207OCT     C132413   7.886   4.229  18.929  0.1258  0.2517 -0.2012
16207OCT     C232414   7.804   4.446  18.542 -0.2131  0.0408 -0.3399
16208OCT     C132415  23.248  20.558   1.317  0.0542 -0.2111 -0.0964
16208OCT     C232416  23.452  20.428   1.698 -0.1187  0.3140  0.1477
16209OCT     C132417  20.967  11.262  19.011  0.0075 -0.1900  0.0579
16209OCT     C232418  21.434  11.285  18.864  0.1890 -0.1893 -0.1226
16210OCT     C132419   1.364  12.422   0.996  0.1019 -0.1404 -0.2038
16210OCT     C232420   1.387  12.115   1.323  0.0918  0.1318  0.1482
16211OCT     C132421  19.460  19.786  21.694 -0.2272 -0.2073  0.0969
16211OCT     C232422  19.783  20.098  21.583  0.2680  0.0047 -0.2381
16212OCT     C132423  14.452  10.888  20.270  0.0369  0.4422 -0.1226
16212OCT     C232424  14.649  11.319  20.240 -0.1274  0.2855 -0.1951
16213OCT     C132425   2.762   2.337   1.800 -0.2057 -0.0144 -0.2467
16213OCT     C232426   2.627   2.182   1.383 -0.3844  0.1933 -0.1131
16214OCT     C132427   5.956  19.252   6.453  0.0542 -0.1826 -0.1144
16214OCT     C232428   6.240  19.637   6.492 -0.1876 -0.2113 -0.0581
16215OCT     C132429   1.642  21.382  21.397 -0.1867 -0.0938 -0.0921
16215OCT     C232430   1.923  21.721  21.286 -0.1025 -0.1092  0.0157
16216OCT     C132431   1.086  16.417  17.856 -0.1697  0.1570  0.1718
16216OCT     C232432   0.769  16.537  18.224 -0.1743 -0.0196  0.1572
16217OCT     C132433   9.397  20.689  16.271  0.1156 -0.1933 -0.2185
16217OCT     C232434   9.222  20.988  16.608 -0.0935  0.2834  0.1396
16218OCT     C132435  12.637  16.527  17.111  0.1608 -0.0061  0.1399
16218OCT     C232436  12.596  16.911  17.389  0.2017  0.0360  0.0480
16219OCT     C132437   1.919   7.153  11.185 -0.3333 -0.2220  0.1740
16219OCT     C232438   1.676   7.219  10.749 -0.3227  0.1208  0.1580
16220OCT     C132439  12.856  11.165  13.592 -0.0483  0.0091  0.4072
16220OCT     C232440  12.419  11.293  13.525  0.1436  0.0837 -0.2621
16221OCT     C132441   6.756   8.477   9.653 -0.1151 -0.1738 -0.3264
16221OCT     C232442   6.593   8.183   9.365 -0.0757 -0.0302  0.0005
16222OCT     C132443  17.593   3.127   8.006 -0.1098  0.0880  0.1613
16222OCT     C232444  17.240   3.104   8.365 -0.1192  0.2058 -0.3116
16223OCT     C132445  22.348  10.719  23.438 -0.0015 -0.1401 -0.2450
16223OCT     C232446  21.981  10.399  23.396 -0.0135  0.3073  0.3252
16224OCT     C132447  12.310   4.237   0.434 -0.0803 -0.1689 -0.0313
16224OCT     C232448  12.042   4.256   0.816 -0.0894  0.0230  0.0998
16225OCT     C132449  12.985  22.471  22.951  0.1359  0.0461 -0.0208
16225OCT     C232450  12.775  22.828  22.729  0.1338  0.0444  0.2429
16226OCT     C132451   1.122  20.166   7.453  0.1514  0.0050  0.1688
16226OCT     C232452   0.891  20.270   7.082  0.2753  0.1780  0.0781
16227OCT     C132453  23.107  19.360  13.596  0.1162  0.3277 -0.1297
16227OCT     C232454  23.179  19.737  13.429 -0.0305  0.0861  0.0936
16228OCT     C132455  20.757  19.722   2.004 -0.0017 -0.1966 -0.3217
16228OCT     C232456  20.427  19.520   2.273 -0.4996 -0.1754  0.4841
16229OCT     C132457   7.045  12.981   5.691 -0.0781 -0.0200  0.1390
16229OCT     C232458   6.605  12.915   5.575 -0.2966 -0.3154  0.3024
16230OCT     C132459   1.122  10.817  17.260 -0.0026 -0.1253 -0.1473
16230OCT     C232460   1.252  10.876  16.839  0.1446  0.0463 -0.2373
16231OCT     C132461   9.731  11.266   4.166  0.1480  0.0323 -0.0145
16231OCT     C232462   9.386  11.489   3.972  0.2552 -0.1046  0.1574
16232OCT     C132463  14.948  21.785   6.604 -0.4089  0.1078  0.1004
16232OCT     C232464  14.520  21.665   6.467 -0.1485  0.0968  0.0944
16233OCT     C132465  20.257   8.806   7.609 -0.3391  0.1328 -0.0061
16233OCT     C232466  19.828   8.800   7.339  0.0304  0.1794  0.0895
16234OCT     C132467  14.808  11.614  15.894  0.0590 -0.2783 -0.0583
16234OCT     C232468  14.330  11.600  15.775  0.0455 -0.2658 -0.0137
16235OCT     C132469  19.546  10.853  10.387 -0.4267  0.1140 -0.3258
16235OCT     C232470  19.756  11.235  10.482  0.2329  0.1696  0.0344
16236OCT     C132471  23.591   7.374   1.255  0.0012 -0.0525 -0.0414
16236OCT     C232472  23.133   7.243   1.181 -0.0807 -0.0677 -0.2245
16237OCT     C132473   7.463  16.956   5.115 -0.0676 -0.2776 -0.2789
16237OCT     C232474   7.637  17.029   4.755 -0.1049  0.1164  0.1719
16238OCT     C132475  15.056  19.694   8.113 -0.0877  0.0056  0.1995
16238OCT     C232476  15.029  20.060   7.793  0.2872  0.1133  0.1451
16239OCT     C132477  15.038   6.335  19.557  0.2326 -0.0123 -0.1457
16239OCT     C232478  15.418   6.186  19.500 -0.0922 -0.0628  0.2259
16240OCT     C132479   7.470  13.570   4.655 -0.1640  0.0140  0.0040
16240OCT     C232480   7.057  13.882   4.674 -0.3853  0.0011  0.1194
16241OCT     C132481  21.380  15.677  12.394  0.3402  0.0852 -0.1839
16241OCT     C232482  21.407  15.581  11.938 -0.0931  0.1385  0.0780
16242OCT     C132483  13.341   0.606   2.307 -0.1137  0.2702  0.0144
16242OCT     C232484  13.690   0.304   2.217  0.0482  0.3259  0.1370
16243OCT     C132485   6.631  16.173   6.882 -0.1316 -0.2756  0.0553
16243OCT     C232486   6.678  16.588   6.637 -0.0530  0.0786 -0.0370
16244OCT     C132487  13.621   5.079   3.666 -0.0094  0.1322  0.1182
16244OCT     C232488  13.363   4.863   3.975 -0.4158  0.2349  0.2782
16245OCT     C132489  11.377   4.599   6.031  0.0511  0.0873 -0.1353
16245OCT     C232490  11.846   4.443   6.005 -0.3795  0.3275 -0.4337
16246OCT     C132491  23.713  17.536  11.288  0.1725  0.0731  0.1255
16246OCT     C232492   0.380  17.453  10.996  0.1107 -0.0906 -0.1546
16247OCT     C132493  12.781   6.475  13.495 -0.0404 -0.1322 -0.1381
16247OCT     C232494  12.766   6.494  13.029  0.2212  0.1309 -0.3784
16248OCT     C132495  10.013   4.281  21.608  0.0390 -0.3167  0.0786
16248OCT     C232496  10.455   4.299  21.399  0.1236 -0.0763 -0.0921
16249OCT     C132497  14.401   1.896   4.520 -0.4172  0.2412 -0.3580
16249OCT     C232498  14.760   1.634   4.646 -0.0049 -0.3066  0.3677
16250OCT     C132499  10.229  10.233   0.134 -0.0415  0.1902  0.2044
16250OCT     C232500  10.379  10.593  23.641 -0.1187  0.2641  0.0733
16251OCT     C132501  21.615   2.627  15.364  0.0704 -0.2022  0.1912
16251OCT     C232502  21.428   2.889  15.634  0.2245 -0.1493 -0.0783
16252OCT     C132503   7.287   7.351   0.698 -0.1806 -0.4510 -0.0326
16252OCT     C232504   7.399   7.031   0.307 -0.0276  0.0654  0.2074
16253OCT     C132505  14.354   3.016  10.299  0.1488 -0.0042 -0.3400
16253OCT     C232506  14.069   2.765  10.007  0.1541 -0.4187  0.0039
16254OCT     C132507  23.119  15.804  16.095  0.0475  0.0415 -0.2717
16254OCT     C232508  22.964  15.390  15.891  0.0292 -0.0955 -0.0846
16255OCT     C132509  23.347  23.040   0.108 -0.1595 -0.0176  0.4767
16255OCT     C232510  23.260  22.619  23.646  0.0516  0.2098 -0.4132
16256OCT     C132511  16.118  17.777  11.106  0.1664  0.1802  0.1098
16256OCT     C232512  15.729  17.607  11.346 -0.3907 -0.0472  0.2196
16257OCT     C132513  22.490   4.362   7.837 -0.2191  0.1520 -0.5952
16257OCT     C232514  22.819   4.297   8.192  0.2069  0.3141 -0.0966
16258OCT     C132515  18.932  14.594  19.790  0.0223  0.2374  0.3377
16258OCT     C232516  18.610  14.766  19.513  0.0326  0.1290  0.0003
16259OCT     C132517  10.231  14.330   5.722 -0.0122 -0.1516  0.2567
16259OCT     C232518  10.528  14.043   5.945  0.1623 -0.3565 -0.1651
16260OCT     C132519   4.586  18.037  13.177 -0.2654  0.0615 -0.0196
16260OCT     C232520   4.806  18.313  12.898 -0.0287  0.1336  0.0630
16261OCT     C132521  20.339  11.738  23.176  0.1635 -0.1799  0.4491
16261OCT     C232522  20.631  12.025  23.260 -0.3598 -0.1557  0.0024
16262OCT     C132523   8.943  21.307   7.695 -0.0806 -0.0487 -0.0945
16262OCT     C232524   9.099  21.502   7.267 -0.2512  0.0738 -0.0489
16263OCT     C132525   6.079  14.526   1.530  0.3292  0.0157  0.0527
16263OCT     C232526   6.009  14.984   1.461  0.1427  0.3073 -0.1283
16264OCT     C132527  11.100  17.006   8.221  0.0934  0.2585 -0.1718
16264OCT     C232528  10.876  16.952   7.802 -0.2767 -0.2708 -0.2759
16265OCT     C132529   5.224  17.306  12.837  0.2426 -0.1051 -0.2809
16265OCT     C232530   5.153  16.948  13.053 -0.0929 -0.0794 -0.4382
16266OCT     C132531  22.233  11.713   6.096 -0.0454  0.3903  0.1316
16266OCT     C232532  21.918  11.733   6.495  0.0748  0.0778  0.0355
16267OCT     C132533   3.365   9.082  18.529  0.1498 -0.0253  0.2949
16267OCT     C232534   3.582   9.304  18.841 -0.4870 -0.0080 -0.0198
16268OCT     C132535  22.995   9.293   5.253 -0.0759 -0.1861  0.2966
16268OCT     C232536  23.340   8.959   5.236  0.1675 -0.2150  0.1386
16269OCT     C132537  18.145  18.266  12.130  0.1125 -0.1488  0.2131
16269OCT     C232538  18.601  18.379  12.062 -0.0616 -0.2701  0.2004
16270OCT     C132539  17.710  15.935  17.608  0.4665 -0.0355 -0.2116
16270OCT     C232540  17.385  16.197  17.428  0.0485  0.3469 -0.1542
16271OCT     C132541  15.347  13.368  23.714  0.1227  0.1992  0.0683
16271OCT     C232542  14.883  13.466  23.645 -0.0692  0.0033 -0.2322
16272OCT     C132543   5.899  19.729  13.049 -0.2905 -0.4488  0.2185
16272OCT     C232544   5.913  19.445  12.730 -0.1147 -0.2397 -0.0786
16273OCT     C132545  22.729  16.617   7.764  0.1878 -0.0004 -0.2418
16273OCT     C232546  22.475  16.525   8.155 -0.3120  0.0895 -0.1697
16274OCT     C132547   3.439  17.217  11.961  0.0924  0.1010 -0.0557
16274OCT     C232548   3.497  17.679  12.039 -0.6194  0.1008  0.0041
16275OCT     C132549   8.940   4.838  18.506  0.0117  0.0408  0.0098
16275OCT     C232550   8.830   5.259  18.488 -0.1467  0.4550 -0.0161
16276OCT     C132551  21.226   0.284   3.686 -0.0768 -0.2014 -0.1668
16276OCT     C232552  20.966   0.040   3.891 -0.0036  0.0011  0.0174
16277OCT     C132553  15.895   4.182  20.362 -0.0990  0.3835  0.0938
16277OCT     C232554  15.779   4.612  20.207 -0.1893  0.2439  0.3537
16278OCT     C132555  17.264   9.470  11.782  0.0947  0.2351  0.0852
16278OCT     C232556  17.317   9.801  11.475  0.1359  0.3760 -0.2405
16279OCT     C132557  20.620   8.458   3.747 -0.0863 -0.3783 -0.0056
16279OCT     C232558  20.985   8.436   4.085  0.3704  0.2185 -0.2829
16280OCT     C132559   0.114  11.151  16.451 -0.0909  0.0761 -0.0235
16280OCT     C232560  23.522  11.427  16.329 -0.2959  0.1058  0.0678
16281OCT     C132561   1.490  11.301  23.262 -0.3258  0.0233  0.1477
16281OCT     C232562   1.132  11.339  22.982  0.1177 -0.0279 -0.0938
16282OCT     C132563  22.070  18.879  17.867  0.0788 -0.1418 -0.0447
16282OCT     C232564  21.985  18.963  17.442 -0.0706  0.1014 -0.0792
16283OCT     C132565   9.700   5.052   0.272  0.0333 -0.1147 -0.0402
16283OCT     C232566   9.896   5.274  23.659 -0.1808  0.2014  0.0042
16284OCT     C132567   0.927   9.912   4.662  0.0896  0.0446 -0.0196
16284OCT     C232568   0.854   9.672   5.049 -0.4763  0.0338 -0.1730
16285OCT     C132569  18.677  12.378  20.028  0.4028  0.3765  0.1499
16285OCT     C232570  18.961  12.068  19.958 -0.2082 -0.4646 -0.1484
16286OCT     C132571  19.139  23.300  10.840  0.1220 -0.5439 -0.0215
16286OCT     C232572  19.130  23.560  10.480  0.1250 -0.2295  0.2703
16287OCT     C132573   2.508  11.112  19.242  0.2554 -0.2203 -0.1753
16287OCT     C232574   2.753  10.704  19.330  0.3652 -0.0970  0.2846
16288OCT     C132575   8.740  13.358  19.388  0.2664  0.2122  0.0783
16288OCT     C232576   8.897  13.184  19.797  0.0782 -0.0230  0.1044
16289OCT     C132577  13.545  13.444   8.701  0.0140 -0.0516  0.2450
16289OCT     C232578  13.827  13.247   8.386 -0.1858  0.3240  0.0233
16290OCT     C132579  23.131  11.270  13.027 -0.4435  0.3122  0.3031
16290OCT     C232580  23.402  11.115  12.655 -0.1574  0.4255 -0.1979
16291OCT     C132581  17.439   2.848   0.794 -0.0143 -0.4236 -0.1073
16291OCT     C232582  17.099   3.093   0.678 -0.0685 -0.0249  0.0556
16292OCT     C132583  18.716  18.591   6.760  0.0406  0.3379 -0.0164
16292OCT     C232584  18.830  18.996   6.934  0.0716  0.2713 -0.1686
16293OCT     C132585   3.865  21.105   8.288  0.2625  0.0322  0.1808
16293OCT     C232586   4.188  21.217   8.044  0.1826 -0.1655  0.0100
16294OCT     C132587  10.941  11.195   9.519  0.0348 -0.2387  0.1511
16294OCT     C232588  11.268  11.076   9.747 -0.6746 -0.0292 -0.0498
16295OCT     C132589  16.011  13.007  13.233  0.2102  0.1810  0.0360
16295OCT     C232590  15.949  13.137  12.798 -0.1442  0.0783  0.0914
16296OCT     C132591  18.360  16.368  18.770 -0.1136  0.1691 -0.0667
16296OCT     C232592  18.306  16.203  18.327  0.0508 -0.0467 -0.0792
16297OCT     C132593  11.805   2.245  21.116  0.1925  0.0728 -0.2557
16297OCT     C232594  11.338   2.478  21.160  0.0802  0.1192  0.0753
16298OCT     C132595  14.113   1.466  17.686  0.0064 -0.1766 -0.1279
16298OCT     C232596  14.524   1.672  17.685  0.2882 -0.0404 -0.0755
16299OCT     C132597  14.859  12.844  21.015 -0.3627  0.6765 -0.2303
16299OCT     C232598  15.034  12.728  21.404 -0.0535  0.0545 -0.3254
16300OCT     C132599   7.132   1.985  20.088  0.0865  0.1051  0.2410
16300OCT     C232600   6.921   2.446  20.166  0.1664  0.0898  0.4426
16301OCT     C132601  12.799   3.764   4.742  0.0025 -0.0760  0.0389
16301OCT     C232602  12.931   4.206   4.692 -0.0277 -0.0377 -0.1784
16302OCT     C132603   7.709  21.371  20.031  0.1816 -0.2627 -0.0907
16302OCT     C232604   7.375  21.683  20.065  0.1484 -0.2497 -0.0626
16303OCT     C132605   5.132   6.855   9.522  0.5771  0.1152  0.2411
16303OCT     C232606   5.036   6.381   9.609 -0.1670  0.1179  0.2459
16304OCT     C132607   9.374  23.420   9.468  0.1316  0.1454  0.2472
16304OCT     C232608   9.382   0.021   9.775  0.0559 -0.2377  0.1503
16305OCT     C132609  12.384  22.381   4.528 -0.1436 -0.0596  0.1007
16305OCT     C232610  12.587  22.302   4.072  0.0276  0.3348 -0.2293
16306OCT     C132611  12.441  13.924  13.869  0.3619  0.1086  0.3215
16306OCT     C232612  12.778  14.157  13.651 -0.3352  0.3123 -0.0258
16307OCT     C132613   5.724  18.073   5.651 -0.0398  0.2165 -0.4552
16307OCT     C232614   6.119  18.153   5.510 -0.1415  0.3877  0.3328
16308OCT     C132615  13.958   5.603  13.859  0.1497  0.0615  0.3794
16308OCT     C232616  13.631   5.869  14.020  0.2278 -0.4310 -0.4282
16309OCT     C132617  15.772  20.603   7.807 -0.2092  0.3613  0.0988
16309OCT     C232618  15.901  20.140   7.852  0.0553  0.1263  0.3794
16310OCT     C132619  18.566   9.309  19.352  0.0058  0.3416 -0.2180
16310OCT     C232620  18.720   9.666  19.126 -0.0849 -0.1902  0.3707
16311OCT     C132621  11.819   6.545  23.636  0.1018  0.2977  0.0305
16311OCT     C232622  12.073   6.438   0.259 -0.1570  0.0497  0.0315
16312OCT     C132623  17.468   4.593   9.542 -0.0946  0.0797  0.6515
16312OCT     C232624  17.825   4.748   9.710  0.0934 -0.2076 -0.1573
16313OCT     C132625  17.074   6.613  22.209 -0.1697 -0.1920 -0.1834
16313OCT     C232626  17.528   6.724  22.418 -0.0854 -0.1045 -0.2586
16314OCT     C132627  14.950  15.686   1.984 -0.0759 -0.1552 -0.0313
16314OCT     C232628  15.217  15.349   1.806 -0.0221  0.1335 -0.0944
16315OCT     C132629   8.003   7.460  16.193  0.0780  0.0095  0.1729
16315OCT     C232630   7.593   7.629  16.142  0.4596 -0.1089 -0.1106
16316OCT     C132631  15.302  15.672  17.535  0.2131  0.2663  0.0508
16316OCT     C232632  15.534  16.047  17.397 -0.1238  0.1187  0.0904
16317OCT     C132633   6.472   4.936   4.423  0.1772  0.3954 -0.1527
16317OCT     C232634   6.545   5.270   4.755 -0.4109 -0.0123 -0.1305
16318OCT     C132635   4.729  15.484  15.307 -0.1717 -0.0221 -0.0911
16318OCT     C232636   4.633  15.427  15.765 -0.1839 -0.1339  0.0973
16319OCT     C132637   2.450   3.517   2.031  0.2892 -0.0339 -0.3777
16319OCT     C232638   2.418   3.495   1.559  0.1424  0.1175 -0.0574
16320OCT     C132639   3.138  17.726   2.151  0.2359 -0.0401  0.3438
16320OCT     C232640   2.946  17.358   1.915  0.3107 -0.0007  0.1107
16321OCT     C132641  10.904  11.004   1.710 -0.1149 -0.3539 -0.0009
16321OCT     C232642  10.850  11.495   1.700  0.1989  0.0286  0.2539
16322OCT     C132643  18.860  16.460   0.914  0.1374 -0.1360  0.1772
16322OCT     C232644  18.718  16.399   0.461 -0.6537 -0.0781 -0.0178
16323OCT     C132645  13.358   7.283  16.731 -0.1716 -0.0317 -0.0782
16323OCT     C232646  13.398   7.462  16.346 -0.1660  0.0956  0.0037
16324OCT     C132647   4.786   9.395  17.730 -0.0501 -0.1207 -0.2693
16324OCT     C232648   5.204   9.258  17.647 -0.0013  0.1804 -0.1271
16325OCT     C132649  13.757   0.515   7.742  0.1907  0.0080  0.2371
16325OCT     C232650  14.112   0.322   7.452  0.1073 -0.2675 -0.1397
16326OCT     C132651   7.631   3.789  10.270 -0.1126 -0.1057 -0.1548
16326OCT     C232652   7.413   3.483   9.995  0.0312  0.0683 -0.0092
16327OCT     C132653  11.876   4.286  11.525  0.2878 -0.2000 -0.0180
16327OCT     C232654  12.295   4.463  11.332  0.1067 -0.3001  0.0940
16328OCT     C132655  19.388   9.134  16.030  0.0824  0.0275  0.3216
16328OCT     C232656  19.085   9.324  16.353 -0.0843  0.0938  0.0870
16329OCT     C132657   0.282  16.556  11.253  0.2508 -0.1276  0.0287
16329OCT     C232658  23.555  16.614  11.357 -0.1485 -0.4432  0.0122
16330OCT     C132659  22.701   6.297   1.079 -0.0075 -0.1246  0.1430
16330OCT     C232660  23.163   6.460   1.063  0.0940  0.2940 -0.0497
16331OCT     C132661  22.952  16.793   4.639 -0.0533  0.2107 -0.0355
16331OCT     C232662  22.765  16.952   5.005  0.0624 -0.0818  0.0341
16332OCT     C132663  23.462  16.685  16.498  0.1939  0.1522 -0.0743
16332OCT     C232664  23.669  17.125  16.446 -0.0716 -0.2542 -0.0404
16333OCT     C132665  16.321  13.592   1.052 -0.1100 -0.1002  0.3584
16333OCT     C232666  16.500  13.315   1.359 -0.3998  0.2448  0.2902
16334OCT     C132667  19.740  17.344  11.568  0.0314 -0.0041 -0.0692
16334OCT     C232668  20.209  17.315  11.470 -0.1599  0.3577  0.5791
16335OCT     C132669  17.803  13.039   5.550 -0.3055 -0.1523 -0.3139
16335OCT     C232670  18.217  13.290   5.525  0.4039  0.0645  0.0514
16336OCT     C132671   1.460   9.943   0.649 -0.3351  0.1135 -0.0254
16336OCT     C232672   1.690   9.983   1.047 -0.1715  0.1488  0.0469
16337OCT     C132673   5.339   2.271   7.534  0.3172  0.0923 -0.0745
16337OCT     C232674   5.360   1.954   7.826 -0.2771  0.2008 -0.1483
16338OCT     C132675  16.695   3.399  14.473  0.1536 -0.0523 -0.2757
16338OCT     C232676  16.628   3.044  14.823 -0.2945 -0.2984 -0.0492
16339OCT     C132677   3.375   2.515   5.400  0.1531  0.1161  0.1139
16339OCT     C232678   3.598   2.128   5.432  0.0489  0.0498 -0.3616
16340OCT     C132679  12.808   4.944  18.765 -0.0535  0.0416  0.1067
16340OCT     C232680  12.859   5.362  18.605 -0.2064  0.1071  0.0465
16341OCT     C132681  17.430   7.750  14.408  0.0401  0.1030  0.1111
16341OCT     C232682  17.126   7.984  14.205  0.2107  0.2710 -0.0247
16342OCT     C132683   9.597   5.352  19.889 -0.1133  0.0960 -0.0851
16342OCT     C232684   9.727   5.782  19.684 -0.2320 -0.0210 -0.0789
16343OCT     C132685  21.685  17.416   3.415  0.0453 -0.1747 -0.2797
16343OCT     C232686  21.622  17.880   3.446 -0.1463  0.0452  0.4561
16344OCT     C132687   4.350   6.983  11.300  0.1866 -0.0415 -0.4356
16344OCT     C232688   4.496   6.717  10.916 -0.0966  0.0294 -0.1347
16345OCT     C132689   8.287  22.849   4.813 -0.1971 -0.0749  0.2201
16345OCT     C232690   8.011  23.207   5.043  0.0985  0.0266 -0.0135
16346OCT     C132691   1.962  22.813  20.026 -0.1304 -0.1995  0.0222
16346OCT     C232692   2.115  22.338  20.035  0.1471 -0.1376 -0.0649
16347OCT     C132693  20.527   2.380   3.026 -0.0452 -0.0025 -0.1436
16347OCT     C232694  20.613   2.762   3.211  0.1832  0.0283 -0.3601
16348OCT     C132695  23.135   2.457  16.239  0.1964 -0.1597 -0.3378
16348OCT     C232696  22.920   2.757  16.020  0.0244 -0.1629  0.0002
16349OCT     C132697   4.676   3.249  13.440 -0.0078  0.0490  0.5496
16349OCT     C232698   4.354   3.536  13.653 -0.0059 -0.0479 -0.4681
16350OCT     C132699   0.744   8.436  13.247  0.1943 -0.1768  0.3300
16350OCT     C232700   1.077   8.229  13.484 -0.2215  0.0095  0.6037
16351OCT     C132701   7.780  17.203   5.750 -0.2307 -0.0736  0.0925
16351OCT     C232702   7.978  17.492   6.094 -0.3555  0.1594 -0.1668
16352OCT     C132703  16.908  19.833  16.224 -0.2498 -0.0237 -0.3591
16352OCT     C232704  16.457  19.708  16.210 -0.2261 -0.2805  0.0757
16353OCT     C132705  18.997   6.403  18.204 -0.0274  0.1542 -0.2293
16353OCT     C232706  18.945   6.871  18.217  0.2026 -0.0208 -0.0275
16354OCT     C132707   1.543   0.872   4.127  0.1831 -0.1865 -0.0890
16354OCT     C232708   1.689   1.047   3.689 -0.1240 -0.0072 -0.3746
16355OCT     C132709   8.781   8.150  16.557 -0.1376 -0.1324 -0.3319
16355OCT     C232710   8.774   7.664  16.771  0.2878 -0.0119 -0.1624
16356OCT     C132711   4.992   1.006  15.354  0.1661 -0.3899  0.2350
16356OCT     C232712   4.594   1.164  15.451  0.1871  0.1252 -0.1919
16357OCT     C132713  22.191   5.030   0.712  0.1385 -0.0386 -0.1229
16357OCT     C232714  21.866   5.310   0.619  0.0023 -0.1253  0.3392
16358OCT     C132715  13.075   1.876  16.464  0.0699 -0.3048  0.0211
16358OCT     C232716  13.311   2.298  16.473 -0.0928  0.3640  0.2318
16359OCT     C132717  21.908  10.669  17.168 -0.3805 -0.0533 -0.0106
16359OCT     C232718  22.034  11.032  16.843  0.3045  0.0917  0.0569
16360OCT     C132719  14.467  12.554  11.386 -0.0097 -0.1312 -0.0798
16360OCT     C232720  14.491  12.503  10.870  0.0731  0.4800 -0.1785
16361OCT     C132721   1.954  17.896  20.594 -0.2698 -0.3036  0.1251
16361OCT     C232722   2.433  17.955  20.595 -0.2095  0.1245 -0.1235
16362OCT     C132723   2.410  19.585  15.534  0.2535 -0.2779  0.4868
16362OCT     C232724   2.411  19.151  15.670  0.0091  0.1905 -0.1709
16363OCT     C132725   2.696   1.243   2.850  0.0223  0.0649  0.2572
16363OCT     C232726   2.445   1.619   2.821 -0.0849  0.0184 -0.0363
16364OCT     C132727   1.324  17.578  15.432 -0.0219 -0.0645  0.0073
16364OCT     C232728   1.485  17.194  15.784 -0.2245  0.0185 -0.2729
16365OCT     C132729   4.553   4.833  17.288 -0.1238  0.0662  0.1820
16365OCT     C232730   4.532   4.875  17.731  0.1677 -0.1680 -0.2663
16366OCT     C132731  17.649  17.571  13.253 -0.1399 -0.2115 -0.0811
16366OCT     C232732  17.604  17.687  13.690 -0.1828  0.1184 -0.0618
16367OCT     C132733  13.405  11.630   7.014 -0.1391 -0.0681  0.1140
16367OCT     C232734  12.958  11.560   7.171 -0.0971 -0.0263 -0.0674
16368OCT     C132735  20.846  12.930   7.885 -0.0858 -0.0904  0.1138
16368OCT     C232736  21.245  12.723   7.939 -0.0011  0.3578  0.0332
16369OCT     C132737   6.184  16.520   9.038  0.2914 -0.0260  0.2630
16369OCT     C232738   6.586  16.662   9.234 -0.2835 -0.0278  0.2337
16370OCT     C132739  19.785  15.680   0.644 -0.0605 -0.0724 -0.1041
16370OCT     C232740  19.564  15.315   0.829 -0.1748  0.2708  0.0631
16371OCT     C132741   8.771  12.069   8.351  0.2824  0.0620  0.1860
16371OCT     C232742   8.685  11.933   7.865  0.5282 -0.0321 -0.1431
16372OCT     C132743  10.637   5.513  12.045 -0.0804  0.2518  0.0190
16372OCT     C232744  10.873   5.671  11.652  0.1843 -0.3952 -0.1433
16373OCT     C132745  15.775  15.247  19.630 -0.0461  0.1033 -0.0936
16373OCT     C232746  15.754  15.181  20.100  0.0366  0.0120  0.0666
16374OCT     C132747  14.180  20.345   7.145 -0.0021  0.0507  0.1222
16374OCT     C232748  14.062  20.485   7.525  0.1449 -0.1306  0.4816
16375OCT     C132749   1.334  23.433  12.879  0.1538  0.4625 -0.0997
16375OCT     C232750   1.457  22.987  12.964 -0.1139  0.1928 -0.0528
16376OCT     C132751   4.463  11.559   5.254 -0.0157 -0.0444  0.0435
16376OCT     C232752   4.870  11.346   5.297 -0.2775 -0.1894 -0.1499
16377OCT     C132753   9.158   9.413  17.003 -0.0144  0.2530 -0.2197
16377OCT     C232754   9.416   9.704  16.812 -0.1390 -0.2682  0.0307
16378OCT     C132755   8.686   9.024   8.716  0.0788 -0.1986  0.2898
16378OCT     C232756   8.281   9.180   8.611 -0.2100  0.3071 -0.2952
16379OCT     C132757  22.817   4.802  11.668  0.2198  0.0042 -0.0045
16379OCT     C232758  23.103   4.866  12.009 -0.1459 -0.5070 -0.5495
16380OCT     C132759   9.537  21.128   0.127  0.0782  0.1616  0.2288
16380OCT     C232760   9.756  21.529   0.187  0.3825  0.1296  0.1000
16381OCT     C132761  17.071  18.322  21.358  0.0036  0.0020  0.1098
16381OCT     C232762  17.088  17.848  21.425  0.3640  0.0482 -0.0064
16382OCT     C132763   5.695  12.082   6.534  0.1555 -0.3322  0.2123
16382OCT     C232764   5.686  12.507   6.538  0.1313  0.0087  0.0063
16383OCT     C132765   9.507  10.180  11.033  0.1152  0.2058  0.0246
16383OCT     C232766   9.877   9.883  11.112  0.1995 -0.0859  0.0904
16384OCT     C132767  18.983   0.355   0.384 -0.1902  0.0518 -0.3598
16384OCT     C232768  19.109   0.840   0.390 -0.0714  0.1211 -0.0978
16385OCT     C132769   3.802   9.421  18.124  0.0506  0.0787 -0.2769
16385OCT     C232770   3.708   8.982  17.933  0.1022 -0.6135  0.0839
16386OCT     C132771   5.771  21.788   0.757 -0.1765 -0.0308 -0.3130
16386OCT     C232772   5.667  21.424   1.001 -0.1699  0.1629  0.5153
16387OCT     C132773   8.912  20.426  20.683 -0.1300 -0.0249  0.3278
16387OCT     C232774   9.255  20.195  20.852 -0.0385  0.2678  0.1529
16388OCT     C132775  12.938   8.633  23.601 -0.0790  0.2155  0.3663
16388OCT     C232776  12.490   8.803  23.616  0.0238  0.3275 -0.1657
16389OCT     C132777  23.310   7.289   0.622  0.1954  0.2187 -0.0951
16389OCT     C232778  23.346   6.881   0.937  0.1078 -0.2713  0.0117
16390OCT     C132779  16.993   6.291   7.875  0.1020  0.3713  0.1289
16390OCT     C232780  17.396   6.161   7.817 -0.3092  0.0817 -0.1327
16391OCT     C132781  13.580   3.951   9.036  0.1391 -0.2030  0.3770
16391OCT     C232782  13.964   4.118   9.276 -0.1802 -0.0106 -0.2912
16392OCT     C132783   8.898   1.228   7.067 -0.1648  0.2579 -0.4955
16392OCT     C232784   9.338   0.989   7.198  0.2033  0.3088 -0.1265
16393OCT     C132785  16.131   0.121   7.178 -0.0654  0.0416 -0.0294
16393OCT     C232786  15.917   0.156   7.543  0.2224 -0.3000 -0.0607
16394OCT     C132787  10.455  18.901   1.301  0.0106  0.1032 -0.3542
16394OCT     C232788  10.738  19.165   1.043 -0.2836  0.0330 -0.2742
16395OCT     C132789   9.301   0.022   1.551  0.1246 -0.1011  0.0479
16395OCT     C232790   9.194   0.500   1.431 -0.2108  0.0348 -0.0237
16396OCT     C132791  17.452  18.983   1.552 -0.2536  0.0383  0.2187
16396OCT     C232792  17.606  19.081   2.012  0.4553  0.4098  0.1761
16397OCT     C132793  22.577   4.188  22.460  0.1856 -0.1027 -0.2404
16397OCT     C232794  22.663   3.730  22.571  0.0683  0.1036 -0.0734
16398OCT     C132795   0.209   2.797  12.272 -0.0810 -0.2415 -0.1323
16398OCT     C232796   0.501   2.997  11.910  0.3217 -0.0102  0.0032
16399OCT     C132797  14.037   6.133  18.276 -0.0299 -0.2117  0.0513
16399OCT     C232798  14.012   5.902  17.877 -0.4733  0.4018 -0.1834
16400OCT     C132799  22.958   7.653   0.601 -0.0447 -0.0716 -0.0459
16400OCT     C232800  22.641   7.480   0.939 -0.2587  0.0560 -0.1030
16401OCT     C132801  21.253  21.573   6.475 -0.2309 -0.0958 -0.3471
16401OCT     C232802  21.688  21.699   6.673 -0.0071 -0.1790 -0.0409
16402OCT     C132803  18.657  10.985  18.432 -0.2092  0.1216 -0.2761
16402OCT     C232804  18.414  11.285  18.743  0.5316 -0.0664 -0.3731
16403OCT     C132805  23.180  11.637  11.434  0.0794 -0.2317  0.0040
16403OCT     C232806  23.488  11.982  11.565 -0.0906 -0.0132 -0.1150
16404OCT     C132807  16.386   1.964   3.895  0.3303 -0.1271  0.1620
16404OCT     C232808  16.044   2.047   4.149  0.0098 -0.1843 -0.0753
16405OCT     C132809  10.854   1.399  21.569 -0.3073 -0.1265 -0.4077
16405OCT     C232810  11.311   1.598  21.621  0.3540 -0.4386 -0.0065
16406OCT     C132811   0.460  21.870   0.662  0.2789 -0.1696  0.0285
16406OCT     C232812   0.596  21.452   0.795 -0.0511  0.0558  0.0669
16407OCT     C132813  19.162  22.794  12.535  0.1475 -0.0560  0.0449
16407OCT     C232814  19.159  22.678  12.060 -0.4005  0.0848 -0.1399
16408OCT     C132815   5.864  11.123  11.966 -0.1710 -0.0754 -0.3035
16408OCT     C232816   5.940  10.815  11.606 -0.4418 -0.1483 -0.1602
16409OCT     C132817  16.794  14.292  10.483 -0.2510  0.1584 -0.0479
16409OCT     C232818  17.186  14.294  10.194  0.1212  0.1321 -0.1153
16410OCT     C132819   6.400  14.657  16.611 -0.0528  0.2608 -0.2734
16410OCT     C232820   6.010  14.458  16.382 -0.2609  0.2725  0.0012
16411OCT     C132821   2.606   7.714  21.869  0.1344  0.2338  0.1821
16411OCT     C232822   2.541   7.313  22.042  0.2830 -0.3671  0.0039
16412OCT     C132823  10.099  21.299  10.070  0.1164  0.1216 -0.1119
16412OCT     C232824  10.466  20.971  10.030  0.0334  0.1001  0.1597
16413OCT     C132825  16.988  10.241  11.457  0.0336 -0.1676 -0.0839
16413OCT     C232826  17.436  10.213  11.244  0.2315  0.1431 -0.0312
16414OCT     C132827  14.861   3.412   9.207  0.2278  0.2501 -0.3807
16414OCT     C232828  15.169   3.706   9.420  0.1968 -0.2454  0.1081
16415OCT     C132829   2.654   7.420  17.989 -0.0459  0.3510  0.3686
16415OCT     C232830   2.386   7.687  17.672 -0.2927 -0.1120 -0.1428
16416OCT     C132831  23.001  17.389  22.027  0.0279 -0.3476  0.0641
16416OCT     C232832  22.678  17.704  21.917  0.0594  0.1486  0.0105
16417OCT     C132833  10.330   8.942  20.140 -0.3508 -0.2725  0.1790
16417OCT     C232834  10.033   9.245  19.969 -0.0564 -0.0323  0.2393
16418OCT     C132835   1.371   6.851   8.432 -0.0039 -0.1281  0.1897
16418OCT     C232836   1.067   6.679   8.137 -0.0490  0.1339  0.1694
16419OCT     C132837  22.527  11.616   0.273 -0.1608 -0.1496 -0.0904
16419OCT     C232838  22.524  11.883   0.606 -0.1261 -0.0639 -0.0258
16420OCT     C132839  12.280  14.281  18.724 -0.0601  0.2358  0.1138
16420OCT     C232840  12.443  14.647  18.405  0.3219  0.0623 -0.0851
16421OCT     C132841  11.203  13.024  20.437  0.0357  0.2015  0.3463
16421OCT     C232842  11.261  12.915  20.840 -0.0140 -0.3921  0.0437
16422OCT     C132843  15.803   9.472   6.691 -0.0630  0.0734  0.0624
16422OCT     C232844  15.708   9.042   6.576  0.0886  0.0477  0.1626
16423OCT     C132845  20.683  13.007  12.363  0.2879 -0.2101 -0.2290
16423OCT     C232846  20.376  13.337  12.384 -0.2703  0.1344  0.2430
16424OCT     C132847  19.109   2.912  23.291  0.5148 -0.2722 -0.0755
16424OCT     C232848  19.311   3.263  23.476 -0.0807 -0.1692 -0.2688
16425OCT     C132849  18.724  13.526  14.787 -0.1808 -0.2579  0.3774
16425OCT     C232850  18.870  13.792  14.471 -0.1686  0.1177 -0.0127
16426OCT     C132851  13.283   3.300  12.274 -0.0010 -0.2275  0.3800
16426OCT     C232852  12.767   3.284  12.289  0.1786  0.0176 -0.0187
16427OCT     C132853  12.623   1.971  14.450 -0.2665  0.1723  0.3630
16427OCT     C232854  13.067   2.114  14.427  0.0633 -0.0353  0.0153
16428OCT     C132855   8.343   3.647  20.068  0.1064 -0.2235 -0.1149
16428OCT     C232856   8.042   3.671  19.731 -0.1153 -0.0195  0.0510
16429OCT     C132857  13.851  13.472  16.211  0.2105 -0.0250  0.0405
16429OCT     C232858  14.323  13.457  16.295  0.2860  0.0221 -0.0378
16430OCT     C132859  11.306  14.149   3.140  0.1535 -0.0119  0.0086
16430OCT     C232860  11.760  14.145   3.074 -0.0739  0.1855 -0.1305
16431OCT     C132861   2.190   3.200   8.299 -0.0232 -0.1300  0.1399
16431OCT     C232862   2.554   3.350   8.544  0.4551  0.0262 -0.0351
16432OCT     C132863   9.571   7.421  21.169  0.1695  0.2500  0.1059
16432OCT     C232864   9.763   7.038  21.122  0.1968  0.3262  0.0104
16433OCT     C132865   0.442   9.085  13.781 -0.0740 -0.2192  0.0042
16433OCT     C232866   0.425   9.547  13.902 -0.3989 -0.1640  0.1259
16434OCT     C132867  10.566   0.638  16.689  0.0791  0.1435 -0.3293
16434OCT     C232868  10.064   0.548  16.853 -0.0503 -0.2354  0.2497
16435OCT     C132869   9.130  16.068   8.416 -0.0012  0.1710  0.0372
16435OCT     C232870   9.208  15.882   8.039 -0.2557  0.4216 -0.1463
16436OCT     C132871  17.315   9.682   8.970 -0.5187  0.1347  0.2616
16436OCT     C232872  17.568   9.521   8.578 -0.0047 -0.1162  0.3028
16437OCT     C132873  18.628  12.302   6.798  0.3902 -0.0624  0.0594
16437OCT     C232874  18.643  12.731   6.776 -0.2933  0.3651 -0.1682
16438OCT     C132875   2.975   3.734  10.595 -0.1542  0.6235  0.0663
16438OCT     C232876   2.601   3.468  10.687 -0.2493  0.1332  0.0596
16439OCT     C132877  16.733  20.126   9.982 -0.0067 -0.5795 -0.0878
16439OCT     C232878  16.575  19.913   9.585  0.0047  0.1627  0.3615
16440OCT     C132879  16.978   8.505   9.536  0.0888  0.1252 -0.0373
16440OCT     C232880  16.612   8.809   9.473 -0.1331  0.2281  0.1776
16441OCT     C132881  16.421   7.011   3.313  0.3532 -0.0463 -0.4176
16441OCT     C232882  16.634   6.643   3.357  0.1690  0.2985  0.1584
16442OCT     C132883  20.823   5.657   6.026 -0.3173 -0.2513  0.2764
16442OCT     C232884  20.874   5.581   6.491  0.0539 -0.0890 -0.3588
16443OCT     C132885   2.411   1.916   1.749 -0.1454 -0.2631  0.1088
16443OCT     C232886   2.866   1.886   1.953  0.1353  0.3236  0.1571
16444OCT     C132887   4.603  18.718  11.560 -0.1901  0.1258  0.1390
16444OCT     C232888   4.667  18.717  11.075 -0.0056  0.1107  0.4519
16445OCT     C132889  11.338  21.717   3.133  0.1150 -0.5875 -0.1152
16445OCT     C232890  10.896  21.953   3.123  0.3109 -0.2991 -0.2142
16446OCT     C132891   8.643   5.009  11.263 -0.1077  0.0082  0.0959
16446OCT     C232892   9.107   5.044  11.162 -0.1265 -0.2049  0.3489
16447OCT     C132893   6.850   9.315  11.905  0.2769  0.1022  0.4928
16447OCT     C232894   7.133   8.956  12.073 -0.1764 -0.0597  0.0366
16448OCT     C132895  10.480   0.460  20.981 -0.3021  0.0088 -0.1391
16448OCT     C232896  10.400   0.333  21.422 -0.1627 -0.0023 -0.0308
16449OCT     C132897  10.951  18.404  19.678  0.1804 -0.1799  0.5776
16449OCT     C232898  11.120  18.815  19.857  0.2537  0.0228  0.3948
16450OCT     C132899   7.553   2.127   1.007 -0.1376 -0.0652  0.1985
16450OCT     C232900   7.093   2.013   1.013 -0.2456 -0.0061  0.3888
16451OCT     C132901   6.784   6.219   1.417  0.0399  0.0642 -0.1818
16451OCT     C232902   6.775   5.918   1.798 -0.2610 -0.0516 -0.2182
16452OCT     C132903  19.621   6.666  16.707 -0.0893 -0.0641 -0.1436
16452OCT     C232904  19.622   6.247  16.906  0.0002 -0.1948  0.0118
16453OCT     C132905  21.305  17.636   8.030  0.2511 -0.1576 -0.1831
16453OCT     C232906  20.881  17.439   7.977  0.1811  0.4305  0.1484
16454OCT     C132907  19.835   7.954  20.268  0.0386  0.3829 -0.0529
16454OCT     C232908  19.478   7.684  20.412 -0.0810  0.0047 -0.0215
16455OCT     C132909   2.987  16.848   5.328 -0.4597  0.0498  0.1012
16455OCT     C232910   3.180  16.747   4.905 -0.0800  0.1078 -0.2873
16456OCT     C132911  11.221  10.160   3.106  0.1114  0.4531 -0.5005
16456OCT     C232912  11.486  10.228   2.761 -0.2754  0.2400  0.2061
16457OCT     C132913   9.484   3.741  12.430 -0.1806 -0.0471 -0.0095
16457OCT     C232914   9.230   3.576  12.094  0.0541 -0.1548  0.0011
16458OCT     C132915   3.987  11.507   4.370 -0.1589  0.0734  0.0186
16458OCT     C232916   4.232  11.682   3.972  0.0786  0.1822 -0.0085
16459OCT     C132917  21.923  15.290   6.688  0.1284  0.2349 -0.0292
16459OCT     C232918  21.761  15.260   6.280 -0.4155 -0.0859  0.2204
16460OCT     C132919  19.802   5.811  16.845 -0.2492  0.0632  0.1739
16460OCT     C232920  19.755   5.890  16.395  0.2237  0.2578 -0.2145
16461OCT     C132921  17.290   7.366   2.095  0.2716 -0.1226 -0.0351
16461OCT     C232922  17.383   6.875   2.148  0.3923  0.1842  0.0608
16462OCT     C132923   0.216  20.136   9.177  0.1659  0.2408 -0.1798
16462OCT     C232924   0.226  20.539   8.898 -0.4950  0.1762  0.0171
16463OCT     C132925  22.824  12.590   5.839 -0.3087 -0.2420 -0.2880
16463OCT     C232926  22.473  12.860   5.726 -0.0559 -0.3117  0.0879
16464OCT     C132927   6.446   3.872   2.374  0.1969  0.3702  0.1735
16464OCT     C232928   6.192   3.949   2.740  0.1351  0.2217  0.3248
16465OCT     C132929  10.215  18.452   1.438  0.0775  0.0246  0.0973
16465OCT     C232930  10.545  18.666   1.724 -0.0916  0.0503  0.2671
16466OCT     C132931   0.103  13.287   1.949  0.1456  0.2277  0.4577
16466OCT     C232932   0.457  13.192   1.675  0.1014 -0.2157  0.0316
16467OCT     C132933   7.796  19.199   0.663 -0.0665 -0.4704  0.0654
16467OCT     C232934   8.143  19.365   0.908  0.1519  0.2359  0.0009
16468OCT     C132935  13.829  12.748   6.128  0.0185 -0.0284  0.1118
16468OCT     C232936  13.884  12.378   5.825  0.0855 -0.0714 -0.3921
16469OCT     C132937  15.262  11.759   3.404 -0.2708  0.1069  0.2630
16469OCT     C232938  15.117  11.612   2.963  0.2061  0.4018 -0.0882
16470OCT     C132939   7.844  13.520  10.324 -0.3446  0.3674 -0.3095
16470OCT     C232940   7.860  13.790   9.930  0.1581  0.1511  0.1086
16471OCT     C132941   2.752  18.110  18.652 -0.2156  0.0467 -0.1298
16471OCT     C232942   2.509  18.412  18.514 -0.0594  0.1299 -0.4447
16472OCT     C132943   3.540   4.559   4.014  0.0776 -0.5228  0.2791
16472OCT     C232944   3.531   5.019   4.137  0.0238  0.1542 -0.1835
16473OCT     C132945  10.488   2.263  15.619 -0.2977 -0.0063 -0.1429
16473OCT     C232946  10.291   2.305  16.028  0.3543 -0.1615 -0.0086
16474OCT     C132947   0.561  18.719   5.498 -0.0781 -0.0350 -0.0907
16474OCT     C232948   0.847  18.548   5.177 -0.0746 -0.0527 -0.0687
16475OCT     C132949   6.132  18.380  21.298 -0.1541  0.4663  0.1044
16475OCT     C232950   5.957  18.478  20.842  0.0661  0.0262  0.2406
16476OCT     C132951   7.505  22.085   3.504 -0.0936 -0.0171 -0.1778
16476OCT     C232952   7.056  22.052   3.571  0.1050  0.0027 -0.1191
16477OCT     C132953   4.185  15.111   8.661 -0.2595  0.0112 -0.0619
16477OCT     C232954   4.037  15.321   9.072  0.0802  0.1396  0.4403
16478OCT     C132955   5.708  16.382   4.448  0.0567 -0.0903  0.1742
16478OCT     C232956   5.260  16.408   4.278  0.2987 -0.1333  0.2398
16479OCT     C132957  10.418  21.032  15.461 -0.3410 -0.0327 -0.0773
16479OCT     C232958  10.337  21.493  15.370 -0.0971 -0.2204  0.1313
16480OCT     C132959   2.999  10.202   0.501 -0.2180  0.3598 -0.0567
16480OCT     C232960   3.047   9.931   0.873  0.1412  0.1992 -0.4103
16481OCT     C132961  16.129   9.925   3.413 -0.0609 -0.1654 -0.2152
16481OCT     C232962  15.677   9.817   3.498 -0.2284 -0.1240 -0.1886
16482OCT     C132963   7.645   5.399   7.447  0.1485  0.0350  0.1475
16482OCT     C232964   7.467   4.955   7.532  0.2975 -0.0845 -0.0326
16483OCT     C132965  15.419   7.598   7.160 -0.3230 -0.0681  0.1841
16483OCT     C232966  15.847   7.589   7.356 -0.2401  0.2260 -0.2178
16484OCT     C132967   8.986   5.491   0.907 -0.2729  0.0341 -0.0239
16484OCT     C232968   8.993   5.044   0.897 -0.1938 -0.0502  0.1263
16485OCT     C132969  10.068  18.510  23.063  0.0202  0.0491  0.1534
16485OCT     C232970  10.073  18.540  23.548 -0.2171  0.0906 -0.0281
16486OCT     C132971   2.909  12.361   8.641  0.2252 -0.0312 -0.0275
16486OCT     C232972   2.735  12.271   8.161  0.1663  0.0385  0.0938
16487OCT     C132973   7.399   4.829   2.120 -0.0459  0.0538  0.0349
16487OCT     C232974   7.532   4.388   2.112  0.0548 -0.3712  0.1506
16488OCT     C132975   1.855   7.584  21.571  0.1171  0.3527 -0.1451
16488OCT     C232976   1.474   7.450  21.789  0.3566  0.1814  0.0292
16489OCT     C132977   4.017   9.894  14.172  0.1039  0.1984 -0.0580
16489OCT     C232978   4.278  10.231  14.137  0.1220 -0.0670 -0.1356
16490OCT     C132979  13.718   1.369   2.304  0.0369 -0.0817  0.2725
16490OCT     C232980  13.673   1.814   2.219  0.2502 -0.0650  0.2163
16491OCT     C132981  20.593  20.929  13.872 -0.0740 -0.3250  0.0467
16491OCT     C232982  20.567  21.394  14.046 -0.0456  0.0599  0.1473
16492OCT     C132983  10.696  21.421  16.628 -0.3929 -0.1138  0.2767
16492OCT     C232984  11.090  21.638  16.597 -0.4605  0.3221  0.0444
16493OCT     C132985   2.694  14.706  17.376 -0.2249 -0.1963  0.0547
16493OCT     C232986   2.727  14.246  17.334  0.2535 -0.2312  0.5260
16494OCT     C132987  18.132  13.049   1.977  0.1248  0.0846 -0.1540
16494OCT     C232988  17.816  13.403   1.847 -0.0681  0.3205 -0.1950
16495OCT     C132989  20.807  21.127  22.462  0.0814  0.1302 -0.2037
16495OCT     C232990  20.504  20.892  22.686  0.1759  0.0450  0.0970
16496OCT     C132991  18.457  18.337   4.861  0.1690  0.0518  0.2250
16496OCT     C232992  18.180  18.111   5.147 -0.1116 -0.1951  0.1268
16497OCT     C132993   8.779  12.134  20.514 -0.0362  0.2349  0.1649
16497OCT     C232994   8.894  12.599  20.631 -0.0482 -0.1360  0.1386
16498OCT     C132995  15.099  12.066  11.588  0.1972  0.0412 -0.2655
16498OCT     C232996  14.937  12.259  11.166 -0.2375 -0.0913  0.0823
16499OCT     C132997  10.505   0.208   1.154  0.1188  0.1254 -0.1869
16499OCT     C232998  10.976   0.093   1.139  0.0550  0.0917 -0.1029
16500OCT     C132999  17.785  17.141  23.487  0.1102 -0.3846  0.1156
16500OCT     C233000  17.945  17.538   0.036  0.1088  0.1451  0.0998
16501OCT     C133001  10.358  18.157   2.263  0.2074  0.1715  0.2148
16501OCT     C233002  10.463  18.175   1.811  0.0649 -0.0812  0.3061
16502OCT     C133003   0.392  12.508   6.442  0.2410 -0.3182 -0.1940
16502OCT     C233004   0.738  12.415   6.806  0.5254  0.1022  0.0483
16503OCT     C133005  17.768  10.862   4.831  0.0252 -0.3145  0.1498
16503OCT     C233006  17.372  11.041   4.699 -0.0184  0.1237  0.1143
16504OCT     C133007  22.930   8.370   5.890  0.1093  0.4006  0.3277
16504OCT     C233008  23.068   8.688   5.551 -0.1954  0.2462 -0.3840
16505OCT     C133009  23.668  14.037   0.458 -0.0387 -0.5797 -0.0678
16505OCT     C233010   0.360  14.103   0.224 -0.0795  0.0090  0.1907
16506OCT     C133011  19.085   4.645   4.178  0.2327  0.3531 -0.2651
16506OCT     C233012  18.636   4.669   4.410  0.1354  0.1376 -0.1665
16507OCT     C133013  15.015  13.186  21.357  0.2148 -0.3342  0.0196
16507OCT     C233014  15.330  13.173  20.977 -0.0261 -0.1391 -0.1667
16508OCT     C133015   7.126  18.965  12.269  0.2764  0.0139  0.0275
16508OCT     C233016   7.429  19.299  12.070 -0.1143 -0.2375 -0.0573
16509OCT     C133017  20.310   5.959  10.630  0.1381  0.3505  0.1336
16509OCT     C233018  20.697   5.800  10.553  0.1620 -0.0141 -0.1438
16510OCT     C133019   9.267  21.932  21.586  0.3263  0.1229 -0.1086
16510OCT     C233020   9.128  21.775  21.192 -0.2065 -0.1028  0.0042
16511OCT     C133021  21.238  23.329  14.405  0.0243 -0.1259  0.3918
16511OCT     C233022  21.447  23.102  14.049 -0.2261  0.0071  0.0898
16512OCT     C133023   4.451  10.126  12.771 -0.1061 -0.2042  0.1204
16512OCT     C233024   4.796   9.838  12.654 -0.1639  0.1781 -0.0365
16513OCT     C133025   5.299  19.248  16.933 -0.0732  0.2486 -0.0414
16513OCT     C233026   5.788  19.216  17.088 -0.0600 -0.0431  0.0997
16514OCT     C133027  18.972   5.516   7.352  0.1902  0.0547  0.2054
16514OCT     C233028  19.174   5.457   7.764 -0.1260 -0.0137  0.0884
16515OCT     C133029  20.216  11.724  12.265 -0.1747  0.1262  0.0863
16515OCT     C233030  19.707  11.876  12.170  0.0080 -0.0974 -0.2461
16516OCT     C133031  16.319   1.537   3.554  0.2520  0.0466 -0.1820
16516OCT     C233032  15.938   1.533   3.243  0.0460 -0.1524 -0.3095
16517OCT     C133033  16.148   9.810   0.458 -0.1354  0.1386  0.2155
16517OCT     C233034  16.352   9.414   0.635  0.0001 -0.0646 -0.1301
16518OCT     C133035  12.000   7.599  20.118  0.3237  0.0667 -0.3737
16518OCT     C233036  12.221   7.734  19.696  0.0991  0.0530 -0.4350
16519OCT     C133037   6.627   2.730  19.014 -0.0265 -0.1895 -0.0482
16519OCT     C233038   6.534   2.832  18.560  0.2340 -0.1105 -0.1157
16520OCT     C133039  15.306  10.509  15.680 -0.0928  0.1865 -0.1998
16520OCT     C233040  15.577  10.288  15.928 -0.1307 -0.1368  0.0838
16521OCT     C133041   9.796  15.175  10.693  0.0859 -0.0023 -0.5325
16521OCT     C233042   9.346  15.259  10.762  0.0114  0.1422 -0.3016
16522OCT     C133043  12.510  21.830  23.292 -0.0105  0.3278  0.0283
16522OCT     C233044  12.259  22.218  23.277 -0.2154  0.1288  0.0776
16523OCT     C133045  23.032   1.586  20.783 -0.2010  0.3502  0.0733
16523OCT     C233046  22.899   1.455  21.243 -0.1828  0.1032  0.0895
16524OCT     C133047   5.446  15.225   1.321 -0.0521  0.0794 -0.0629
16524OCT     C233048   5.715  15.341   1.684 -0.1504 -0.0536 -0.0291
16525OCT     C133049  12.556   8.338   0.391  0.1802 -0.0550 -0.1102
16525OCT     C233050  12.941   8.036   0.579  0.2727  0.1319 -0.1511
16526OCT     C133051   3.572   7.399   3.712  0.4161 -0.0254 -0.2663
16526OCT     C233052   3.373   7.437   3.297  0.0116  0.0996 -0.1968
16527OCT     C133053   2.712  13.443   5.268  0.0098 -0.0900 -0.2230
16527OCT     C233054   2.243  13.655   5.223 -0.0704 -0.1125 -0.0172
16528OCT     C133055  13.350  12.534  15.602 -0.2219 -0.2247 -0.0682
16528OCT     C233056  13.614  12.205  15.684 -0.1258 -0.1367 -0.0494
16529OCT     C133057  12.159  16.778   9.147 -0.0663 -0.0205 -0.0746
16529OCT     C233058  12.407  17.004   8.818  0.0416 -0.2413 -0.1510
16530OCT     C133059  21.377   9.720   4.208  0.1203  0.0175 -0.5775
16530OCT     C233060  21.163   9.343   4.217 -0.2744  0.3776  0.0774
16531OCT     C133061  18.143   3.679   4.429 -0.0063  0.1559 -0.2274
16531OCT     C233062  17.806   3.308   4.563  0.1094  0.1362  0.1508
16532OCT     C133063   0.665   6.898  13.744 -0.0070  0.3030  0.0411
16532OCT     C233064   0.345   6.586  13.732  0.0933  0.0112 -0.0147
16533OCT     C133065  13.932   8.158  20.009  0.2694 -0.1079  0.2163
16533OCT     C233066  13.462   8.270  19.968 -0.4462 -0.3538  0.1061
16534OCT     C133067   8.761   9.726  23.229 -0.2060 -0.0057 -0.3023
16534OCT     C233068   8.490   9.443  22.957  0.1980 -0.1358 -0.3175
16535OCT     C133069   7.605   1.365  20.734 -0.3146 -0.1437 -0.1068
16535OCT     C233070   7.340   1.600  20.952 -0.0326 -0.3871 -0.0836
16536OCT     C133071   0.374   8.819  10.194 -0.1530 -0.0709 -0.2056
16536OCT     C233072   0.509   8.444   9.905 -0.0085 -0.3219 -0.2793
16537OCT     C133073   2.395   5.730  11.117 -0.2856 -0.1025 -0.0216
16537OCT     C233074   2.112   5.910  10.779 -0.2216  0.0454  0.1296
16538OCT     C133075  11.120  12.439  20.073  0.0595  0.0337  0.0163
16538OCT     C233076  11.288  12.444  19.643 -0.0350  0.0525  0.3991
16539OCT     C133077   0.573  23.568  21.302  0.2941  0.2050 -0.2520
16539OCT     C233078   0.711  23.486  20.905 -0.1408  0.2186 -0.2543
16540OCT     C133079   1.569  20.845   9.631  0.1116 -0.1397  0.1445
16540OCT     C233080   1.711  20.441   9.736  0.1577 -0.0307 -0.1704
16541OCT     C133081   9.501  16.357   8.652  0.4123  0.0922  0.3635
16541OCT     C233082   9.278  16.517   8.266  0.2957  0.0904 -0.4907
16542OCT     C133083  10.564   7.754   7.556  0.1765 -0.0327  0.0345
16542OCT     C233084  10.848   7.422   7.771  0.3498  0.0779  0.2654
16543OCT     C133085  11.617   0.619  14.529  0.1641  0.1744 -0.3999
16543OCT     C233086  11.732   0.809  14.118  0.0328 -0.1247  0.2059
16544OCT     C133087  20.434  23.022  22.186  0.0537  0.0315  0.1782
16544OCT     C233088  20.792  22.853  22.455 -0.0974 -0.2641 -0.0277
16545OCT     C133089  11.572   5.808  23.285 -0.2992 -0.0763 -0.0449
16545OCT     C233090  11.648   5.362  23.109  0.0789 -0.0175 -0.0351
16546OCT     C133091   5.294  11.065  19.319 -0.2107  0.0258 -0.2673
16546OCT     C233092   5.183  11.297  18.962 -0.4896 -0.1909 -0.3935
16547OCT     C133093  15.338  11.716   3.987 -0.1262  0.1607 -0.5092
16547OCT     C233094  15.478  11.717   4.429 -0.0368  0.1208 -0.0919
16548OCT     C133095   8.961  17.203   5.962  0.0150 -0.1711 -0.0589
16548OCT     C233096   9.016  17.475   6.313 -0.3993 -0.0879  0.0498
16549OCT     C133097  21.624  20.008   5.753  0.1069  0.0055 -0.0611
16549OCT     C233098  21.728  20.267   5.408  0.0215 -0.0540  0.0101
16550OCT     C133099   4.313  20.376  23.691  0.1709  0.4670 -0.1277
16550OCT     C233100   4.011  20.691  23.444  0.0508 -0.1775  0.0139
16551OCT     C133101   2.337   8.499  16.772  0.1173 -0.0587  0.1525
16551OCT     C233102   2.538   8.894  16.567 -0.1072 -0.1236  0.1274
16552OCT     C133103   5.353   8.172  21.164  0.3310 -0.3309 -0.0648
16552OCT     C233104   4.977   7.947  21.045  0.2062  0.0529  0.2081
16553OCT     C133105  22.201  18.645  14.144  0.3172  0.0491 -0.4862
16553OCT     C233106  22.606  18.716  14.336  0.0285  0.1872 -0.4811
16554OCT     C133107  11.762  12.654  13.576  0.2294 -0.2641  0.0841
16554OCT     C233108  12.116  12.608  13.900 -0.2833  0.3218  0.1278
16555OCT     C133109   7.478  17.387   9.534  0.2595 -0.0567  0.1710
16555OCT     C233110   7.813  17.559   9.253  0.1085 -0.0999  0.3668
16556OCT     C133111   4.622  14.734  13.321 -0.0103 -0.0360 -0.2902
16556OCT     C233112   4.321  15.034  13.350 -0.0013  0.0180 -0.2034
16557OCT     C133113  13.706   8.062  22.558 -0.0854  0.2989 -0.0934
16557OCT     C233114  13.896   8.139  22.952 -0.3130  0.0235  0.2247
16558OCT     C133115   4.856  20.218   5.389  0.4938  0.0208 -0.1987
16558OCT     C233116   4.401  20.177   5.377 -0.0684 -0.1605  0.0333
16559OCT     C133117   5.948   7.274  20.860 -0.0865 -0.1370 -0.1777
16559OCT     C233118   6.306   7.182  21.118  0.0324  0.1313  0.2758
16560OCT     C133119  16.523  10.999  16.945 -0.1524 -0.2896  0.0053
16560OCT     C233120  16.585  11.247  16.586  0.3748 -0.2991  0.1093
16561OCT     C133121  12.847  10.556  17.179 -0.0595  0.0644  0.2033
16561OCT     C233122  12.380  10.663  17.204 -0.2916 -0.1802  0.0594
16562OCT     C133123   8.647   4.658   0.789 -0.0643  0.0800 -0.0746
16562OCT     C233124   8.123   4.749   0.861 -0.0707  0.1381  0.1446
16563OCT     C133125  17.563   6.666  10.596  0.2125 -0.1705  0.1214
16563OCT     C233126  17.722   6.855  10.177 -0.1868 -0.2683 -0.0257
16564OCT     C133127  18.941  18.515  13.882 -0.1477  0.0548 -0.1623
16564OCT     C233128  19.032  18.102  14.112  0.1756  0.3013 -0.6543
16565OCT     C133129   7.006  20.212  13.122 -0.4085 -0.0315 -0.3779
16565OCT     C233130   6.854  19.743  12.986 -0.3379 -0.1177  0.2711
16566OCT     C133131   4.258   7.948   2.397  0.0978  0.0245 -0.5322
16566OCT     C233132   3.915   8.023   2.120 -0.1618 -0.0269 -0.2678
16567OCT     C133133   3.690   8.124   1.301 -0.1260 -0.2515  0.1984
16567OCT     C233134   4.095   8.345   1.077  0.0050 -0.1721  0.1446
16568OCT     C133135   0.821   0.671   5.051  0.0103  0.0166  0.0178
16568OCT     C233136   0.892   0.667   4.607  0.2668  0.0837 -0.2114
16569OCT     C133137   4.264   8.509  20.312 -0.3381 -0.5013 -0.1395
16569OCT     C233138   4.274   8.072  20.413  0.0172 -0.2202  0.1747
16570OCT     C133139   1.372  22.376   9.260  0.2601 -0.2761 -0.3065
16570OCT     C233140   1.106  22.173   8.986  0.3306 -0.0117 -0.0170
16571OCT     C133141  17.778   6.474   5.795  0.1419  0.4574 -0.1409
16571OCT     C233142  17.654   6.910   5.586  0.1206 -0.2412 -0.1628
16572OCT     C133143  12.339  16.437   9.874  0.3502 -0.2580  0.2422
16572OCT     C233144  12.522  16.456   9.440 -0.3541 -0.1043  0.0490
16573OCT     C133145   5.941   6.824  11.987  0.2220  0.1130 -0.0443
16573OCT     C233146   5.700   6.844  11.566  0.2661 -0.2539  0.1032
16574OCT     C133147   9.056   5.222   1.883 -0.0060  0.1909  0.0917
16574OCT     C233148   8.978   5.586   1.595  0.2764  0.2962 -0.0709
16575OCT     C133149  22.697   2.646   8.550  0.0801  0.3332  0.2467
16575OCT     C233150  22.766   3.116   8.523 -0.1836 -0.0473  0.2839
16576OCT     C133151  20.290  15.471   8.893 -0.0739 -0.4729  0.0898
16576OCT     C233152  20.457  15.107   9.115 -0.0572 -0.4966 -0.2334
16577OCT     C133153   1.845  23.015  16.168  0.3465 -0.1161 -0.2684
16577OCT     C233154   1.929  23.207  15.763  0.0412 -0.0608  0.2110
16578OCT     C133155   4.270  10.210   9.946 -0.0510 -0.1063  0.4302
16578OCT     C233156   3.926  10.528  10.039 -0.0451  0.2702 -0.2735
16579OCT     C133157   0.537   3.030   3.124  0.0636  0.1309 -0.0886
16579OCT     C233158   0.596   3.421   3.370 -0.3533  0.2506  0.0250
16580OCT     C133159   6.119  22.891   7.573  0.2244 -0.2113  0.0136
16580OCT     C233160   6.220  22.907   8.006 -0.0435 -0.1955  0.4702
16581OCT     C133161  17.529  12.177  16.015 -0.0764 -0.2797  0.0011
16581OCT     C233162  17.979  12.118  15.884 -0.2174 -0.1007  0.3034
16582OCT     C133163  12.851  13.984  16.773 -0.1765 -0.0345  0.3519
16582OCT     C233164  13.286  14.030  17.025  0.3374 -0.3219  0.1249
16583OCT     C133165   6.607   9.253  22.318  0.0336 -0.2864 -0.1050
16583OCT     C233166   6.824   9.545  22.695  0.1554  0.3038  0.0094
16584OCT     C133167  22.328   7.775   7.815 -0.0264 -0.0947  0.1128
16584OCT     C233168  21.958   7.520   7.793  0.1932  0.0145  0.1447
16585OCT     C133169  16.962   9.234  15.853  0.3798 -0.2540  0.3289
16585OCT     C233170  16.622   9.215  15.556 -0.1728 -0.0760 -0.0424
16586OCT     C133171   6.887   5.820  11.136 -0.2085  0.0748  0.2960
16586OCT     C233172   7.351   5.826  11.179  0.0626  0.1366 -0.1806
16587OCT     C133173  19.041  17.962  12.113  0.1924 -0.1673  0.4827
16587OCT     C233174  18.928  17.903  11.649  0.2519 -0.0162 -0.2994
16588OCT     C133175  15.662  19.802  13.215  0.1206 -0.0006  0.0868
16588OCT     C233176  16.033  19.524  13.177 -0.0188 -0.0660  0.2810
16589OCT     C133177  17.378   7.716   2.492  0.0917  0.0044  0.0841
16589OCT     C233178  17.691   7.666   2.874 -0.1976 -0.0646 -0.0814
16590OCT     C133179  19.518  12.722  14.707 -0.2502 -0.0986  0.0891
16590OCT     C233180  19.107  12.712  14.883 -0.0631  0.0699 -0.0225
16591OCT     C133181  21.959  10.541  15.965  0.3653  0.1085  0.2203
16591OCT     C233182  21.922  10.147  16.223  0.2751  0.1929  0.4144
16592OCT     C133183  13.666  22.069   0.286  0.1900  0.0066 -0.0731
16592OCT     C233184  13.543  21.593   0.286  0.2921  0.2138 -0.1733
16593OCT     C133185  13.528  13.479  18.659  0.2305  0.1824 -0.1314
16593OCT     C233186  13.710  13.890  18.830  0.1375  0.1960  0.1250
16594OCT     C133187  10.641  20.318  11.355  0.1037  0.2846  0.0039
16594OCT     C233188  11.073  20.180  11.220  0.0135  0.0166 -0.0391
16595OCT     C133189  22.412  15.727  19.188 -0.1455 -0.0333  0.0718
16595OCT     C233190  22.783  15.842  18.925 -0.0306  0.6048  0.2766
16596OCT     C133191  10.841  12.569  23.044 -0.2654  0.2716  0.2225
16596OCT     C233192  10.734  12.145  22.866 -0.0438  0.5999 -0.2037
16597OCT     C133193  18.702  14.367  18.668 -0.1629  0.2074 -0.0964
16597OCT     C233194  18.355  13.994  18.706 -0.3073  0.1477  0.3378
16598OCT     C133195  18.362  22.744  17.027 -0.0730 -0.4005  0.1623
16598OCT     C233196  18.195  22.932  17.388  0.1202 -0.2088  0.0577
16599OCT     C133197  17.162  21.443  16.989 -0.1398  0.0265  0.0342
16599OCT     C233198  17.406  21.054  16.993  0.0116  0.2423  0.0423
16600OCT     C133199   8.624  21.624   1.188 -0.1828  0.2439  0.0556
16600OCT     C233200   8.609  22.054   1.004  0.1141 -0.1199  0.1981
16601OCT     C133201   7.972   3.094   9.320  0.0466 -0.1922 -0.1368
16601OCT     C233202   8.326   3.078   9.540  0.0360 -0.1995  0.0304
16602OCT     C133203  20.250   5.798  10.162 -0.2383 -0.0268  0.0849
16602OCT     C233204  20.706   5.850  10.050  0.1510  0.1526 -0.1027
16603OCT     C133205  17.887  10.524  11.444 -0.0639  0.0101  0.1269
16603OCT     C233206  18.108  10.106  11.517 -0.2164  0.0120 -0.0830
16604OCT     C133207  11.989  17.782  13.188 -0.1980  0.3056 -0.1307
16604OCT     C233208  11.942  17.357  13.438  0.1898 -0.0284 -0.1764
16605OCT     C133209  16.694  23.049   7.417  0.4091  0.0445 -0.4307
16605OCT     C233210  16.943  22.938   7.055 -0.1076  0.2815 -0.0789
16606OCT     C133211  19.062  21.472   3.547 -0.3179 -0.3792 -0.0003
16606OCT     C233212  18.937  21.105   3.320 -0.0062 -0.1021  0.3089
16607OCT     C133213   7.473  12.187  16.039 -0.2498  0.1732 -0.1743
16607OCT     C233214   7.185  12.115  15.708 -0.0086 -0.0487 -0.3217
16608OCT     C133215   2.350   8.391   8.030  0.0706  0.4763  0.2005
16608OCT     C233216   2.550   8.309   7.588 -0.0777  0.2424 -0.3019
16609OCT     C133217  12.108  20.928  22.234 -0.5673  0.0947 -0.1108
16609OCT     C233218  11.773  20.624  22.103  0.0049 -0.1729  0.2724
16610OCT     C133219  12.581   7.650   3.938  0.0208 -0.2565  0.2733
16610OCT     C233220  12.935   7.311   3.814  0.2442 -0.0203 -0.1568
16611OCT     C133221  16.294  10.392   6.002 -0.2203  0.0714 -0.0689
16611OCT     C233222  16.206  10.760   5.708 -0.1230 -0.0724 -0.1818
16612OCT     C133223  18.104  18.062  22.886  0.0550 -0.0638  0.1728
16612OCT     C233224  18.113  17.593  22.994  0.1281 -0.0512 -0.1358
16613OCT     C133225  21.698  17.011   7.448  0.0685  0.0794 -0.0705
16613OCT     C233226  21.627  17.324   7.797 -0.0374  0.4043  0.1556
16614OCT     C133227   6.400   0.934  10.399  0.0526  0.2116 -0.2783
16614OCT     C233228   6.518   0.747  10.824 -0.1857  0.0729 -0.2632
16615OCT     C133229   7.340   7.040   4.463  0.0061  0.1002  0.1587
16615OCT     C233230   7.799   6.960   4.606  0.1944  0.0595 -0.2362
16616OCT     C133231  19.661  23.058   5.864  0.1932 -0.0036 -0.3056
16616OCT     C233232  19.689  23.460   5.588  0.3975  0.0756  0.0841
16617OCT     C133233   5.128   3.744   0.254  0.1943  0.0104  0.0411
16617OCT     C233234   5.384   3.368   0.109 -0.0559 -0.3199 -0.2049
16618OCT     C133235   9.471  17.810   2.002  0.1757  0.3898  0.0794
16618OCT     C233236   8.984  17.874   2.060  0.2935  0.0418  0.0033
16619OCT     C133237   8.986   5.685   2.155 -0.1788 -0.2687 -0.4044
16619OCT     C233238   9.297   5.411   2.288 -0.0425 -0.1728 -0.0355
16620OCT     C133239  12.261   4.755  18.488 -0.2048 -0.2110  0.0465
16620OCT     C233240  11.893   4.603  18.182 -0.1236  0.0724  0.2501
16621OCT     C133241   7.153  15.785  21.670  0.1457 -0.2374  0.0618
16621OCT     C233242   7.549  15.693  21.853  0.1373 -0.3823 -0.3108
16622OCT     C133243  23.072  12.194  22.313  0.1626 -0.0990 -0.0114
16622OCT     C233244  22.922  12.652  22.187  0.1106  0.0526  0.2951
16623OCT     C133245   5.405   8.578   2.640  0.1588  0.4034 -0.2553
16623OCT     C233246   5.733   8.282   2.814 -0.0201  0.0777  0.1649
16624OCT     C133247  22.368   0.422  10.947  0.1035  0.1022  0.0900
16624OCT     C233248  22.354   0.259  11.369 -0.1661  0.1860  0.0553
16625OCT     C133249   8.929   9.408   9.821 -0.6411  0.0308  0.3343
16625OCT     C233250   8.617   9.764   9.934 -0.0902  0.1163 -0.0642
16626OCT     C133251   8.707   3.975  21.428  0.0213 -0.4232 -0.0335
16626OCT     C233252   8.336   4.184  21.280 -0.1866  0.2076  0.1677
16627OCT     C133253  18.781  21.880  15.326 -0.2412 -0.3464  0.1471
16627OCT     C233254  18.519  21.716  15.013 -0.4494  0.2255  0.2277
16628OCT     C133255  12.606   8.504  15.600 -0.1022 -0.0197  0.1076
16628OCT     C233256  12.932   8.573  15.279  0.1107 -0.1180  0.1676
16629OCT     C133257   5.984   6.661   7.248  0.1073  0.2129 -0.5494
16629OCT     C233258   6.068   6.250   7.448 -0.1443  0.3619 -0.0063
16630OCT     C133259   9.223   0.815   5.999 -0.0206  0.2083 -0.4156
16630OCT     C233260   8.890   1.092   6.176 -0.5217 -0.2408  0.1333
16631OCT     C133261   2.650  23.623  18.882  0.0855 -0.5791 -0.0176
16631OCT     C233262   2.709  23.165  18.833  0.1312 -0.3301 -0.0840
16632OCT     C133263  18.279  13.693  17.910  0.0309 -0.4080  0.0517
16632OCT     C233264  18.262  13.248  17.789 -0.3584  0.1255 -0.1115
16633OCT     C133265  12.057   4.409   5.429  0.3560  0.2505  0.0026
16633OCT     C233266  12.261   4.615   5.738  0.2484 -0.0398 -0.3286
16634OCT     C133267  13.011   7.166   8.670  0.1747 -0.4111 -0.0702
16634OCT     C233268  13.277   6.884   8.941  0.1162  0.1235 -0.0147
16635OCT     C133269  11.995   4.034  16.708  0.0309  0.1919  0.1309
16635OCT     C233270  12.193   4.353  17.054 -0.4226 -0.0169  0.0496
16636OCT     C133271  21.057  11.227  18.491  0.0675  0.0939  0.2258
16636OCT     C233272  21.135  11.388  18.023 -0.2315 -0.0784 -0.0381
16637OCT     C133273   2.929   8.328  16.362  0.0452  0.1763 -0.1790
16637OCT     C233274   2.910   8.510  16.797  0.2104  0.1870 -0.1619
16638OCT     C133275  21.150  14.952  21.330  0.1913  0.1931  0.1542
16638OCT     C233276  21.214  14.494  21.378  0.2233 -0.0244  0.0403
16639OCT     C133277  15.257   9.882   8.752  0.0271  0.1083 -0.1515
16639OCT     C233278  14.788   9.981   8.958  0.1822  0.0543 -0.1116
16640OCT     C133279  23.168  15.142  16.484 -0.0315  0.0449 -0.4761
16640OCT     C233280  23.625  15.049  16.349 -0.0568 -0.1123 -0.3701
16641OCT     C133281   6.608   9.757  22.114 -0.1927  0.4531 -0.2802
16641OCT     C233282   6.997  10.068  21.954  0.3794 -0.0643 -0.3666
16642OCT     C133283  14.609  10.950   7.754  0.3956  0.0730 -0.0633
16642OCT     C233284  14.185  10.795   7.788 -0.0417 -0.2972 -0.1932
16643OCT     C133285  18.993   3.217   1.229  0.2684 -0.1773 -0.1196
16643OCT     C233286  18.661   3.411   1.496  0.0410  0.4418  0.1544
16644OCT     C133287   6.591  17.755  20.129 -0.1610  0.0085  0.1653
16644OCT     C233288   6.731  17.901  20.555 -0.0829 -0.1336  0.1092
16645OCT     C133289  18.153   3.060  12.489 -0.1248 -0.1798 -0.0780
16645OCT     C233290  17.823   3.344  12.341  0.2280 -0.1416 -0.1451
16646OCT     C133291  19.705   4.446  14.946  0.1661  0.0953 -0.1382
16646OCT     C233292  19.353   4.633  14.792 -0.0888 -0.2700  0.2763
16647OCT     C133293  22.650  13.293  17.119  0.0823  0.0350 -0.0172
16647OCT     C233294  23.000  13.141  16.872  0.5026  0.2766  0.1892
16648OCT     C133295   6.519  10.076   9.534  0.4401  0.0328  0.1328
16648OCT     C233296   6.441  10.502   9.538  0.3823 -0.1359 -0.2625
16649OCT     C133297  17.022  15.165  17.761 -0.3035 -0.1525 -0.1660
16649OCT     C233298  16.671  15.253  18.056 -0.1790 -0.1410 -0.1498
16650OCT     C133299  17.570  19.235  11.752  0.1529  0.0941 -0.3339
16650OCT     C233300  17.997  19.331  12.018 -0.0245 -0.2257  0.0569
16651OCT     C133301  16.049   7.081   9.051  0.5348 -0.2227  0.0370
16651OCT     C233302  16.066   7.592   9.097  0.0918 -0.2004 -0.4389
16652OCT     C133303   3.107  23.715  12.322  0.0069  0.0691  0.1852
16652OCT     C233304   3.143  23.497  11.893 -0.1040 -0.1141 -0.2726
16653OCT     C133305  17.084   4.408  13.532 -0.3121  0.1832  0.3217
16653OCT     C233306  17.543   4.275  13.631  0.2915  0.1888  0.1078
16654OCT     C133307  18.499  11.309  21.621  0.3825  0.0196  0.1556
16654OCT     C233308  18.241  11.617  21.779  0.1925 -0.1917 -0.0097
16655OCT     C133309   8.967   8.010  10.519  0.1158 -0.1539  0.2630
16655OCT     C233310   8.812   8.409  10.362 -0.1246 -0.2340 -0.2211
16656OCT     C133311  23.308   7.054  16.404  0.0226  0.2351  0.0095
16656OCT     C233312  22.926   7.119  16.066 -0.5149 -0.0290 -0.2239
16657OCT     C133313  15.554  20.129   7.529  0.5735  0.0469 -0.0383
16657OCT     C233314  15.193  20.110   7.266 -0.1464 -0.4991 -0.2889
16658OCT     C133315  11.647   0.941  18.610 -0.1352 -0.1495  0.2321
16658OCT     C233316  11.742   0.630  18.310 -0.0924  0.1558  0.2586
16659OCT     C133317  21.411   5.431  14.467 -0.1694 -0.2405  0.2791
16659OCT     C233318  21.597   5.425  14.924 -0.0366  0.0265 -0.1615
16660OCT     C133319  21.084  21.396   4.049 -0.0314 -0.1252  0.1349
16660OCT     C233320  20.790  21.316   4.386  0.2021  0.1515  0.4154
16661OCT     C133321   1.334   7.134  19.796  0.2071 -0.1007 -0.5437
16661OCT     C233322   1.276   6.754  20.071  0.1627 -0.2113 -0.0368
16662OCT     C133323   9.350  15.897  23.034 -0.2427  0.0597 -0.1431
16662OCT     C233324   9.389  15.921  23.494 -0.1308  0.4549  0.1479
16663OCT     C133325  12.571   8.196   4.963  0.1116  0.2806 -0.0006
16663OCT     C233326  12.804   8.663   4.983 -0.0838 -0.2586 -0.0141
16664OCT     C133327  14.215  19.876   5.798 -0.1206  0.3807 -0.0378
16664OCT     C233328  13.844  20.073   5.631 -0.0159  0.3090  0.0772
16665OCT     C133329  19.515  11.437   3.163  0.0533 -0.4361  0.1596
16665OCT     C233330  19.285  11.895   3.222  0.1652 -0.1774  0.0445
16666OCT     C133331   1.594  21.845  11.659 -0.2214  0.2680  0.0597
16666OCT     C233332   2.117  21.825  11.658  0.2361 -0.0220  0.1455
16667OCT     C133333  19.129  23.204  22.315 -0.1027  0.0929 -0.1601
16667OCT     C233334  19.449  23.533  22.516  0.0120 -0.1124 -0.0268
16668OCT     C133335   3.434  23.187   5.501  0.1424 -0.2912 -0.0336
16668OCT     C233336   3.743  23.156   5.816 -0.1052  0.1061 -0.1478
16669OCT     C133337  23.104  17.025   2.223 -0.0612 -0.2969  0.0954
16669OCT     C233338  23.262  16.732   2.498 -0.2627  0.0306 -0.0313
16670OCT     C133339  17.245  13.996  19.491  0.2113 -0.0634  0.0180
16670OCT     C233340  17.372  13.570  19.619 -0.0223 -0.2253  0.4098
16671OCT     C133341   3.850  10.689  18.932  0.0270  0.0557 -0.1532
16671OCT     C233342   3.747  10.326  19.217 -0.1674  0.0162  0.1875
16672OCT     C133343   1.978  14.492   1.962  0.2886 -0.5526 -0.0161
16672OCT     C233344   1.988  14.102   2.170 -0.0540  0.5926 -0.1777
16673OCT     C133345   3.947  18.028  21.449 -0.1064 -0.3281  0.1890
16673OCT     C233346   3.535  18.271  21.298  0.1067  0.2765  0.1885
16674OCT     C133347  11.235  17.819   2.901  0.0557  0.1305 -0.0703
16674OCT     C233348  10.912  17.639   2.575 -0.0454  0.0299 -0.0793
16675OCT     C133349  23.587   9.810  18.244  0.3079 -0.3100  0.4491
16675OCT     C233350  23.654   9.610  17.814 -0.3311 -0.3865 -0.1120
16676OCT     C133351  18.549   3.893  11.766 -0.1465  0.2040 -0.1862
16676OCT     C233352  18.283   3.661  12.024  0.0300  0.0400  0.1092
16677OCT     C133353  10.322   2.814   0.421 -0.0752 -0.3349 -0.0268
16677OCT     C233354  10.388   3.149   0.710 -0.2584 -0.1837  0.0610
16678OCT     C133355  21.598  13.842  20.068  0.3177 -0.3549  0.3683
16678OCT     C233356  21.901  14.163  19.940 -0.2021 -0.1243  0.1703
16679OCT     C133357   9.503   5.628  12.929 -0.0490 -0.1596 -0.2324
16679OCT     C233358   9.892   5.620  12.677 -0.1383  0.2486 -0.1007
16680OCT     C133359  18.185   2.887   0.215 -0.3781 -0.1496  0.0560
16680OCT     C233360  18.042   2.922   0.683 -0.2006 -0.0811 -0.2698
16681OCT     C133361  17.311  18.677   2.003 -0.4261  0.1697  0.0256
16681OCT     C233362  17.211  18.662   2.475  0.0316 -0.2438 -0.3463
16682OCT     C133363  23.136   8.038  20.939  0.1479  0.2690 -0.0753
16682OCT     C233364  23.422   7.754  20.957 -0.0849  0.2475 -0.3868
16683OCT     C133365  14.651  16.717  15.099  0.0841  0.1218 -0.0980
16683OCT     C233366  14.870  16.306  15.207 -0.0629 -0.0989  0.4213
16684OCT     C133367   2.884  21.380   0.823 -0.4602 -0.1113  0.5515
16684OCT     C233368   2.421  21.319   0.823  0.0775  0.2130  0.0770
16685OCT     C133369   7.642  13.975   6.164  0.2941 -0.3626  0.1154
16685OCT     C233370   7.648  14.232   6.516 -0.0366 -0.0087 -0.0546
16686OCT     C133371  10.788  20.111  17.200 -0.2050  0.1101  0.2047
16686OCT     C233372  10.564  19.779  17.133  0.0862  0.0368  0.0974
16687OCT     C133373   2.104  16.182  20.786  0.0495 -0.2073 -0.2756
16687OCT     C233374   1.712  16.502  20.755 -0.2667  0.2665  0.1181
16688OCT     C133375  19.082  16.143  11.633 -0.0493 -0.1594 -0.0553
16688OCT     C233376  18.666  16.179  11.374 -0.0404 -0.1172  0.1904
16689OCT     C133377  23.377  19.622  18.977 -0.0831  0.1915  0.2819
16689OCT     C233378  23.396  19.496  19.444 -0.0986  0.1787  0.0186
16690OCT     C133379   1.427   6.732   0.825 -0.1846  0.1022 -0.2840
16690OCT     C233380   1.532   6.883   0.435  0.3878  0.0498  0.0732
16691OCT     C133381  21.528   7.340   0.476  0.1054 -0.0794 -0.3299
16691OCT     C233382  21.643   6.976   0.261 -0.3078 -0.0795 -0.1537
16692OCT     C133383   7.376  22.047  19.722 -0.1102  0.1801 -0.2434
16692OCT     C233384   7.083  22.389  19.648  0.0533 -0.1755 -0.0576
16693OCT     C133385   6.740  10.577  18.906 -0.1472 -0.1187 -0.1238
16693OCT     C233386   6.562  10.706  18.490 -0.1527  0.2523  0.0024
16694OCT     C133387   2.648  17.864   6.304  0.2132  0.0024 -0.1215
16694OCT     C233388   2.665  17.603   5.911 -0.1659 -0.1341  0.2455
16695OCT     C133389  21.493   6.228  15.419 -0.0772  0.0701  0.0266
16695OCT     C233390  21.669   6.375  14.987  0.1580  0.1576 -0.0396
16696OCT     C133391  21.827   3.760  11.316  0.0327  0.2821  0.0791
16696OCT     C233392  21.668   4.178  11.209 -0.0866 -0.3573  0.0822
16697OCT     C133393  20.981   5.753   8.396  0.3895 -0.2506  0.0331
16697OCT     C233394  21.139   5.861   8.011 -0.0351  0.1686 -0.0180
16698OCT     C133395  20.641   7.395   0.856 -0.0055  0.0213 -0.0869
16698OCT     C233396  20.836   7.595   0.472  0.0278  0.0503 -0.0741
16699OCT     C133397   0.800  19.655   6.529  0.0357  0.1279 -0.2074
16699OCT     C233398   1.263  19.788   6.530 -0.1448 -0.1256 -0.4152
16700OCT     C133399  22.487   9.680   1.535 -0.2473 -0.1303 -0.1412
16700OCT     C233400  22.355   9.295   1.535  0.1340  0.1871  0.0643
16701OCT     C133401  23.205   6.607  11.638  0.0858  0.4477 -0.1569
16701OCT     C233402  22.748   6.601  11.723  0.0630 -0.1040  0.2443
16702OCT     C133403  10.940  19.153  15.749  0.0769 -0.1833  0.0421
16702OCT     C233404  11.109  19.596  15.769 -0.1920 -0.2113  0.0322
16703OCT     C133405  13.216  23.230  21.048  0.2543 -0.0386  0.0579
16703OCT     C233406  13.665  23.464  21.058  0.3843  0.1725  0.0632
16704OCT     C133407  14.563   3.590  13.826  0.1619  0.1278  0.1598
16704OCT     C233408  14.322   3.281  14.064  0.3395 -0.1297  0.3339
16705OCT     C133409  10.620  18.857   0.001 -0.2176 -0.2169 -0.2383
16705OCT     C233410  10.966  18.876  23.403  0.2390  0.1393  0.1639
16706OCT     C133411  10.582   9.468  19.273  0.2804  0.1586 -0.2657
16706OCT     C233412  10.189   9.612  19.160  0.0426 -0.2386  0.0763
16707OCT     C133413   6.294   8.597   0.345 -0.3076 -0.4743 -0.0789
16707OCT     C233414   6.278   9.012   0.170 -0.2843  0.3066  0.0157
16708OCT     C133415   0.170   3.524  18.387  0.0377 -0.1916 -0.0622
16708OCT     C233416  23.651   3.707  18.014 -0.1943 -0.2052 -0.0178
16709OCT     C133417   5.765  15.265  13.781  0.1368 -0.0882  0.2222
16709OCT     C233418   5.350  15.142  13.529 -0.0090 -0.0146 -0.2879
16710OCT     C133419   0.456   8.787  15.898  0.1254 -0.1910  0.0765
16710OCT     C233420   0.845   8.868  15.671  0.0137  0.3062 -0.1498
16711OCT     C133421  20.258  18.175   3.800  0.1132 -0.2141  0.0714
16711OCT     C233422  20.362  17.985   4.216  0.0338 -0.0357  0.3185
16712OCT     C133423   3.871  13.245   2.932  0.1207 -0.2636 -0.0287
16712OCT     C233424   3.528  13.079   2.856 -0.0215  0.1708 -0.3772
16713OCT     C133425   8.818   7.701   9.763 -0.0423 -0.2774 -0.4203
16713OCT     C233426   8.676   8.056  10.057 -0.0907 -0.0071  0.0951
16714OCT     C133427  17.658  19.897  18.151  0.0670 -0.1150 -0.4238
16714OCT     C233428  17.242  19.731  18.170 -0.0556 -0.1754 -0.0175
16715OCT     C133429   0.018   7.961   1.620  0.3233 -0.0725  0.2130
16715OCT     C233430   0.097   7.508   1.664 -0.3057  0.0471  0.0167
16716OCT     C133431  13.592  19.195  22.807  0.4267  0.1340 -0.0795
16716OCT     C233432  13.830  19.182  23.226 -0.1117 -0.0705  0.2855
16717OCT     C133433   8.950  17.336  20.982 -0.1700  0.1812 -0.3355
16717OCT     C233434   8.586  17.087  20.877  0.0291 -0.3712 -0.1989
16718OCT     C133435  17.903  20.478   5.770 -0.0194 -0.0077 -0.4503
16718OCT     C233436  18.136  20.785   6.037  0.1581 -0.1061 -0.1273
16719OCT     C133437   2.422  22.344   8.786  0.1981 -0.1595 -0.3643
16719OCT     C233438   2.767  22.255   9.162  0.0220 -0.3261 -0.2625
16720OCT     C133439   2.413   2.018   6.358  0.1855  0.1664  0.1260
16720OCT     C233440   2.601   1.792   6.664  0.2399 -0.2620 -0.3655
16721OCT     C133441   8.161   6.445   5.909  0.4090 -0.0717  0.2087
16721OCT     C233442   8.205   6.826   6.136  0.4335  0.1570 -0.3687
16722OCT     C133443   2.846   2.563  17.134  0.1871  0.2953 -0.3040
16722OCT     C233444   2.499   2.800  17.244  0.0661 -0.0350 -0.3493
16723OCT     C133445  10.804  23.614  19.903  0.1276 -0.0694 -0.0828
16723OCT     C233446  10.882  23.417  20.310  0.2346 -0.0075  0.0785
16724OCT     C133447  12.403  19.728   2.022 -0.0225 -0.3064  0.1349
16724OCT     C233448  12.204  19.524   1.651 -0.2923  0.3073 -0.1317
16725OCT     C133449  16.055  19.463  15.470 -0.1383 -0.1793  0.5410
16725OCT     C233450  16.192  19.908  15.497 -0.1610  0.2442 -0.1687
16726OCT     C133451  18.977  11.815   6.095  0.1993 -0.0018 -0.0279
16726OCT     C233452  19.455  11.740   5.991  0.0321 -0.3676 -0.4055
16727OCT     C133453  22.410   0.028   4.540 -0.0881  0.3476  0.3024
16727OCT     C233454  22.173   0.364   4.658  0.3822  0.1968  0.1005
16728OCT     C133455  20.943   6.756   2.970  0.2831  0.2786  0.1382
16728OCT     C233456  20.669   6.477   3.269 -0.0883  0.2825 -0.1062
16729OCT     C133457   3.305  16.055  16.463  0.1419 -0.0072  0.0703
16729OCT     C233458   3.069  15.857  16.774  0.3116  0.3198  0.0009
16730OCT     C133459  10.419  14.492   6.715 -0.2230  0.0995  0.1745
16730OCT     C233460  10.103  14.234   6.941  0.0999 -0.4771  0.0998
16731OCT     C133461   3.340   7.440  23.608 -0.1876  0.3961  0.3475
16731OCT     C233462   2.982   7.792  23.719 -0.0469  0.2759  0.6160
16732OCT     C133463   4.484  16.242   4.265  0.0792 -0.1965  0.1238
16732OCT     C233464   4.210  16.632   4.159 -0.0995 -0.3222  0.3061
16733OCT     C133465   9.455  18.400  14.047  0.0793 -0.1041 -0.1592
16733OCT     C233466   9.375  18.627  14.446 -0.1829 -0.1424  0.5478
16734OCT     C133467  16.760  10.457   8.180 -0.1880  0.3148  0.2788
16734OCT     C233468  16.615  10.541   7.737 -0.1390  0.3470 -0.3415
16735OCT     C133469   9.443   1.207  22.500 -0.0326  0.0663 -0.1762
16735OCT     C233470   9.035   0.950  22.545  0.0214 -0.0540 -0.1453
16736OCT     C133471  22.948  16.240  23.515 -0.1299 -0.2466 -0.0473
16736OCT     C233472  23.334  16.441  23.595 -0.1551  0.1784 -0.0086
16737OCT     C133473   8.121  15.135   3.719  0.2475  0.0538 -0.2177
16737OCT     C233474   8.311  15.198   3.269  0.2226 -0.5032  0.0530
16738OCT     C133475  10.649   6.658  22.815  0.1502  0.5433 -0.1501
16738OCT     C233476  10.917   6.346  22.633 -0.0490 -0.2353 -0.1475
16739OCT     C133477  12.737  11.285  14.843 -0.4498 -0.3153 -0.1301
16739OCT     C233478  13.133  11.070  14.611  0.1045 -0.1222 -0.0703
16740OCT     C133479  23.608  10.163   7.664 -0.1530  0.2508 -0.3322
16740OCT     C233480   0.104   9.760   7.680  0.3836  0.1550  0.1524
16741OCT     C133481   6.540   9.107  13.007  0.3032  0.1807  0.1572
16741OCT     C233482   6.467   8.647  13.091  0.2518  0.0209  0.3399
16742OCT     C133483  22.461   2.385  22.252 -0.0285  0.0035  0.0424
16742OCT     C233484  22.233   2.076  22.420 -0.0029 -0.1338  0.1476
16743OCT     C133485  14.292   1.840  11.914 -0.2338  0.0738 -0.1977
16743OCT     C233486  14.046   2.005  12.326 -0.0898  0.0447 -0.0669
16744OCT     C133487   1.597   6.735   8.902 -0.0519  0.2714  0.5671
16744OCT     C233488   2.047   6.681   9.027  0.1838  0.1958 -0.1757
16745OCT     C133489  17.139  19.713   0.719 -0.1252  0.0159  0.0606
16745OCT     C233490  17.312  19.366   0.432 -0.4609 -0.3769  0.0686
16746OCT     C133491  19.659  12.599  21.189  0.1299  0.2775 -0.1595
16746OCT     C233492  19.520  12.979  21.007 -0.0214  0.0648  0.0506
16747OCT     C133493  19.737  11.100   7.810 -0.1264  0.1751 -0.0020
16747OCT     C233494  19.319  10.847   7.830  0.1241 -0.3198 -0.3229
16748OCT     C133495  16.587  19.596   1.616  0.0090  0.0148  0.0418
16748OCT     C233496  16.863  19.797   1.885  0.1388 -0.2356  0.3346
16749OCT     C133497  15.146  23.131   8.031  0.5017 -0.3246  0.0122
16749OCT     C233498  14.855  22.865   7.812  0.2747  0.1565  0.4312
16750OCT     C133499  15.214  10.689  13.623  0.0631 -0.0207 -0.3693
16750OCT     C233500  14.915  11.005  13.826 -0.0994 -0.0956  0.0091
16751OCT     C133501   4.776  18.840   2.216 -0.2104 -0.0910 -0.0236
16751OCT     C233502   4.671  19.292   2.267 -0.1527  0.0358 -0.2545
16752OCT     C133503   1.037  19.783   7.806  0.0430 -0.0103  0.1182
16752OCT     C233504   1.082  20.053   8.180  0.0079  0.3570 -0.2727
16753OCT     C133505  12.409  18.369  19.658  0.1899 -0.1812  0.1822
16753OCT     C233506  12.131  18.195  19.298 -0.0614  0.0099 -0.0343
16754OCT     C133507  14.214   3.162  16.193  0.4387  0.3046 -0.0418
16754OCT     C233508  14.221   2.668  16.337  0.4552  0.0780 -0.2431
16755OCT     C133509   9.541  18.826   6.217 -0.0712  0.0469  0.0998
16755OCT     C233510   9.997  18.701   6.304  0.0482  0.0855  0.2239
16756OCT     C133511  17.965   3.585  18.054  0.3892  0.1963  0.1535
16756OCT     C233512  17.674   3.619  18.454 -0.1464  0.0749  0.1352
16757OCT     C133513  12.593   1.699   8.011 -0.3109  0.0450 -0.0999
16757OCT     C233514  12.269   1.915   7.819  0.2579 -0.0627 -0.4081
16758OCT     C133515  10.976  21.350  15.111  0.2073  0.0054  0.0645
16758OCT     C233516  10.762  21.352  15.581  0.0111  0.0939  0.0033
16759OCT     C133517  14.873   8.355   5.358  0.0273 -0.1982  0.1633
16759OCT     C233518  14.659   8.708   5.606 -0.2306  0.0661 -0.3399
16760OCT     C133519  19.021   8.653   3.525  0.3869 -0.3290  0.2464
16760OCT     C233520  18.950   9.094   3.608 -0.1580  0.1852  0.1021
16761OCT     C133521   3.025  21.119  21.318  0.1134 -0.2292  0.0303
16761OCT     C233522   3.291  21.322  21.673 -0.1741  0.1095  0.0406
16762OCT     C133523   5.926   5.766   2.000  0.2813  0.2112  0.1760
16762OCT     C233524   6.045   6.034   2.444  0.3507 -0.0043  0.0108
16763OCT     C133525  13.052  20.934  19.782 -0.2193  0.2677  0.1896
16763OCT     C233526  12.657  21.029  20.024  0.0471  0.1633  0.1531
16764OCT     C133527  10.462   7.162   5.263  0.0414  0.2153 -0.1219
16764OCT     C233528  10.619   6.920   4.927  0.2266  0.1601 -0.1507
16765OCT     C133529   9.911   9.291  22.469 -0.0070  0.0709  0.0631
16765OCT     C233530   9.638   9.153  22.093 -0.0628 -0.0156  0.0040
16766OCT     C133531  21.978   6.778  18.800 -0.3208 -0.1586  0.0802
16766OCT     C233532  22.316   7.100  18.711  0.0285 -0.3636 -0.4255
16767OCT     C133533  13.178  22.916   4.751  0.0940  0.0640  0.0422
16767OCT     C233534  13.052  22.504   4.620  0.0577 -0.0534  0.1999
16768OCT     C133535   2.264   2.413  17.032  0.3335 -0.0719  0.3887
16768OCT     C233536   1.869   2.649  17.199  0.2240  0.1093 -0.1171
16769OCT     C133537   7.697  21.666   9.151  0.0141 -0.3699  0.1335
16769OCT     C233538   7.381  21.999   9.068 -0.3462 -0.2672  0.3400
16770OCT     C133539  18.171  20.407  20.182  0.5791  0.0902  0.0348
16770OCT     C233540  18.123  20.846  20.299  0.0956 -0.0866 -0.0691
16771OCT     C133541   6.510   9.534  10.478  0.2027 -0.0060 -0.2228
16771OCT     C233542   6.111   9.613  10.265  0.0333  0.3161 -0.1127
16772OCT     C133543  21.570   6.319  18.102 -0.0217  0.1330  0.4485
16772OCT     C233544  21.321   6.278  17.691  0.1539 -0.1730  0.0662
16773OCT     C133545  11.047   3.333  23.049  0.5209  0.1989 -0.4163
16773OCT     C233546  10.797   3.227  23.443 -0.1072  0.2030 -0.1003
16774OCT     C133547  16.168   0.575  13.552  0.0807 -0.0800  0.0708
16774OCT     C233548  16.575   0.386  13.661 -0.1659  0.2881  0.0673
16775OCT     C133549  21.026   6.860  22.503  0.2280 -0.0535 -0.2831
16775OCT     C233550  20.656   6.742  22.221 -0.3286  0.0840  0.1773
16776OCT     C133551   8.902  11.425  21.352  0.0383 -0.1903  0.2514
16776OCT     C233552   8.551  11.337  21.044  0.1580  0.1985  0.2770
16777OCT     C133553  20.248   4.181  15.659  0.0690  0.1271  0.2631
16777OCT     C233554  20.376   4.584  15.455 -0.0140  0.3611  0.1482
16778OCT     C133555  20.483   6.593  19.690 -0.0850  0.1443  0.1189
16778OCT     C233556  20.623   7.033  19.547 -0.2642  0.2251  0.1344
16779OCT     C133557   3.783  22.287   3.478  0.0719  0.1700  0.2420
16779OCT     C233558   3.334  22.265   3.396 -0.0217 -0.4094  0.2053
16780OCT     C133559   1.468   4.564   9.912  0.0377 -0.1220 -0.0456
16780OCT     C233560   1.718   4.217  10.103 -0.1450 -0.0357  0.3463
16781OCT     C133561   5.987  17.696   7.760 -0.2768  0.0706  0.1117
16781OCT     C233562   5.764  17.353   7.688 -0.1358 -0.0409  0.0893
16782OCT     C133563   3.357   7.689   8.279 -0.3026 -0.2037 -0.0184
16782OCT     C233564   3.438   7.654   7.820 -0.1506  0.0189 -0.0214
16783OCT     C133565  14.843  16.406  17.020  0.3309 -0.1567 -0.0807
16783OCT     C233566  15.043  15.935  17.171  0.2792 -0.1430 -0.0215
16784OCT     C133567   6.178  21.585   6.572  0.3671 -0.1478  0.2913
16784OCT     C233568   5.761  21.749   6.541  0.1226 -0.0261  0.0759
16785OCT     C133569  22.702   0.817  22.413 -0.3317 -0.0735 -0.2777
16785OCT     C233570  22.441   0.966  22.003  0.0579  0.1506 -0.0040
16786OCT     C133571  14.276  23.543   7.556  0.0851  0.4438 -0.0806
16786OCT     C233572  14.203  23.121   7.353  0.0702  0.3480 -0.1349
16787OCT     C133573   0.639   0.299   2.931  0.0966  0.1615  0.3303
16787OCT     C233574   1.102   0.180   3.012  0.1354 -0.1281 -0.0163
16788OCT     C133575   4.480   0.339  19.994  0.1758  0.0459 -0.2827
16788OCT     C233576   4.348   0.088  19.608  0.1404 -0.0670 -0.5178
16789OCT     C133577   1.308   7.389  18.177 -0.1459 -0.0255 -0.0145
16789OCT     C233578   1.171   7.420  18.625  0.0817 -0.3591  0.4479
16790OCT     C133579   4.550  18.601   3.679 -0.3248 -0.4078  0.1906
16790OCT     C233580   4.378  18.424   3.271  0.1879 -0.1122  0.1261
16791OCT     C133581  16.676  19.695   6.828  0.1034 -0.2198  0.4390
16791OCT     C233582  16.845  19.816   7.286 -0.0494  0.0991 -0.0250
16792OCT     C133583   1.984   2.478  23.009  0.0941  0.2874 -0.3034
16792OCT     C233584   1.563   2.380  22.843 -0.2877 -0.4119 -0.0161
16793OCT     C133585  14.899  10.106  22.808 -0.0292 -0.1187  0.0101
16793OCT     C233586  14.901  10.397  22.406  0.1919  0.2632 -0.1127
16794OCT     C133587  19.153   3.571   0.854 -0.0596 -0.0029 -0.2252
16794OCT     C233588  18.955   3.808   1.210  0.0474  0.0476  0.0383
16795OCT     C133589  12.108   3.277   0.481  0.3178 -0.0616 -0.0219
16795OCT     C233590  12.483   3.503   0.483  0.0327  0.3447 -0.2529
16796OCT     C133591   8.103   0.965  16.327 -0.1611 -0.0870 -0.0676
16796OCT     C233592   7.818   0.590  16.242  0.1812 -0.4992  0.0292
16797OCT     C133593  15.915  17.056  22.239 -0.2164 -0.0429 -0.1061
16797OCT     C233594  15.752  17.480  22.462  0.2961 -0.3402  0.0956
16798OCT     C133595   6.418  17.184   3.927  0.0386 -0.2857 -0.1230
16798OCT     C233596   6.199  16.825   3.979 -0.2239  0.0523  0.1041
16799OCT     C133597  14.871   5.267   6.727 -0.0296 -0.0535  0.1708
16799OCT     C233598  15.290   5.112   6.742 -0.1132 -0.1699  0.0697
16800OCT     C133599   0.399  11.092  22.338  0.1240 -0.2216 -0.2546
16800OCT     C233600   0.376  11.021  21.876 -0.0521 -0.0613 -0.0233
16801OCT     C133601   5.542   4.949   3.062 -0.1188  0.0723  0.1283
16801OCT     C233602   5.373   4.728   3.395  0.2411  0.0771  0.0696
16802OCT     C133603  13.894   5.542   5.196  0.2821 -0.5468  0.1962
16802OCT     C233604  14.289   5.826   5.246 -0.1218  0.0108 -0.3626
16803OCT     C133605   7.712  20.289   8.824 -0.0569  0.1206 -0.0753
16803OCT     C233606   7.975  19.990   8.592  0.1899  0.4835 -0.0773
16804OCT     C133607   2.770   6.250  15.745 -0.2144  0.0535  0.2593
16804OCT     C233608   3.119   6.428  15.616  0.1736  0.0182 -0.0341
16805OCT     C133609  20.838   5.825  19.812  0.0781  0.1656  0.1004
16805OCT     C233610  21.258   5.568  19.852  0.0870  0.0560  0.1701
16806OCT     C133611   3.300  20.098   6.706  0.1312  0.1290 -0.1873
16806OCT     C233612   3.665  19.849   6.881  0.2907 -0.1380  0.1106
16807OCT     C133613  10.610  15.382   2.504 -0.1024 -0.1522 -0.1061
16807OCT     C233614  10.792  14.971   2.670 -0.1683  0.1071  0.0901
16808OCT     C133615  20.040  23.413  22.189  0.1058  0.2318  0.0032
16808OCT     C233616  19.575  23.355  22.036  0.0176 -0.1697 -0.2685
16809OCT     C133617   0.451   5.110  15.424 -0.3520  0.2542 -0.0942
16809OCT     C233618   0.701   5.024  15.045 -0.3276 -0.0961  0.2977
16810OCT     C133619  17.915  20.958   1.692 -0.1332 -0.0982  0.4200
16810OCT     C233620  18.107  21.295   1.948  0.0646  0.4895  0.1087
16811OCT     C133621   4.256  12.880   1.144 -0.1176  0.1768 -0.1450
16811OCT     C233622   4.494  13.307   1.223  0.1089 -0.3113  0.1373
16812OCT     C133623  13.920  15.665  16.585 -0.3846  0.0666  0.0063
16812OCT     C233624  14.067  15.259  16.781 -0.0682  0.4105 -0.2241
16813OCT     C133625  22.838   3.945   7.303  0.2603  0.0633 -0.2873
16813OCT     C233626  22.909   3.941   7.772  0.0226 -0.0496 -0.0526
16814OCT     C133627   9.046  19.110  13.043 -0.0486  0.0339  0.0667
16814OCT     C233628   9.482  18.911  12.947 -0.0100  0.0613 -0.2510
16815OCT     C133629  17.085   9.964   9.845 -0.1340  0.0365  0.3780
16815OCT     C233630  17.385   9.973  10.238 -0.0639  0.3863 -0.0962
16816OCT     C133631  17.882  19.296  19.298  0.1271 -0.1681 -0.2026
16816OCT     C233632  17.852  19.140  19.784 -0.0346  0.1542 -0.1101
16817OCT     C133633  23.351  20.416  15.314  0.3333  0.0100  0.0813
16817OCT     C233634  23.004  20.122  15.483  0.0814  0.1054  0.2111
16818OCT     C133635  17.870   4.090  19.435 -0.1106  0.1202 -0.1042
16818OCT     C233636  17.928   4.571  19.499 -0.0374 -0.1380  0.0411
16819OCT     C133637  12.628   9.085  13.459 -0.1362 -0.1017 -0.2304
16819OCT     C233638  12.496   8.909  13.840  0.2873 -0.1523  0.3850
16820OCT     C133639   7.326  16.115  22.034  0.1526 -0.0318 -0.0687
16820OCT     C233640   7.128  15.751  22.240  0.0476 -0.3213 -0.2250
16821OCT     C133641  19.305  22.317  22.310  0.3366 -0.2878 -0.1914
16821OCT     C233642  19.561  21.916  22.420 -0.0871 -0.0088 -0.1448
16822OCT     C133643   0.948   5.954  14.204 -0.1060 -0.0991 -0.1177
16822OCT     C233644   0.777   6.264  14.457 -0.0769 -0.0914  0.3121
16823OCT     C133645  21.627  11.022  12.939 -0.0642  0.0447 -0.1061
16823OCT     C233646  21.414  11.435  13.117  0.2180  0.0046 -0.2039
16824OCT     C133647   4.320  12.552  15.923  0.2038 -0.3333  0.1459
16824OCT     C233648   4.141  12.259  16.261 -0.0797  0.0244 -0.1811
16825OCT     C133649  21.567  19.207  22.241  0.1102  0.1063 -0.5321
16825OCT     C233650  21.827  18.865  22.461  0.2125  0.1855  0.0852
16826OCT     C133651   6.636  15.961  17.105  0.1435 -0.1805  0.0608
16826OCT     C233652   6.246  15.871  17.269  0.0515  0.2228 -0.3967
16827OCT     C133653   1.995  14.034  20.017  0.0595 -0.3039  0.0624
16827OCT     C233654   2.028  14.444  20.313  0.3392 -0.0172 -0.1085
16828OCT     C133655   2.207   1.452   1.836  0.5352  0.0738  0.2419
16828OCT     C233656   1.900   1.239   2.187 -0.1679 -0.1836  0.3455
16829OCT     C133657  10.831  17.791  16.985  0.3962 -0.0687 -0.1303
16829OCT     C233658  11.120  17.998  16.722  0.2177  0.4337  0.1619
16830OCT     C133659   3.706  16.771  12.005 -0.0649  0.0560 -0.3109
16830OCT     C233660   3.346  16.846  12.314  0.1512 -0.4236  0.0811
16831OCT     C133661  15.478  15.510  13.926 -0.3980 -0.1365 -0.0811
16831OCT     C233662  15.108  15.784  13.992  0.1976  0.0912 -0.0840
16832OCT     C133663   1.607   5.917  18.584 -0.2459 -0.2636  0.0058
16832OCT     C233664   1.845   6.098  18.239  0.3492 -0.0373 -0.0462
16833OCT     C133665   7.449   8.101  16.915 -0.0616 -0.0930 -0.1541
16833OCT     C233666   7.544   8.552  16.885 -0.1779  0.2493 -0.0947
16834OCT     C133667  15.733  22.769  20.913 -0.0083 -0.4269  0.1705
16834OCT     C233668  15.353  22.975  20.845 -0.2791  0.0277  0.1453
16835OCT     C133669  20.106  23.480   8.460  0.0418 -0.1208  0.3646
16835OCT     C233670  20.383   0.024   8.220 -0.1445 -0.8421 -0.1535
16836OCT     C133671  15.585   4.688   2.040 -0.1721 -0.3545 -0.0961
16836OCT     C233672  16.037   4.718   2.118 -0.0588 -0.2642  0.1417
16837OCT     C133673  16.071  14.294   5.322  0.0662  0.0355  0.0010
16837OCT     C233674  15.787  14.635   5.226 -0.3526  0.1650 -0.2272
16838OCT     C133675  11.804  19.011  17.022 -0.0530  0.0366  0.1613
16838OCT     C233676  12.120  19.217  16.770  0.3404 -0.2117 -0.0618
16839OCT     C133677   7.760  21.498   4.499 -0.0560  0.0024  0.3192
16839OCT     C233678   7.824  21.348   4.058  0.3129 -0.0037  0.2475
16840OCT     C133679  11.543  10.882   8.812 -0.4615 -0.0122  0.0143
16840OCT     C233680  12.026  10.861   8.993 -0.1107 -0.1603  0.0037
16841OCT     C133681   2.735  22.243   1.892  0.1542  0.0015 -0.0291
16841OCT     C233682   2.469  22.529   2.161 -0.1458  0.0525  0.0867
16842OCT     C133683  11.274  14.227   3.631  0.6852  0.1595 -0.1789
16842OCT     C233684  11.503  14.533   3.376  0.1314  0.3027  0.3261
16843OCT     C133685  14.941  15.614  19.309 -0.1556 -0.0743  0.0965
16843OCT     C233686  14.776  16.025  19.159 -0.4272 -0.0088  0.1712
16844OCT     C133687  14.877  10.067   0.676  0.3868 -0.0022  0.0197
16844OCT     C233688  14.470  10.309   0.761  0.1098  0.0716 -0.0950
16845OCT     C133689  16.698  18.205  16.393  0.4058  0.0784 -0.0464
16845OCT     C233690  16.877  17.968  16.767  0.1435 -0.3492  0.0309
16846OCT     C133691  11.508   7.077  22.744 -0.1069 -0.2668 -0.0550
16846OCT     C233692  11.776   7.404  22.515 -0.1554 -0.2950 -0.0867
16847OCT     C133693   2.821   8.353  17.570  0.0077  0.0854  0.0185
16847OCT     C233694   2.999   8.712  17.293  0.3358  0.3898 -0.2001
16848OCT     C133695   7.960  20.601   7.205 -0.0061  0.1207  0.0151
16848OCT     C233696   7.947  20.434   6.770 -0.1858  0.0120 -0.3975
16849OCT     C133697   6.848  18.054  23.691 -0.2233 -0.3130 -0.3432
16849OCT     C233698   6.928  18.079   0.399  0.0082  0.1046 -0.0992
16850OCT     C133699   9.508  10.139  20.483 -0.3850 -0.1259  0.2654
16850OCT     C233700   9.105  10.414  20.528 -0.3286  0.0482 -0.2810
16851OCT     C133701  18.687   7.986   9.193  0.0570  0.1109 -0.1894
16851OCT     C233702  18.526   8.325   8.981 -0.0328  0.2423  0.4131
16852OCT     C133703   3.959  11.532   0.035 -0.2789  0.2839 -0.0663
16852OCT     C233704   3.847  11.606  23.307  0.1528  0.1912  0.0733
16853OCT     C133705  10.564   9.189   0.279 -0.3356  0.3458 -0.0017
16853OCT     C233706  10.622   9.042   0.720 -0.1073 -0.0094  0.1640
16854OCT     C133707   6.101  14.463   2.156 -0.0930 -0.0387 -0.2321
16854OCT     C233708   6.174  13.984   2.311  0.0025  0.4094  0.0695
16855OCT     C133709  14.954   3.389  17.100  0.0302  0.2417 -0.4041
16855OCT     C233710  14.975   3.870  17.077  0.0126 -0.0304  0.0036
16856OCT     C133711  16.397   1.394  23.453  0.2783 -0.1374  0.2456
16856OCT     C233712  16.695   1.724  23.256  0.1286  0.0879 -0.2674
16857OCT     C133713   6.169   1.440  10.866 -0.4437  0.1219 -0.0170
16857OCT     C233714   6.532   1.409  11.166 -0.0958 -0.0373  0.1724
16858OCT     C133715   2.089   2.392   0.484  0.0358  0.0752  0.1875
16858OCT     C233716   2.560   2.247   0.569 -0.0449 -0.0520  0.3027
16859OCT     C133717  15.977  10.056   9.632  0.3648 -0.2742 -0.5776
16859OCT     C233718  15.734   9.899   9.988  0.3029  0.0808  0.2805
16860OCT     C133719  16.808  10.807  15.516 -0.0663  0.2377 -0.0069
16860OCT     C233720  16.863  10.585  15.131  0.4370  0.1443  0.1332
16861OCT     C133721  18.155   0.475   5.906 -0.1976  0.1182 -0.0365
16861OCT     C233722  17.883   0.396   5.545 -0.1098  0.0965 -0.0219
16862OCT     C133723   9.973  18.812  13.832  0.0526  0.0925 -0.0588
16862OCT     C233724   9.911  18.652  14.302 -0.3179 -0.0666  0.0485
16863OCT     C133725  21.429   1.223  16.457  0.1203  0.0374  0.0128
16863OCT     C233726  21.736   0.858  16.520  0.4233  0.2120 -0.3877
16864OCT     C133727  15.368  21.354  17.390 -0.2879 -0.2683  0.1151
16864OCT     C233728  15.588  21.669  17.275 -0.1193  0.0231  0.2802
16865OCT     C133729  11.473   6.422  14.821 -0.0479  0.0830 -0.4118
16865OCT     C233730  11.845   6.559  15.096  0.3953 -0.2231  0.0771
16866OCT     C133731   6.633   6.498  18.394  0.1886  0.0774 -0.1545
16866OCT     C233732   7.029   6.732  18.236  0.2848  0.2547  0.0036
16867OCT     C133733   1.585   7.884  19.161 -0.2534  0.0175  0.0769
16867OCT     C233734   1.583   7.489  18.934  0.1148  0.0174  0.4340
16868OCT     C133735  23.153  12.727   4.313 -0.0231 -0.1239 -0.2779
16868OCT     C233736  22.767  12.955   4.423  0.3729 -0.2063  0.1283
16869OCT     C133737  20.042   4.110  22.216  0.1633 -0.1626  0.0129
16869OCT     C233738  19.798   3.965  22.532  0.0372 -0.3898 -0.1168
16870OCT     C133739  22.035   9.209  17.353 -0.0797  0.1219  0.0767
16870OCT     C233740  21.839   8.781  17.424 -0.0769  0.0032  0.3939
16871OCT     C133741  10.043   8.169   9.299 -0.1611  0.4717 -0.1016
16871OCT     C233742   9.779   8.405   9.075 -0.5104 -0.1041 -0.0076
16872OCT     C133743  21.756  11.791  18.169 -0.1870 -0.1026 -0.5263
16872OCT     C233744  21.679  11.933  18.635 -0.1899 -0.0552  0.2529
16873OCT     C133745   6.913  13.491   4.336  0.1835 -0.1788  0.1412
16873OCT     C233746   6.980  13.099   4.145  0.1445  0.4409  0.2015
16874OCT     C133747  17.904   5.871  17.711 -0.1570 -0.0344  0.0690
16874OCT     C233748  17.941   6.302  17.488 -0.0380  0.4434 -0.0878
16875OCT     C133749  12.176  21.637  20.101  0.1084  0.0550  0.0564
16875OCT     C233750  11.852  21.678  19.817 -0.0021  0.2470  0.0103
16876OCT     C133751   2.600   3.976   2.774 -0.4516  0.3843  0.3282
16876OCT     C233752   2.843   4.250   2.469  0.0969  0.2875 -0.0614
16877OCT     C133753  19.172  10.862  20.099  0.1708  0.1424  0.1189
16877OCT     C233754  19.259  11.257  20.334  0.0745  0.1675  0.0392
16878OCT     C133755   7.427  16.829  15.408 -0.0973 -0.4431 -0.0546
16878OCT     C233756   7.727  16.490  15.506  0.1031 -0.0072 -0.3320
16879OCT     C133757  17.388  22.060  15.405 -0.2273 -0.1756  0.3543
16879OCT     C233758  17.161  22.444  15.478 -0.0562 -0.0889 -0.1199
16880OCT     C133759   4.350   9.800  16.490 -0.1492 -0.3349 -0.1614
16880OCT     C233760   4.695   9.905  16.846  0.2865  0.2436 -0.1463
16881OCT     C133761   0.811  14.305  20.440  0.0187 -0.1017 -0.0602
16881OCT     C233762   1.191  14.504  20.409 -0.2342 -0.0413  0.0738
16882OCT     C133763   9.233   9.999   3.785 -0.1814 -0.2820  0.0178
16882OCT     C233764   9.514  10.383   3.928  0.0343  0.1917  0.2328
16883OCT     C133765   7.991  11.735  20.422  0.0011  0.1795 -0.2731
16883OCT     C233766   8.240  11.658  20.780  0.1988  0.2638 -0.3063
16884OCT     C133767  13.967  19.515   1.382  0.1201 -0.2852 -0.2957
16884OCT     C233768  14.274  19.435   0.996 -0.2598 -0.1303 -0.0016
16885OCT     C133769  19.805   6.946   3.952 -0.0526  0.1566  0.0047
16885OCT     C233770  19.424   7.073   3.726 -0.0971  0.0819 -0.0921
16886OCT     C133771  11.777  23.176  22.126 -0.2349 -0.1928  0.1134
16886OCT     C233772  11.856  23.635  22.283 -0.2543 -0.1675 -0.0374
16887OCT     C133773  20.730  22.210  12.367 -0.0668 -0.1347  0.1411
16887OCT     C233774  21.186  22.223  12.393 -0.2340 -0.3525  0.1992
16888OCT     C133775  10.922  15.465   6.821  0.0801 -0.0896  0.1310
16888OCT     C233776  10.815  15.111   6.577  0.0418 -0.2102 -0.1579
16889OCT     C133777  12.743  15.335  14.283 -0.1429  0.1856  0.1557
16889OCT     C233778  12.909  15.457  14.678 -0.1194  0.0275 -0.3410
16890OCT     C133779  11.203   6.538  17.459 -0.2379 -0.5161 -0.3643
16890OCT     C233780  10.765   6.495  17.652  0.2296  0.1207  0.0715
16891OCT     C133781  14.917  19.044  15.540  0.0637 -0.0933 -0.0749
16891OCT     C233782  15.160  18.667  15.736  0.3301 -0.1651 -0.1285
16892OCT     C133783  16.074   1.730  19.162  0.1431  0.1798  0.0950
16892OCT     C233784  16.318   1.922  19.525  0.1154  0.2376 -0.3883
16893OCT     C133785  12.333  11.545  17.904 -0.2363  0.4596  0.1213
16893OCT     C233786  12.730  11.477  17.634  0.0781 -0.0390 -0.1189
16894OCT     C133787  13.846  17.591   9.207 -0.3369  0.0300 -0.4256
16894OCT     C233788  14.188  17.313   9.364 -0.1102  0.1265  0.0878
16895OCT     C133789   0.822  15.987   5.410 -0.1015 -0.1643 -0.0818
16895OCT     C233790   0.796  16.381   5.177  0.1452 -0.0600 -0.4585
16896OCT     C133791  13.307   2.386  17.919 -0.0744 -0.0379  0.2727
16896OCT     C233792  13.420   2.800  17.768  0.2725  0.1507 -0.1142
16897OCT     C133793   5.462   8.593  19.957  0.0661  0.2252 -0.3403
16897OCT     C233794   5.266   8.584  19.542 -0.3169 -0.1531 -0.2100
16898OCT     C133795  22.642   5.821  13.791  0.0663 -0.1511  0.1255
16898OCT     C233796  23.061   5.922  13.582 -0.1744 -0.2540 -0.2030
16899OCT     C133797   5.807  11.688   6.828  0.0774 -0.0629 -0.0044
16899OCT     C233798   6.043  12.103   6.983 -0.1010 -0.3838 -0.1359
16900OCT     C133799   7.906   0.908   8.640  0.0518 -0.0996  0.0117
16900OCT     C233800   7.636   1.105   8.899 -0.0620 -0.2155  0.2886
16901OCT     C133801  16.639  20.320  17.971  0.0672  0.2523  0.0523
16901OCT     C233802  16.759  19.888  17.767 -0.2147  0.0528 -0.1017
16902OCT     C133803  14.531  19.187  19.851 -0.1554 -0.2676 -0.2132
16902OCT     C233804  14.937  19.128  20.118  0.0723  0.0043  0.0346
16903OCT     C133805   3.580  22.946  19.147  0.4231  0.0960 -0.2178
16903OCT     C233806   3.348  23.325  18.970 -0.2892  0.2528 -0.1346
16904OCT     C133807  22.069   8.701   8.783 -0.0918  0.0574  0.2483
16904OCT     C233808  22.361   8.335   8.614  0.0575  0.0360  0.2666
16905OCT     C133809  18.675  12.134   7.251  0.2044  0.2432 -0.0257
16905OCT     C233810  18.377  11.846   7.008  0.3344 -0.3041 -0.1247
16906OCT     C133811   3.201  12.198   6.018  0.4526 -0.2080 -0.4123
16906OCT     C233812   2.831  12.458   6.220  0.2880 -0.1152 -0.2212
16907OCT     C133813   9.385   8.516  14.093 -0.1502 -0.0244 -0.0977
16907OCT     C233814   9.648   8.794  13.914  0.1755 -0.0350  0.2032
16908OCT     C133815   1.995  17.288  15.799  0.2098 -0.1571  0.0499
16908OCT     C233816   2.099  17.733  15.630 -0.0310 -0.2171 -0.1658
16909OCT     C133817  11.670  21.847   4.146 -0.1171  0.0871  0.2958
16909OCT     C233818  11.476  21.996   4.554  0.0008 -0.0574 -0.2732
16910OCT     C133819   5.939  15.526   1.176  0.0158  0.2890 -0.0081
16910OCT     C233820   6.186  15.783   0.916 -0.3931 -0.1781  0.0351
16911OCT     C133821   4.915  14.363   4.909  0.0154 -0.1675  0.2484
16911OCT     C233822   4.701  14.809   4.809 -0.1652  0.1608 -0.1210
16912OCT     C133823   8.130  13.928   8.184  0.5422 -0.0244 -0.1253
16912OCT     C233824   8.067  14.100   7.704  0.0487 -0.0607  0.1479
16913OCT     C133825   3.624  10.734  15.555  0.0563 -0.2749 -0.0730
16913OCT     C233826   3.869  10.334  15.694  0.2470  0.0125  0.3039
16914OCT     C133827   5.976   7.109  12.668 -0.0043 -0.1244 -0.1786
16914OCT     C233828   6.132   7.284  12.240  0.1898 -0.1466  0.0405
16915OCT     C133829  14.962   1.260   3.163  0.1240  0.0095  0.1061
16915OCT     C233830  14.703   0.895   3.338  0.1381 -0.2052  0.0303
16916OCT     C133831  10.684  10.658   7.197  0.0646 -0.2149 -0.1641
16916OCT     C233832  11.052  10.390   7.324  0.1518 -0.2324 -0.6002
16917OCT     C133833   1.060   8.762  17.121  0.1367  0.2548 -0.1051
16917OCT     C233834   0.818   8.512  16.858  0.1611  0.0920  0.3032
16918OCT     C133835  16.332  23.619  22.416  0.0375  0.1666 -0.1465
16918OCT     C233836  16.662  23.643  22.074 -0.2031 -0.3493  0.1282
16919OCT     C133837  15.927   2.935   1.821 -0.1174  0.3133  0.1226
16919OCT     C233838  15.698   2.883   1.431  0.0589  0.4057  0.1042
16920OCT     C133839   7.974  19.521   7.284  0.0214 -0.0332 -0.1465
16920OCT     C233840   7.534  19.305   7.217 -0.5713 -0.0062 -0.2335
16921OCT     C133841  23.033  23.118   3.565  0.4129 -0.1031  0.0017
16921OCT     C233842  23.410  22.971   3.269  0.0937 -0.0283 -0.0117
16922OCT     C133843   6.569   5.988  14.854  0.3192 -0.3301  0.0401
16922OCT     C233844   6.876   5.672  14.784 -0.1528 -0.1451  0.0815
16923OCT     C133845   7.267  12.918  11.701  0.0871 -0.0973  0.2274
16923OCT     C233846   7.254  12.634  11.358 -0.0418 -0.1152 -0.1376
16924OCT     C133847  10.683  17.171  20.397 -0.1511  0.2539  0.1076
16924OCT     C233848  10.704  16.691  20.297 -0.1782  0.4309  0.1724
16925OCT     C133849   0.905  16.983   9.503  0.1348 -0.2100  0.3516
16925OCT     C233850   1.315  16.795   9.559 -0.3957  0.6558  0.1058
16926OCT     C133851  16.086   1.653   6.213 -0.0456 -0.2375  0.1452
16926OCT     C233852  15.802   2.028   6.340 -0.0598  0.2728  0.0945
16927OCT     C133853  17.720   5.007  17.492 -0.2461 -0.0702 -0.0518
16927OCT     C233854  17.520   4.622  17.339  0.1811  0.0922  0.2603
16928OCT     C133855  20.529   2.629  21.853 -0.2231 -0.0844  0.1168
16928OCT     C233856  20.609   3.012  22.130  0.2221 -0.0360  0.2651
16929OCT     C133857  19.862  21.314   4.524  0.3507  0.0011 -0.0281
16929OCT     C233858  19.831  21.775   4.572 -0.1030  0.4049  0.1322
16930OCT     C133859   6.298  15.694   2.786  0.4660 -0.2921 -0.0691
16930OCT     C233860   6.031  15.524   3.109  0.1113  0.0351 -0.3875
16931OCT     C133861   3.881  14.492   2.408  0.0099  0.1703 -0.3132
16931OCT     C233862   3.549  14.435   2.118  0.0265  0.0150  0.1490
16932OCT     C133863  19.843   2.644  18.728 -0.1321  0.0613  0.1956
16932OCT     C233864  19.759   2.303  18.456 -0.1858  0.3318 -0.3717
16933OCT     C133865  12.755  19.385  11.097 -0.2760 -0.0861  0.1524
16933OCT     C233866  12.373  19.190  11.277  0.3254  0.3010 -0.1355
16934OCT     C133867  11.008   0.490  13.174  0.4516  0.0504  0.2688
16934OCT     C233868  10.887   0.354  13.563 -0.0231 -0.0047 -0.0944
16935OCT     C133869  11.353  23.360  15.294 -0.2900 -0.3263  0.0553
16935OCT     C233870  11.048  23.114  15.588  0.0546  0.1444 -0.0019
16936OCT     C133871   0.528  22.520  15.399  0.0324 -0.0660  0.2511
16936OCT     C233872   0.408  22.480  14.965  0.0180 -0.2379 -0.0822
16937OCT     C133873  21.954  21.930  23.144 -0.0212  0.2033  0.2719
16937OCT     C233874  21.517  21.912  22.979 -0.0805 -0.0194  0.2266
16938OCT     C133875   7.978   9.038  20.827  0.1484 -0.1069 -0.3526
16938OCT     C233876   7.958   8.785  20.461 -0.0420 -0.2226  0.2410
16939OCT     C133877  20.882  19.024  23.651  0.0308  0.1110  0.1587
16939OCT     C233878  21.301  19.298  23.677  0.1356  0.0460  0.3428
16940OCT     C133879  12.944  13.559   4.182  0.3132 -0.0116 -0.0003
16940OCT     C233880  13.362  13.402   4.396 -0.4909  0.4373  0.0144
16941OCT     C133881  17.310  23.013   2.561 -0.0073  0.2771 -0.0716
16941OCT     C233882  16.934  22.929   2.394  0.0232  0.2956 -0.2687
16942OCT     C133883  15.334   4.664  11.895  0.0746  0.1289  0.0609
16942OCT     C233884  15.634   5.033  12.007  0.1340 -0.0076 -0.0623
16943OCT     C133885   7.124  17.345   6.334 -0.2698  0.0908  0.0119
16943OCT     C233886   7.553  17.355   6.428  0.3275 -0.0307  0.0420
16944OCT     C133887   1.839  18.252   1.461 -0.0181  0.2570 -0.3211
16944OCT     C233888   1.721  17.816   1.348  0.1217  0.0162 -0.3913
16945OCT     C133889  17.601  23.441   2.952  0.3543 -0.1903  0.2321
16945OCT     C233890  17.185  23.468   2.757 -0.2614 -0.1297 -0.0642
16946OCT     C133891   1.935  21.264   3.381  0.1654 -0.0804  0.1872
16946OCT     C233892   2.123  20.849   3.448 -0.1881  0.0546  0.1338
16947OCT     C133893  20.642  15.279  14.980  0.0532  0.1667  0.2581
16947OCT     C233894  20.548  15.342  14.490  0.0200 -0.3232 -0.0457
16948OCT     C133895  13.156  22.692   7.573 -0.0080  0.1458  0.2326
16948OCT     C233896  13.212  22.216   7.468  0.0892  0.0894  0.0851
16949OCT     C133897   2.737   8.157  14.904  0.1353  0.0760 -0.0128
16949OCT     C233898   2.625   8.636  15.084  0.4405  0.1236  0.2942
16950OCT     C133899   1.740  13.842  22.467  0.1801 -0.1452 -0.0411
16950OCT     C233900   1.819  14.221  22.722  0.0704 -0.0012  0.0566
16951OCT     C133901  10.391  19.386   0.724  0.2162  0.0497  0.1884
16951OCT     C233902  10.489  18.957   0.464  0.0575  0.2279 -0.1916
16952OCT     C133903  13.680   5.362   1.583 -0.3974  0.0391  0.2595
16952OCT     C233904  13.585   5.221   2.014  0.1813 -0.5222  0.0078
16953OCT     C133905  19.814   3.633  21.553  0.0425 -0.1070 -0.5686
16953OCT     C233906  19.550   3.587  21.168 -0.2307 -0.0007  0.1649
16954OCT     C133907  17.989  14.976  13.796  0.3062 -0.0611 -0.0299
16954OCT     C233908  18.360  14.977  13.517  0.2628  0.1156  0.1012
16955OCT     C133909   9.139   6.406   1.512  0.2829  0.0277 -0.1573
16955OCT     C233910   9.156   6.669   1.857  0.3571 -0.2351 -0.0191
16956OCT     C133911  21.947   9.111  18.005 -0.1904 -0.1236  0.1465
16956OCT     C233912  21.614   9.167  17.656  0.0938 -0.2246  0.1715
16957OCT     C133913  17.429  17.360   0.218 -0.3406 -0.0355 -0.1324
16957OCT     C233914  17.643  17.683   0.550  0.3861  0.2190  0.0657
16958OCT     C133915  22.661  18.130   4.551  0.1330 -0.1879  0.2559
16958OCT     C233916  22.414  18.441   4.271  0.1389 -0.1886  0.1675
16959OCT     C133917  23.344  14.900  14.032  0.1609  0.0249  0.3017
16959OCT     C233918  23.422  14.505  13.801 -0.1142  0.0483  0.0749
16960OCT     C133919   1.759  19.214   9.082  0.0689 -0.2148  0.2957
16960OCT     C233920   1.459  19.076   8.767 -0.0766 -0.4878 -0.0114
16961OCT     C133921  12.598  19.422  19.852  0.3942  0.2204 -0.3664
16961OCT     C233922  12.189  19.469  20.107 -0.0803 -0.1424  0.1599
16962OCT     C133923   7.820   6.935   8.936 -0.1702 -0.1621  0.1580
16962OCT     C233924   7.830   6.808   9.369 -0.0367 -0.2965  0.0534
16963OCT     C133925  17.775   9.989  22.825 -0.1156  0.0278 -0.0250
16963OCT     C233926  17.662   9.797  22.443 -0.0016  0.0028  0.1147
16964OCT     C133927   4.983   9.746   2.951 -0.0004  0.1174  0.0152
16964OCT     C233928   4.561   9.638   2.859 -0.2390 -0.3134  0.0108
16965OCT     C133929   8.596  21.587  16.876  0.2010 -0.4307  0.2504
16965OCT     C233930   8.484  21.315  16.532 -0.1462 -0.0464 -0.2962
16966OCT     C133931  11.885   1.187   3.173 -0.2392 -0.2349 -0.1741
16966OCT     C233932  12.177   1.067   2.812 -0.4036  0.0842 -0.0201
16967OCT     C133933  15.612   6.315  13.644 -0.0117 -0.0837  0.1383
16967OCT     C233934  15.196   6.416  13.742 -0.3162 -0.0563 -0.1188
16968OCT     C133935   9.171  15.005  11.263  0.1086 -0.0764 -0.3076
16968OCT     C233936   8.727  15.223  11.177 -0.0168 -0.1535 -0.1300
16969OCT     C133937   5.864  15.761   5.282  0.2992 -0.1087 -0.1421
16969OCT     C233938   5.789  15.753   4.793  0.2293 -0.2900  0.4205
16970OCT     C133939   8.911  11.093  12.354 -0.0080 -0.1396  0.2823
16970OCT     C233940   9.216  11.443  12.410 -0.0737  0.0030  0.1072
16971OCT     C133941  16.095   9.240  15.406  0.3122 -0.0357  0.2109
16971OCT     C233942  15.737   8.938  15.430  0.3070 -0.3210  0.2835
16972OCT     C133943   3.904  14.205  13.045 -0.4257 -0.1123 -0.1201
16972OCT     C233944   3.796  14.059  13.478  0.0237  0.2037 -0.0781
16973OCT     C133945   1.068  11.780  22.776 -0.0855 -0.0308 -0.1086
16973OCT     C233946   1.492  11.704  22.868 -0.0596 -0.2074 -0.0144
16974OCT     C133947   8.246  17.368   4.863  0.3447 -0.4036  0.1983
16974OCT     C233948   8.531  17.701   4.824 -0.3106  0.1666  0.1185
16975OCT     C133949   8.453  12.434   7.133  0.0322  0.2751 -0.0661
16975OCT     C233950   8.516  12.159   7.466  0.1310 -0.0596 -0.0112
16976OCT     C133951  20.721  13.163  11.598 -0.0536  0.0870  0.1295
16976OCT     C233952  20.640  12.723  11.439  0.0411 -0.2096  0.2853
16977OCT     C133953  12.502   9.879   0.544  0.0341 -0.0204  0.1757
16977OCT     C233954  12.692  10.179   0.781  0.1670  0.1582  0.0516
16978OCT     C133955   6.931   9.831   8.914 -0.2059 -0.3244 -0.2069
16978OCT     C233956   7.385   9.685   8.893  0.0168  0.1475  0.0968
16979OCT     C133957   3.314  20.880  18.503  0.1087 -0.0928  0.4869
16979OCT     C233958   3.623  20.760  18.806 -0.3493  0.0512 -0.1557
16980OCT     C133959   6.031   2.416   1.002 -0.3139 -0.4044  0.1037
16980OCT     C233960   6.051   2.305   1.442 -0.1411  0.0965  0.0047
16981OCT     C133961  15.105   8.058  21.806 -0.3723 -0.3753 -0.0738
16981OCT     C233962  14.942   7.960  22.263 -0.0904  0.0115  0.0654
16982OCT     C133963   9.470  10.905  22.629  0.2225 -0.1100 -0.2143
16982OCT     C233964   9.069  11.045  22.352 -0.1234 -0.1027  0.2400
16983OCT     C133965  11.457   4.797  18.834  0.3980  0.1517  0.4568
16983OCT     C233966  11.311   4.348  18.757  0.1785 -0.3806  0.1412
16984OCT     C133967   8.400  21.641   8.248 -0.0200  0.0795  0.2204
16984OCT     C233968   8.760  21.757   7.966 -0.1743  0.1420 -0.1165
16985OCT     C133969  18.657  16.801  12.601 -0.0551 -0.1077 -0.0323
16985OCT     C233970  18.270  17.067  12.714  0.2700 -0.2788  0.2777
16986OCT     C133971  21.806  19.904  23.716  0.3629  0.0199  0.0910
16986OCT     C233972  22.256  19.762  23.615 -0.2829 -0.1187 -0.2450
16987OCT     C133973   4.209   1.757   4.967 -0.0680 -0.0585  0.0468
16987OCT     C233974   4.076   1.362   4.728 -0.1012 -0.2427  0.0476
16988OCT     C133975  12.402  14.267  19.223  0.1542 -0.0584 -0.0351
16988OCT     C233976  12.264  13.831  19.275 -0.0515  0.1594  0.2487
16989OCT     C133977  20.145  12.315  18.447 -0.0317  0.1904  0.2410
16989OCT     C233978  20.423  12.192  18.833 -0.0206  0.1230  0.0471
16990OCT     C133979  13.320   1.109  10.996 -0.0075 -0.3205  0.0133
16990OCT     C233980  13.509   1.536  10.816  0.1489 -0.1008 -0.3369
16991OCT     C133981  21.900  14.135  23.000 -0.2785 -0.0018  0.4079
16991OCT     C233982  22.321  14.414  23.030  0.4150  0.0853  0.0282
16992OCT     C133983   2.587  12.739  12.719 -0.0064 -0.0222 -0.1574
16992OCT     C233984   2.783  12.302  12.861 -0.1793  0.1536 -0.0345
16993OCT     C133985  18.410  10.874  14.037 -0.1527  0.2239 -0.1370
16993OCT     C233986  18.383  10.974  14.462  0.2105  0.1579  0.0144
16994OCT     C133987  21.472   1.052   8.512 -0.4959 -0.0241  0.0872
16994OCT     C233988  21.081   1.212   8.307 -0.1184  0.5296 -0.2770
16995OCT     C133989   2.809   5.495  22.215  0.0565  0.0778 -0.1118
16995OCT     C233990   2.985   5.750  21.901  0.3609  0.3776 -0.0073
16996OCT     C133991  11.005   4.290  11.039 -0.0357  0.1388  0.1225
16996OCT     C233992  11.406   4.475  11.027 -0.3584 -0.2035  0.0867
16997OCT     C133993  21.626   9.761  18.047 -0.1736  0.0848 -0.0674
16997OCT     C233994  21.666  10.130  17.790  0.1370 -0.2317 -0.0822
16998OCT     C133995   0.778   5.678   3.090 -0.1558 -0.3405  0.0674
16998OCT     C233996   0.642   5.211   2.998  0.1165  0.0431 -0.0775
16999OCT     C133997  16.813  18.459   7.003 -0.0429  0.3904 -0.1072
16999OCT     C233998  16.897  18.639   7.444  0.0360 -0.3004 -0.3065
17000OCT     C133999   9.841  16.896   5.052 -0.0265  0.0471 -0.2660
17000OCT     C234000   9.859  16.732   4.641  0.0168 -0.0806  0.2719
17001OCT     C134001  18.824  18.485  19.666 -0.5411 -0.0108  0.3292
17001OCT     C234002  18.406  18.419  19.704  0.1302 -0.1098  0.0377
17002OCT     C134003   0.349   7.392   2.879  0.3707 -0.3728 -0.0158
17002OCT     C234004   0.598   7.079   2.642  0.0366  0.1188  0.0683
17003OCT     C134005  11.506  19.054   1.930 -0.3167  0.2051 -0.1400
17003OCT     C234006  11.380  19.185   1.491  0.0144 -0.3773  0.3846
17004OCT     C134007   5.702  13.223  21.449  0.2247 -0.3004  0.5253
17004OCT     C234008   5.347  12.993  21.239 -0.0024  0.4303 -0.0837
17005OCT     C134009  11.288  12.265  22.574 -0.4838  0.0751  0.1881
17005OCT     C234010  11.184  11.822  22.522 -0.4027 -0.1666  0.0222
17006OCT     C134011   8.099   3.699   3.518  0.1146 -0.1133 -0.3524
17006OCT     C234012   7.858   3.913   3.853 -0.0744  0.1570  0.1615
17007OCT     C134013   4.566  22.818   1.248 -0.1489  0.0153 -0.0241
17007OCT     C234014   4.955  23.033   1.148 -0.3182 -0.3806 -0.3982
17008OCT     C134015  20.322   1.175  19.751 -0.1676  0.1444 -0.0446
17008OCT     C234016  19.971   1.272  20.047  0.0669 -0.2819  0.0633
17009OCT     C134017   3.449   6.471  17.308 -0.0902 -0.0957 -0.2778
17009OCT     C234018   3.500   6.219  16.953  0.1314 -0.1886 -0.0048
17010OCT     C134019  10.262   2.095  23.659 -0.3658  0.1828 -0.1198
17010OCT     C234020  10.124   1.890  23.217  0.1632  0.1401 -0.1082
17011OCT     C134021  23.707  22.809  13.277 -0.2688  0.0635 -0.0560
17011OCT     C234022  23.592  23.236  13.287 -0.0637 -0.2366 -0.0827
17012OCT     C134023   6.810  22.767   6.250  0.1649 -0.2611  0.0757
17012OCT     C234024   6.701  22.305   6.398 -0.0545 -0.3340 -0.3591
17013OCT     C134025  16.421  22.142  13.457  0.0426 -0.2354 -0.0561
17013OCT     C234026  16.415  22.372  13.069 -0.1551  0.0776 -0.2504
17014OCT     C134027  13.520  14.450  11.340  0.2446  0.0591  0.0462
17014OCT     C234028  13.487  14.142  11.008 -0.0218 -0.0634  0.3461
17015OCT     C134029   0.451   9.730  14.347  0.0191  0.2024  0.0475
17015OCT     C234030   0.090   9.541  14.594 -0.1397 -0.2452 -0.3417
17016OCT     C134031   7.962   1.456  18.573 -0.2012 -0.3583  0.2770
17016OCT     C234032   8.371   1.264  18.666  0.1081 -0.2015  0.0235
17017OCT     C134033  13.509  21.728  13.234 -0.1994 -0.1388  0.1437
17017OCT     C234034  13.367  21.867  12.819  0.1953  0.0014 -0.0029
17018OCT     C134035  12.597   5.924  16.226  0.0544  0.1007  0.1251
17018OCT     C234036  12.651   6.315  15.972 -0.1064  0.0267  0.1309
17019OCT     C134037   7.923   4.240  17.081  0.2311  0.0127 -0.0882
17019OCT     C234038   8.150   3.958  17.395 -0.1958 -0.0790 -0.2239
17020OCT     C134039   5.412  13.959  14.874 -0.4177 -0.1539  0.3466
17020OCT     C234040   5.127  14.167  15.200  0.0522  0.3892  0.0233
17021OCT     C134041   7.016  12.555  19.355  0.0424 -0.1882 -0.0918
17021OCT     C234042   6.569  12.853  19.359 -0.3977  0.0735  0.1215
17022OCT     C134043   2.169   7.314   9.393  0.0940  0.0130  0.0972
17022OCT     C234044   1.875   6.940   9.356  0.4390 -0.0276 -0.0362
17023OCT     C134045  11.374   4.390  16.409  0.3538 -0.4052  0.1492
17023OCT     C234046  11.490   3.991  16.644  0.1087  0.0647 -0.3928
17024OCT     C134047  17.016   9.075  15.304 -0.3270 -0.0552  0.0694
17024OCT     C234048  16.909   8.606  15.210 -0.1164  0.0048 -0.0683
17025OCT     C134049  14.578  10.107  22.052 -0.2888 -0.0982 -0.0471
17025OCT     C234050  14.483   9.770  21.639  0.1260 -0.1881  0.1856
17026OCT     C134051  13.228  19.655  13.189 -0.3875 -0.0278 -0.2517
17026OCT     C234052  13.125  19.280  12.934  0.2308  0.0342  0.3973
17027OCT     C134053  22.881   1.679   7.683 -0.5185 -0.2363  0.3094
17027OCT     C234054  22.978   1.271   7.798 -0.0651 -0.1434  0.0507
17028OCT     C134055   3.757  11.893   9.579 -0.1849 -0.2882  0.2853
17028OCT     C234056   3.597  12.355   9.593  0.2621  0.2717 -0.2941
17029OCT     C134057  18.046  18.499  14.849 -0.1358 -0.4720  0.1325
17029OCT     C234058  18.095  18.390  14.360 -0.1654  0.0207  0.2443
17030OCT     C134059   8.387  17.609  15.653 -0.2537  0.1912 -0.0917
17030OCT     C234060   8.796  17.887  15.567  0.1496  0.0915  0.0657
17031OCT     C134061  14.359   1.519   5.557  0.0813  0.0278 -0.0402
17031OCT     C234062  14.757   1.695   5.675  0.1139 -0.0365  0.1215
17032OCT     C134063  13.400  18.692  13.541  0.2005  0.0617 -0.0290
17032OCT     C234064  13.302  18.781  13.976  0.0067  0.0206 -0.3828
17033OCT     C134065  16.124   1.516  17.350  0.0115 -0.2041 -0.0055
17033OCT     C234066  16.603   1.520  17.302 -0.0051 -0.1443 -0.1528
17034OCT     C134067  21.139  14.971  15.670 -0.0516  0.0857  0.1201
17034OCT     C234068  20.981  15.249  15.336 -0.0349 -0.2904 -0.2463
17035OCT     C134069  16.906   3.644   3.639 -0.0338 -0.5949 -0.2498
17035OCT     C234070  16.624   3.926   3.879 -0.0159 -0.2826 -0.0371
17036OCT     C134071   4.065   1.654  17.036 -0.2336 -0.1204 -0.1283
17036OCT     C234072   4.374   1.336  16.869  0.0417  0.2480  0.1165
17037OCT     C134073   8.044   9.077  11.308 -0.2557  0.0117  0.3475
17037OCT     C234074   8.299   8.833  10.999  0.3729  0.1344 -0.0852
17038OCT     C134075   8.649   5.388  10.889 -0.0352  0.0203 -0.0219
17038OCT     C234076   8.227   5.384  10.943 -0.0096 -0.1078 -0.0690
17039OCT     C134077  16.777   4.487  11.529  0.2590  0.0749  0.0976
17039OCT     C234078  16.538   4.139  11.262 -0.1024 -0.2326  0.1265
17040OCT     C134079  10.941   4.253   2.131  0.0754 -0.0247 -0.4147
17040OCT     C234080  10.896   3.819   2.322 -0.0746  0.0259 -0.1877
17041OCT     C134081  23.009  20.316   5.836  0.1356 -0.1096 -0.0378
17041OCT     C234082  23.040  20.598   6.201  0.1128  0.2920  0.1423
17042OCT     C134083   2.871  21.771   2.833 -0.0329  0.0962  0.2374
17042OCT     C234084   2.725  21.489   3.181  0.0593  0.3033  0.1764
17043OCT     C134085  14.109  10.683  15.801 -0.3598 -0.1710 -0.1993
17043OCT     C234086  14.459  10.444  15.517  0.0863 -0.0850 -0.2523
17044OCT     C134087  18.655   0.543  21.587  0.1117 -0.0085 -0.0845
17044OCT     C234088  18.260   0.309  21.686  0.2123 -0.2915 -0.0313
17045OCT     C134089  19.693   7.402   1.744  0.3579 -0.0339  0.1075
17045OCT     C234090  19.723   7.591   2.134  0.0909 -0.1417  0.0361
17046OCT     C134091  22.570   7.614  14.139  0.2727 -0.2188 -0.0071
17046OCT     C234092  22.920   7.635  14.385 -0.2015  0.2593  0.0042
17047OCT     C134093   5.556  17.591  14.753 -0.0822 -0.3872  0.0195
17047OCT     C234094   5.880  17.362  14.981  0.4107 -0.3191  0.0746
17048OCT     C134095  13.672  18.097  23.245  0.2152 -0.0687 -0.1687
17048OCT     C234096  13.993  18.424  23.118 -0.0405  0.3605  0.0654
17049OCT     C134097   6.105   0.421  12.605  0.0068 -0.0315 -0.0200
17049OCT     C234098   6.121   0.844  12.402  0.1414 -0.2547  0.2868
17050OCT     C134099  21.398  23.369   9.021 -0.1641 -0.1142 -0.1397
17050OCT     C234100  21.380  23.167   8.665 -0.3560  0.1939 -0.0334
17051OCT     C134101   2.675   5.665  21.415 -0.0098  0.1107  0.2407
17051OCT     C234102   2.437   5.960  21.145 -0.2654 -0.2517 -0.4447
17052OCT     C134103   4.851   3.630   6.260  0.4076  0.2582 -0.0483
17052OCT     C234104   4.807   3.875   6.620  0.2266 -0.0392 -0.0316
17053OCT     C134105  11.369  18.971  19.383 -0.0197  0.3325 -0.0442
17053OCT     C234106  11.646  19.295  19.201  0.1634 -0.1879  0.1007
17054OCT     C134107   3.751  13.300   8.192 -0.1444  0.1147  0.0612
17054OCT     C234108   4.096  13.047   8.041 -0.0994 -0.3563 -0.3936
17055OCT     C134109  19.503   6.256  22.095  0.1196 -0.2858  0.1229
17055OCT     C234110  19.084   6.452  21.885  0.3090 -0.5426  0.0367
17056OCT     C134111  12.124   4.940   5.338 -0.1664  0.1887 -0.1770
17056OCT     C234112  11.803   5.254   5.457 -0.1665  0.1608 -0.1564
17057OCT     C134113  16.732  18.519  18.389  0.1037 -0.1431 -0.2541
17057OCT     C234114  16.537  18.957  18.404  0.2134 -0.0377 -0.1890
17058OCT     C134115   8.086  12.419   6.209 -0.2287  0.0095 -0.4960
17058OCT     C234116   8.580  12.406   6.274  0.1269 -0.0162 -0.1241
17059OCT     C134117   4.201  20.499   2.614 -0.1213 -0.1409 -0.1444
17059OCT     C234118   4.389  20.321   2.298  0.0611  0.0644  0.2814
17060OCT     C134119   2.796  22.874  15.897  0.0918  0.1720 -0.2583
17060OCT     C234120   2.365  22.780  15.742  0.2158 -0.0085  0.1874
17061OCT     C134121  20.841  15.637  13.306  0.2822 -0.1399 -0.0528
17061OCT     C234122  20.553  15.885  12.993 -0.0744  0.4684  0.1473
17062OCT     C134123   3.988  15.166  14.793  0.0962  0.3468 -0.0514
17062OCT     C234124   4.395  15.235  15.089  0.0952  0.2580  0.1251
17063OCT     C134125   3.723  11.670  11.724 -0.5932 -0.3244  0.0595
17063OCT     C234126   3.529  11.256  11.619 -0.0146 -0.0796 -0.1181
17064OCT     C134127   6.021   8.154   0.391  0.0588  0.1573 -0.0312
17064OCT     C234128   5.709   8.088   0.033  0.1048 -0.0662 -0.0385
17065OCT     C134129   8.818  14.518  21.522 -0.1516  0.2106 -0.1990
17065OCT     C234130   9.016  14.931  21.458 -0.1139 -0.0626 -0.1865
17066OCT     C134131   0.097  15.783  18.706  0.1855 -0.1761 -0.2199
17066OCT     C234132  23.725  15.979  18.295  0.1340  0.1829  0.1991
17067OCT     C134133  13.721  21.450   4.714 -0.1257 -0.2309 -0.1149
17067OCT     C234134  13.470  21.669   5.024 -0.1656  0.0641 -0.1304
17068OCT     C134135  22.687   4.024  15.974 -0.4625  0.2388  0.0939
17068OCT     C234136  22.669   4.225  15.569  0.2897 -0.1172  0.0260
17069OCT     C134137  22.911   8.767   0.858 -0.0994  0.1588 -0.2289
17069OCT     C234138  23.323   8.888   1.011 -0.0574  0.1444  0.0032
17070OCT     C134139  17.777   9.563  12.752  0.2151  0.2468 -0.5235
17070OCT     C234140  17.850   9.964  12.590  0.0723  0.3563  0.3560
17071OCT     C134141  11.077  20.609  19.560  0.1462 -0.2505 -0.0242
17071OCT     C234142  10.595  20.531  19.584  0.1559  0.0559 -0.0829
17072OCT     C134143  17.018  18.316  13.426  0.0175  0.4529 -0.3723
17072OCT     C234144  16.765  18.281  13.829  0.0495  0.2772  0.2585
17073OCT     C134145   4.491  19.444  11.054  0.1697  0.0260 -0.1537
17073OCT     C234146   4.912  19.428  10.899 -0.1635  0.1072  0.0923
17074OCT     C134147  18.876   0.146  10.823 -0.3236 -0.1201  0.0876
17074OCT     C234148  18.668   0.043  10.409  0.3921  0.1078 -0.1049
17075OCT     C134149  19.481   8.561   1.984 -0.0768  0.1623 -0.2564
17075OCT     C234150  19.509   8.937   1.662  0.1337 -0.1647 -0.1415
17076OCT     C134151  20.975   5.353   5.443 -0.2246  0.2417 -0.0026
17076OCT     C234152  21.433   5.284   5.290  0.1467  0.1459 -0.0950
17077OCT     C134153   5.026  11.496  12.842 -0.0418  0.2839  0.0530
17077OCT     C234154   5.422  11.305  12.847 -0.0053  0.0330 -0.0567
17078OCT     C134155  14.146   7.158  21.685 -0.1109 -0.2790  0.0747
17078OCT     C234156  13.722   6.962  21.682  0.0865 -0.1205  0.4201
17079OCT     C134157   2.167  17.907   1.145  0.2139 -0.0560 -0.0119
17079OCT     C234158   1.862  17.591   0.867 -0.2258 -0.0247  0.0269
17080OCT     C134159   9.390  10.272  16.658 -0.2211  0.2072 -0.0900
17080OCT     C234160   9.008  10.043  16.856 -0.0036 -0.2603 -0.1935
17081OCT     C134161   7.821  15.896  20.896 -0.1697  0.0139 -0.0690
17081OCT     C234162   7.459  15.686  20.683  0.0809 -0.2898  0.2708
17082OCT     C134163   3.005  23.022  23.480  0.2002 -0.0061 -0.1222
17082OCT     C234164   2.964  23.469  23.679 -0.3381 -0.1504  0.3280
17083OCT     C134165   6.479  21.256   2.418 -0.0622  0.1883 -0.1451
17083OCT     C234166   6.083  21.459   2.569  0.1629  0.0036  0.2648
17084OCT     C134167  23.545   6.129   5.896 -0.2325 -0.1478 -0.1497
17084OCT     C234168   0.037   6.147   6.317  0.1296 -0.0828 -0.0053
17085OCT     C134169  17.393  14.362   7.568  0.1099  0.0464 -0.0262
17085OCT     C234170  17.206  14.309   7.966  0.1538  0.0818 -0.1479
17086OCT     C134171  12.509  22.271  18.776 -0.1487 -0.0037 -0.0682
17086OCT     C234172  12.346  21.802  18.913 -0.4690 -0.0400 -0.3967
17087OCT     C134173  18.545   3.491  18.271 -0.1961  0.3938 -0.1199
17087OCT     C234174  18.746   3.035  18.199 -0.1843 -0.0708 -0.1360
17088OCT     C134175  20.661  13.787   3.078 -0.0441  0.1141 -0.0444
17088OCT     C234176  20.909  14.118   3.280  0.0641 -0.0674 -0.0904
17089OCT     C134177  19.437   6.506  15.087 -0.0916 -0.0178 -0.0496
17089OCT     C234178  19.012   6.690  15.060 -0.1954  0.5580  0.1442
17090OCT     C134179  19.969   8.219  15.249  0.3642 -0.0094 -0.4743
17090OCT     C234180  19.936   8.455  15.702 -0.0667 -0.0274 -0.0574
17091OCT     C134181  23.431  10.067  18.909  0.0589  0.0620  0.1724
17091OCT     C234182  23.183   9.786  18.557  0.3529 -0.0218 -0.1518
17092OCT     C134183   3.172  17.201   7.784 -0.2965 -0.1441  0.0906
17092OCT     C234184   3.084  17.419   8.237 -0.3255 -0.0300 -0.0055
17093OCT     C134185   5.121   9.772  17.835 -0.3443  0.2650  0.4242
17093OCT     C234186   5.362  10.091  17.551 -0.3592  0.2892 -0.2344
17094OCT     C134187  15.919   9.569  14.005 -0.1419 -0.1034  0.0423
17094OCT     C234188  16.022  10.028  14.201  0.2319  0.1105  0.3050
17095OCT     C134189   4.126  19.200  20.793  0.1106 -0.1541 -0.1666
17095OCT     C234190   3.684  19.307  20.694  0.2391  0.0439  0.0553
17096OCT     C134191  19.805  20.561  15.023 -0.1910 -0.2317 -0.3685
17096OCT     C234192  19.863  20.906  14.735  0.3699 -0.0142  0.1790
17097OCT     C134193  14.532   6.438   0.203 -0.1056 -0.2978 -0.0794
17097OCT     C234194  14.908   6.689   0.285  0.0246  0.0006 -0.0479
17098OCT     C134195  12.482  20.481  23.595 -0.0170  0.0346  0.1201
17098OCT     C234196  12.310  20.423  23.175  0.0158 -0.0334 -0.1552
17099OCT     C134197  19.376  10.427   8.330 -0.2101  0.0856  0.0360
17099OCT     C234198  19.661  10.700   8.594 -0.5774  0.0440 -0.1171
17100OCT     C134199  23.538  13.079   8.426 -0.3620 -0.2318  0.3440
17100OCT     C234200  23.436  12.781   8.792 -0.0346  0.0846 -0.0335
17101OCT     C134201  14.390   0.336   0.344 -0.0447 -0.1845 -0.0146
17101OCT     C234202  14.330   0.740   0.128  0.0560 -0.2091 -0.3433
17102OCT     C134203  12.449   1.504   7.216  0.3720 -0.3124 -0.0373
17102OCT     C234204  12.667   1.118   7.374 -0.2196 -0.4185 -0.3137
17103OCT     C134205  19.038  16.156  16.381 -0.2464  0.2517  0.0757
17103OCT     C234206  19.545  15.976  16.254 -0.0160  0.2903  0.0022
17104OCT     C134207  21.095  19.931   2.325 -0.0873 -0.4828 -0.0017
17104OCT     C234208  21.189  20.373   2.146  0.1873  0.0397 -0.1986
17105OCT     C134209   6.547  23.423  23.212 -0.1073 -0.0895 -0.0685
17105OCT     C234210   6.950  23.400  23.003 -0.0659 -0.0722 -0.0883
17106OCT     C134211   4.924   0.342   5.987 -0.1540  0.0369  0.1294
17106OCT     C234212   4.529   0.498   6.267 -0.1547  0.1729 -0.0742
17107OCT     C134213  22.289   8.421   2.088  0.3708 -0.2033 -0.0464
17107OCT     C234214  22.702   8.318   2.034  0.1175  0.1086 -0.2823
17108OCT     C134215   3.826   5.751   0.396 -0.3222  0.3430  0.0293
17108OCT     C234216   4.204   5.474   0.519 -0.1142  0.0733  0.3577
17109OCT     C134217   8.727   2.231  20.825  0.1953  0.0396  0.1764
17109OCT     C234218   8.293   2.374  20.657 -0.0233  0.1281 -0.3907
17110OCT     C134219  20.867  10.697  23.362  0.2834 -0.1907  0.2409
17110OCT     C234220  20.977  10.561  22.899 -0.1205  0.1455  0.4536
17111OCT     C134221  18.481   1.008   3.833  0.2754 -0.0276 -0.5926
17111OCT     C234222  18.159   1.022   3.499  0.1962 -0.0764 -0.0292
17112OCT     C134223   4.795  12.800  16.151 -0.0739 -0.0134  0.2081
17112OCT     C234224   4.966  12.951  16.566 -0.2631  0.3338 -0.0475
17113OCT     C134225   7.780  16.804   0.559 -0.2338  0.1288 -0.2386
17113OCT     C234226   7.409  17.030   0.435  0.4740  0.2707 -0.2015
17114OCT     C134227  18.723   2.240  15.275  0.7620  0.1807  0.4057
17114OCT     C234228  19.166   2.374  15.268  0.5661  0.0209 -0.0269
17115OCT     C134229   6.447  23.054   0.620  0.0641  0.1257  0.1085
17115OCT     C234230   6.809  22.757   0.665  0.0981 -0.1683 -0.0115
17116OCT     C134231  20.326  14.144   2.216 -0.0344 -0.0313 -0.1151
17116OCT     C234232  20.166  14.570   2.111 -0.3094  0.1151 -0.0804
17117OCT     C134233  23.416  13.421   1.629  0.2783 -0.2075 -0.1860
17117OCT     C234234  23.463  12.965   1.710  0.2797 -0.3411  0.2626
17118OCT     C134235  15.891  15.826  21.083  0.0716 -0.0022  0.0185
17118OCT     C234236  16.224  15.556  21.218 -0.3468 -0.0354  0.1894
17119OCT     C134237   9.279  14.233  10.608 -0.0558  0.7257  0.1727
17119OCT     C234238   8.917  14.483  10.695 -0.0008 -0.0604 -0.0494
17120OCT     C134239  17.834   5.204  11.628 -0.0104 -0.0232  0.0902
17120OCT     C234240  17.958   4.762  11.815  0.1514  0.5998 -0.0204
17121OCT     C134241  11.037   8.051   7.484  0.0435 -0.0186 -0.3412
17121OCT     C234242  11.439   7.819   7.411 -0.1121  0.2080  0.1001
17122OCT     C134243  18.762   1.257   7.249 -0.0627  0.2273  0.0989
17122OCT     C234244  18.907   1.459   7.677 -0.0001  0.3263  0.1984
17123OCT     C134245  11.248  11.460   8.885  0.3204  0.0001 -0.1492
17123OCT     C234246  11.552  11.399   9.252 -0.1181 -0.0537  0.1001
17124OCT     C134247   1.173  16.200  19.101 -0.1447  0.0825  0.2686
17124OCT     C234248   0.765  16.337  19.324  0.1141  0.3524 -0.2382
17125OCT     C134249   3.408   3.124  21.080  0.1369  0.1397  0.2790
17125OCT     C234250   3.556   2.694  20.965  0.1359 -0.0570 -0.1895
17126OCT     C134251   8.587  20.933   7.681 -0.2905  0.0585 -0.1504
17126OCT     C234252   8.950  20.745   7.825 -0.0381  0.2722 -0.0103
17127OCT     C134253  19.644   7.129  15.797  0.0469  0.4488  0.0141
17127OCT     C234254  19.978   6.885  16.040  0.0587  0.1137 -0.0635
17128OCT     C134255  22.973   1.158   1.270 -0.0432  0.1737  0.0777
17128OCT     C234256  22.502   1.127   1.181  0.1610 -0.4869 -0.3350
17129OCT     C134257  18.802  17.875  14.900  0.1731 -0.0876  0.2680
17129OCT     C234258  19.122  17.548  14.893 -0.0916  0.4301 -0.1116
17130OCT     C134259  10.358   6.507   2.741 -0.0543 -0.1173  0.0466
17130OCT     C234260  10.174   6.279   3.107 -0.1225  0.0322 -0.2071
17131OCT     C134261  15.693  15.177  14.574 -0.2072  0.0674  0.0274
17131OCT     C234262  15.886  15.339  14.959 -0.0302 -0.0625  0.1224
17132OCT     C134263  22.220  13.421   2.551 -0.1357 -0.0675 -0.3564
17132OCT     C234264  22.179  13.611   3.008  0.2151  0.0040  0.3160
17133OCT     C134265   1.615  12.953  18.009 -0.0802 -0.1793  0.0511
17133OCT     C234266   1.446  12.977  17.535 -0.0421 -0.4283  0.1445
17134OCT     C134267   8.898  11.817   6.356  0.2586 -0.1601 -0.0990
17134OCT     C234268   8.588  11.530   6.512  0.4276  0.2327 -0.1694
17135OCT     C134269   4.845   8.129  15.482 -0.0006 -0.0808 -0.0844
17135OCT     C234270   4.928   8.615  15.690  0.2201  0.0390 -0.2827
17136OCT     C134271   3.385   0.736   7.895  0.1621  0.2958  0.1235
17136OCT     C234272   3.512   0.470   7.513  0.0636 -0.0714  0.0090
17137OCT     C134273   1.925  22.118  18.673  0.0671  0.0643  0.2087
17137OCT     C234274   1.517  22.332  18.733 -0.0813  0.0753 -0.1708
17138OCT     C134275  11.437   2.570   7.379 -0.0448 -0.2465  0.1003
17138OCT     C234276  11.604   2.240   7.693  0.1003  0.0031  0.0604
17139OCT     C134277  14.946   1.541   0.550 -0.1342  0.3233 -0.1732
17139OCT     C234278  15.138   1.648   0.958 -0.3423 -0.1901 -0.3154
17140OCT     C134279   4.473  19.222   8.430 -0.1769  0.0296  0.3982
17140OCT     C234280   4.407  18.897   8.079 -0.2120 -0.2614 -0.1524
17141OCT     C134281  16.639   3.350  17.571  0.0423  0.1790  0.0891
17141OCT     C234282  17.056   3.559  17.636 -0.1212  0.3761 -0.1100
17142OCT     C134283   6.293   3.041  15.715 -0.1836 -0.1905  0.2830
17142OCT     C234284   6.404   2.575  15.633 -0.1631 -0.1827 -0.0070
17143OCT     C134285   7.017  16.306  17.834 -0.0098 -0.1624 -0.1727
17143OCT     C234286   6.604  16.285  17.617 -0.1424 -0.0151  0.2900
17144OCT     C134287  12.906   0.664   3.490 -0.1848 -0.4585 -0.0433
17144OCT     C234288  12.470   0.505   3.552 -0.2533 -0.3139 -0.1376
17145OCT     C134289  16.454  17.258  11.074 -0.1751  0.1960 -0.1400
17145OCT     C234290  16.658  17.628  11.211 -0.1671 -0.2459  0.0128
17146OCT     C134291   4.969  11.207   9.493 -0.1443 -0.0158 -0.4638
17146OCT     C234292   4.951  10.838   9.255  0.2801 -0.0807 -0.1039
17147OCT     C134293   6.444  16.551  20.264 -0.1134  0.4933  0.1224
17147OCT     C234294   6.153  16.340  20.569 -0.2069 -0.3876  0.1800
17148OCT     C134295  17.054   3.326  12.511 -0.0077 -0.5318 -0.2676
17148OCT     C234296  16.708   3.553  12.371  0.3751 -0.2337  0.1787
17149OCT     C134297  23.389   6.614  10.181 -0.1256 -0.4148 -0.0744
17149OCT     C234298  23.592   7.015  10.287 -0.1101 -0.0916  0.2992
17150OCT     C134299  13.241   7.899   2.494  0.0918  0.0952  0.2654
17150OCT     C234300  13.226   7.817   2.056 -0.1970  0.1920 -0.0842
17151OCT     C134301  21.001  14.613  11.558  0.0942 -0.2644  0.1339
17151OCT     C234302  21.351  14.795  11.259  0.2028  0.1000 -0.1154
17152OCT     C134303   7.830   3.477   6.541  0.3015 -0.1573 -0.1544
17152OCT     C234304   7.582   3.451   6.104  0.1469  0.0052 -0.0342
17153OCT     C134305  14.624   7.961  16.703 -0.0663 -0.1341  0.0460
17153OCT     C234306  14.865   7.877  17.085  0.0902  0.1230 -0.2272
17154OCT     C134307  18.490   9.368  22.296 -0.1956  0.0770  0.1178
17154OCT     C234308  18.643   9.759  22.125  0.6422  0.0403 -0.1848
17155OCT     C134309   6.180   0.172  18.945 -0.1820  0.3499  0.3688
17155OCT     C234310   6.224  23.562  19.231 -0.3310 -0.1442  0.1056
17156OCT     C134311   2.272  11.090  11.796  0.1126 -0.0398 -0.1928
17156OCT     C234312   2.100  11.560  11.898 -0.2133  0.2900 -0.1407
17157OCT     C134313  15.604   6.376   8.543  0.2814  0.0137 -0.3885
17157OCT     C234314  15.704   6.640   8.169  0.2229 -0.0641  0.5336
17158OCT     C134315   5.830  19.595  16.739 -0.1410 -0.0676 -0.0935
17158OCT     C234316   5.607  19.840  16.445  0.2306  0.0009 -0.0155
17159OCT     C134317  17.466   6.417   6.623  0.3456  0.1481 -0.0640
17159OCT     C234318  17.414   6.107   6.980 -0.0464 -0.1867  0.0245
17160OCT     C134319   0.745   6.319  13.916  0.1052 -0.3378 -0.3569
17160OCT     C234320   0.761   5.985  13.601  0.1900 -0.1705  0.3433
17161OCT     C134321   0.348   0.286   3.334 -0.1664 -0.1270  0.1792
17161OCT     C234322  23.610   0.243   3.282  0.1315  0.0123  0.1261
17162OCT     C134323  13.234  19.675   7.964 -0.0974  0.2522 -0.2682
17162OCT     C234324  13.351  20.016   8.302  0.2684 -0.3352 -0.0667
17163OCT     C134325  15.522  14.453   2.667  0.1027  0.2002  0.0338
17163OCT     C234326  15.184  14.470   2.305 -0.1241 -0.0210 -0.0509
17164OCT     C134327   7.589  18.127  22.002 -0.1512  0.2006  0.5439
17164OCT     C234328   7.767  18.135  22.447  0.0123  0.0108  0.1749
17165OCT     C134329   3.006   6.941  22.994 -0.3105  0.2364  0.2923
17165OCT     C234330   3.352   6.921  22.675  0.1145  0.2540  0.1248
17166OCT     C134331  14.846   8.218   9.086  0.2254  0.0107 -0.3458
17166OCT     C234332  15.194   8.518   8.931 -0.1087  0.1039 -0.2587
17167OCT     C134333  12.351   2.284  18.758 -0.0218 -0.2649  0.0499
17167OCT     C234334  11.875   2.349  18.647 -0.1200  0.0609 -0.0242
17168OCT     C134335  16.256  18.366   2.700 -0.2825 -0.4511  0.2788
17168OCT     C234336  16.340  18.737   2.409 -0.1062  0.2029  0.0876
17169OCT     C134337  12.360   7.002   9.200  0.0951 -0.1693  0.0924
17169OCT     C234338  11.989   7.027   8.944 -0.2000  0.0238  0.0134
17170OCT     C134339   1.845  17.134   4.428 -0.0715 -0.1391  0.2098
17170OCT     C234340   1.620  16.821   4.617 -0.2835 -0.0358  0.0212
17171OCT     C134341   3.444   7.192  14.127 -0.0275  0.3616 -0.1347
17171OCT     C234342   3.387   6.828  14.398  0.0331  0.1265 -0.4279
17172OCT     C134343  17.362   4.489   6.599  0.2301 -0.2780  0.1626
17172OCT     C234344  17.459   4.532   6.101 -0.0079  0.1129  0.0337
17173OCT     C134345   0.174  19.429   3.176 -0.2705 -0.2051 -0.2301
17173OCT     C234346   0.424  19.803   3.214  0.1597 -0.2483  0.0768
17174OCT     C134347   0.414  13.809   2.314 -0.0175 -0.1782 -0.1647
17174OCT     C234348   0.652  14.242   2.298 -0.2392  0.1579 -0.0336
17175OCT     C134349  14.106   7.981   4.356 -0.1284 -0.2490 -0.0894
17175OCT     C234350  13.880   8.103   4.745  0.1367 -0.4193  0.1264
17176OCT     C134351  21.027   0.863  20.358 -0.2025 -0.2188 -0.0621
17176OCT     C234352  21.458   0.739  20.219 -0.1486 -0.1385  0.1545
17177OCT     C134353  17.672  12.272  14.672  0.0389 -0.1212 -0.1337
17177OCT     C234354  17.351  12.138  14.944  0.0724 -0.1535 -0.1798
17178OCT     C134355  21.096   5.106   4.868 -0.0061  0.0350 -0.0827
17178OCT     C234356  21.030   4.792   5.221  0.1331 -0.3063  0.1728
17179OCT     C134357  16.889  14.452   0.821  0.1110 -0.1376  0.0480
17179OCT     C234358  16.722  14.067   0.617  0.3606 -0.1352  0.2261
17180OCT     C134359  15.142  19.230  18.670 -0.3518 -0.0801  0.0101
17180OCT     C234360  14.705  19.326  18.796  0.0597  0.0245  0.3418
17181OCT     C134361   3.981  17.688  11.856  0.2412 -0.1338 -0.1609
17181OCT     C234362   4.004  17.538  12.297 -0.0185 -0.1422 -0.2336
17182OCT     C134363   1.794   2.415  16.234 -0.0354  0.0252 -0.0818
17182OCT     C234364   1.852   2.303  16.664  0.1335  0.4185  0.1071
17183OCT     C134365  16.455   5.733   9.637  0.1622  0.1297  0.4344
17183OCT     C234366  16.856   5.506   9.696 -0.1684  0.3269 -0.2489
17184OCT     C134367   4.144  23.248  12.360  0.1066  0.0933  0.2088
17184OCT     C234368   4.111  23.102  12.822 -0.3917  0.0627 -0.1807
17185OCT     C134369  15.304  13.864  19.109  0.1196  0.1033 -0.1602
17185OCT     C234370  15.727  13.778  19.207  0.0080  0.1105  0.1852
17186OCT     C134371   8.397  23.407  18.968  0.2738 -0.0216  0.3258
17186OCT     C234372   8.566   0.081  19.125 -0.0466 -0.1602 -0.2750
17187OCT     C134373   7.631  14.747   8.306 -0.0753 -0.2030  0.1576
17187OCT     C234374   7.563  14.830   8.746 -0.1427 -0.4335 -0.1097
17188OCT     C134375   2.007   2.883  19.943 -0.0881  0.0773 -0.0706
17188OCT     C234376   1.746   2.687  19.558  0.3984 -0.1979  0.0126
17189OCT     C134377  15.524   1.733   8.634  0.1344 -0.0534  0.1293
17189OCT     C234378  15.209   1.389   8.551 -0.2035  0.0795 -0.1559
17190OCT     C134379   3.421   5.006  17.770  0.0593  0.0408  0.2114
17190OCT     C234380   3.605   5.007  17.329 -0.0427 -0.1210  0.2474
17191OCT     C134381   3.016   3.060   7.449 -0.2490  0.2197  0.0381
17191OCT     C234382   3.197   3.164   7.852  0.1106  0.2579 -0.0107
17192OCT     C134383   8.458   1.414   3.025  0.0017 -0.4236  0.1348
17192OCT     C234384   8.726   1.351   2.626  0.0673 -0.1308 -0.5175
17193OCT     C134385  10.164   6.953  19.905 -0.2635  0.2123 -0.2043
17193OCT     C234386  10.164   7.178  20.324 -0.0628 -0.1228 -0.3481
17194OCT     C134387  20.214  21.209  12.971 -0.0170 -0.1894  0.2366
17194OCT     C234388  19.923  21.032  13.274  0.2913 -0.1576 -0.3763
17195OCT     C134389   4.082  11.882   9.190 -0.0121 -0.1743 -0.0914
17195OCT     C234390   4.461  12.113   9.317 -0.1972  0.0235 -0.0581
17196OCT     C134391   3.585  11.718   8.717  0.1461 -0.1094  0.0458
17196OCT     C234392   3.613  12.051   9.064 -0.0151 -0.0637  0.1614
17197OCT     C134393   2.466  12.286  17.431 -0.0872  0.1867 -0.1064
17197OCT     C234394   2.647  12.098  16.985  0.1185  0.0732  0.1916
17198OCT     C134395  17.893   4.788   5.875  0.0775 -0.2413 -0.0596
17198OCT     C234396  17.840   5.270   5.868 -0.0627  0.3596 -0.0939
17199OCT     C134397  11.721   2.152  18.164 -0.0014  0.3174  0.1646
17199OCT     C234398  12.071   2.198  17.809  0.2419  0.0164 -0.0732
17200OCT     C134399   9.039  19.152  12.322  0.0718 -0.0799  0.2273
17200OCT     C234400   8.808  18.775  12.270 -0.0721  0.2348  0.0948
17201OCT     C134401   8.921  22.986  16.672 -0.4840  0.0468  0.1627
17201OCT     C234402   8.814  23.042  17.125  0.0492 -0.0971  0.3141
17202OCT     C134403   4.687  12.021   1.060 -0.0011  0.0680  0.1577
17202OCT     C234404   4.937  12.112   1.470  0.1273 -0.4470 -0.0078
17203OCT     C134405  20.983  18.286  23.640 -0.5566  0.0293 -0.0945
17203OCT     C234406  20.927  18.138   0.385  0.1179 -0.1100  0.2022
17204OCT     C134407  10.986  15.352  20.707  0.2671 -0.0012  0.0718
17204OCT     C234408  11.219  15.638  20.995  0.1380  0.3030 -0.0202
17205OCT     C134409   3.284   0.105   4.861 -0.2724 -0.0342 -0.3586
17205OCT     C234410   3.254   0.514   4.621 -0.0250 -0.0664  0.5179
17206OCT     C134411  13.086  19.151  11.930 -0.3727  0.0707 -0.1229
17206OCT     C234412  13.005  18.990  11.481  0.1469 -0.1388 -0.3005
17207OCT     C134413   8.674  12.636   2.690  0.1950  0.2537  0.3018
17207OCT     C234414   8.829  12.580   2.180 -0.0078  0.2616 -0.1057
17208OCT     C134415   9.930  21.887  17.810  0.0369  0.0943 -0.1355
17208OCT     C234416   9.725  21.964  18.220  0.2168  0.1134 -0.0905
17209OCT     C134417  20.714   6.068  18.501  0.1358  0.4068 -0.0350
17209OCT     C234418  20.555   5.929  18.912  0.0309  0.0395  0.2528
17210OCT     C134419  13.187  11.482  21.149 -0.0047 -0.0434 -0.3074
17210OCT     C234420  13.432  11.834  21.239  0.2319 -0.2246  0.1628
17211OCT     C134421   5.648   7.053   3.271 -0.3862 -0.0735  0.0959
17211OCT     C234422   5.674   6.710   2.922 -0.1843 -0.2705 -0.2213
17212OCT     C134423   4.740  15.138   6.213  0.0845  0.0768 -0.4371
17212OCT     C234424   4.413  15.401   6.442 -0.0803 -0.2527 -0.0909
17213OCT     C134425  16.481   7.456  13.842 -0.0480  0.2538  0.4246
17213OCT     C234426  16.730   7.769  13.543 -0.1827  0.2633 -0.2414
17214OCT     C134427  22.564  21.252   7.828 -0.2439  0.0829  0.0390
17214OCT     C234428  22.931  21.024   7.969  0.1198 -0.2280  0.5626
17215OCT     C134429   1.555  20.615  13.196 -0.0076 -0.0970  0.2989
17215OCT     C234430   1.229  20.472  13.508  0.4588 -0.2871 -0.1591
17216OCT     C134431  13.613  12.812  16.553  0.0662  0.1626  0.0015
17216OCT     C234432  13.975  12.935  16.311  0.2112 -0.1720 -0.0069
17217OCT     C134433  23.079   9.733  15.847 -0.0663 -0.0966 -0.1581
17217OCT     C234434  23.564   9.875  16.006 -0.0255 -0.2161 -0.0233
17218OCT     C134435  22.313  16.160  13.249 -0.2147 -0.2043  0.0234
17218OCT     C234436  22.110  15.945  12.915 -0.1375  0.2760 -0.1401
17219OCT     C134437   2.119  12.941  16.368  0.0937 -0.0819 -0.1849
17219OCT     C234438   2.099  12.672  16.757 -0.4023  0.1255  0.1577
17220OCT     C134439  14.534  16.520   7.178 -0.4388  0.1136  0.1256
17220OCT     C234440  14.784  16.089   7.251  0.2307  0.2796  0.1591
17221OCT     C134441   7.246  14.390   5.140  0.3054  0.0352  0.1094
17221OCT     C234442   7.421  13.979   5.036  0.2252 -0.1493 -0.1400
17222OCT     C134443  19.122  12.277  15.726  0.3564  0.0640  0.0160
17222OCT     C234444  19.070  12.028  15.330 -0.1355 -0.1071 -0.0133
17223OCT     C134445   1.939  11.970  16.065 -0.1205  0.5446  0.0282
17223OCT     C234446   1.542  12.212  15.902 -0.1459 -0.2241  0.2135
17224OCT     C134447  17.397   0.018  19.194  0.3767 -0.2533 -0.0640
17224OCT     C234448  17.722   0.369  19.235  0.1944  0.0350 -0.1996
17225OCT     C134449  14.625  21.224  20.156  0.2312 -0.2488  0.3595
17225OCT     C234450  14.682  20.808  20.006  0.1463  0.2053 -0.1993
17226OCT     C134451   3.068  23.107  10.239  0.0079  0.1577  0.2500
17226OCT     C234452   2.712  22.912   9.981  0.0254  0.0194  0.2888
17227OCT     C134453   4.490   5.159   7.732 -0.0591 -0.3292  0.1222
17227OCT     C234454   4.921   5.416   7.782 -0.1498  0.0507 -0.2563
17228OCT     C134455  18.552  21.101   1.665  0.1072  0.2398  0.0130
17228OCT     C234456  18.371  20.808   1.969  0.1978 -0.3458 -0.0715
17229OCT     C134457   9.372   5.923   5.058 -0.2367 -0.1824 -0.1653
17229OCT     C234458   9.361   6.168   4.635 -0.1943  0.2046 -0.2170
17230OCT     C134459  16.985  15.549  12.895  0.0570  0.3018 -0.0249
17230OCT     C234460  16.675  15.629  13.246  0.1352  0.1275 -0.2216
17231OCT     C134461   7.590   6.447  18.351 -0.1433  0.1486  0.2138
17231OCT     C234462   7.179   6.338  18.530  0.4388 -0.0654 -0.1338
17232OCT     C134463   1.464  19.142  18.839 -0.0579 -0.0266  0.0727
17232OCT     C234464   1.729  19.418  18.675  0.2725 -0.3551 -0.2897
17233OCT     C134465  20.180   4.961   9.600 -0.1647  0.0841 -0.1938
17233OCT     C234466  20.296   4.777  10.046  0.2844 -0.0987 -0.0883
17234OCT     C134467  10.705  11.108  20.806  0.2896  0.1804 -0.1437
17234OCT     C234468  10.627  11.420  20.569  0.0297 -0.0140  0.2620
17235OCT     C134469   4.576  19.725   5.603 -0.2513  0.0485  0.0289
17235OCT     C234470   4.851  19.563   5.965  0.3046  0.2436 -0.0847
17236OCT     C134471  12.793  16.741   2.436 -0.1069 -0.0185  0.0071
17236OCT     C234472  12.719  16.463   2.113 -0.1278 -0.3014  0.1121
17237OCT     C134473  22.203   3.044  17.424  0.3722  0.0807 -0.1495
17237OCT     C234474  22.229   2.666  17.600 -0.2641  0.0013  0.5304
17238OCT     C134475  16.799   5.854  17.983  0.0371 -0.1034  0.0328
17238OCT     C234476  16.788   6.171  18.333 -0.0143 -0.0372 -0.1356
17239OCT     C134477  12.829  12.976  18.834 -0.1540 -0.0167  0.3953
17239OCT     C234478  13.117  13.360  18.867  0.2072  0.1640  0.0425
17240OCT     C134479  12.844  16.302   3.281  0.0066 -0.0733  0.0094
17240OCT     C234480  13.109  16.621   3.099  0.3195 -0.3703  0.1377
17241OCT     C134481  20.601   3.952   2.452 -0.0690 -0.0630 -0.0071
17241OCT     C234482  20.759   3.541   2.565 -0.0409 -0.2807  0.0188
17242OCT     C134483   5.823  12.247  21.838 -0.0625 -0.3713  0.0395
17242OCT     C234484   5.946  12.256  22.272  0.0533 -0.0887 -0.1888
17243OCT     C134485   7.589  14.158   5.701  0.2541 -0.0416  0.1138
17243OCT     C234486   7.694  13.702   5.704 -0.0047 -0.0780 -0.0023
17244OCT     C134487  20.811  12.732  15.369 -0.2747  0.2805 -0.0233
17244OCT     C234488  20.342  12.537  15.254 -0.2988  0.0440 -0.1055
17245OCT     C134489   4.155   4.069  11.517  0.0143 -0.1188  0.0607
17245OCT     C234490   4.550   4.294  11.585  0.0038  0.1995  0.0117
17246OCT     C134491   7.697  23.412  17.502 -0.1530  0.0762 -0.2578
17246OCT     C234492   8.015  23.112  17.362 -0.0111 -0.5288 -0.0380
17247OCT     C134493  16.425  22.534  11.778 -0.1915  0.3033  0.1155
17247OCT     C234494  16.512  22.133  11.608  0.1777  0.2086  0.0692
17248OCT     C134495  22.424  12.244  22.895 -0.3805 -0.1130  0.0157
17248OCT     C234496  22.043  12.488  22.770  0.0736  0.2383  0.2877
17249OCT     C134497   5.506   3.431  10.859 -0.1214 -0.0735 -0.0946
17249OCT     C234498   5.536   3.025  10.533  0.3024 -0.0590  0.1970
17250OCT     C134499  21.186  15.141  16.216  0.1386  0.0390 -0.0295
17250OCT     C234500  21.572  15.031  15.910 -0.1884 -0.0312 -0.1912
17251OCT     C134501   6.303  17.446   1.808 -0.0731 -0.2347  0.1621
17251OCT     C234502   6.035  17.414   2.225 -0.3274 -0.4148 -0.3454
17252OCT     C134503   4.450   2.555  12.721 -0.1323 -0.4108  0.1245
17252OCT     C234504   4.591   2.387  13.134  0.3950 -0.0514 -0.1965
17253OCT     C134505   6.429  10.716   9.067 -0.0146  0.1872 -0.2014
17253OCT     C234506   6.270  10.308   9.030 -0.3978  0.0592 -0.2723
17254OCT     C134507  18.738  19.261   7.407  0.0896  0.2169 -0.0231
17254OCT     C234508  19.131  18.956   7.471 -0.0199 -0.1436 -0.1258
17255OCT     C134509   6.128  22.905   9.625 -0.0629  0.0139  0.2404
17255OCT     C234510   6.558  22.715   9.678 -0.1752  0.0005 -0.0024
17256OCT     C134511  12.550  20.075   4.898  0.0305  0.1126  0.2093
17256OCT     C234512  12.958  20.330   4.812  0.2034 -0.0077 -0.2117
17257OCT     C134513   8.674  12.877  11.923  0.1723 -0.3136 -0.2561
17257OCT     C234514   8.901  12.710  12.288 -0.0809  0.0414  0.2686
17258OCT     C134515  21.526   3.144   0.197  0.0203 -0.0157  0.0633
17258OCT     C234516  21.872   3.122   0.513  0.0390 -0.2199 -0.1944
17259OCT     C134517   6.547  22.100   0.107  0.0733 -0.0371  0.2730
17259OCT     C234518   6.364  22.477   0.225 -0.1052  0.2623 -0.0396
17260OCT     C134519  21.290  10.310   7.517 -0.0261 -0.2632  0.0414
17260OCT     C234520  20.905  10.431   7.267 -0.0810  0.2331  0.2997
17261OCT     C134521  18.307   6.817   2.819  0.1295  0.2021 -0.0484
17261OCT     C234522  18.261   6.373   2.741 -0.2530  0.1431 -0.2033
17262OCT     C134523  17.571  22.505   7.470 -0.2486 -0.2617 -0.2657
17262OCT     C234524  17.799  22.632   7.901  0.3361  0.0291  0.0481
17263OCT     C134525   9.477  17.339   8.756  0.0537  0.2568 -0.2903
17263OCT     C234526   8.993  17.271   8.715  0.1945 -0.1538 -0.0987
17264OCT     C134527   1.382  10.745   0.347 -0.2281  0.2584  0.0384
17264OCT     C234528   1.778  11.007   0.434  0.0683  0.2490 -0.0513
17265OCT     C134529  16.182   1.386   1.633  0.3698 -0.2161  0.1966
17265OCT     C234530  16.072   1.538   1.204  0.2321  0.1016  0.0047
17266OCT     C134531  19.276   9.207   4.761  0.1642 -0.0845 -0.1054
17266OCT     C234532  19.475   9.283   4.366 -0.1695  0.2132 -0.0077
17267OCT     C134533   0.033  11.574  18.523 -0.2486  0.0085  0.0996
17267OCT     C234534   0.004  11.641  18.031  0.1980 -0.1043  0.2161
17268OCT     C134535   8.566  10.511   6.835 -0.3690 -0.1246  0.0667
17268OCT     C234536   8.855  10.885   6.827  0.1546  0.0825  0.4305
17269OCT     C134537  15.955   2.812  11.127  0.4435  0.0126  0.2261
17269OCT     C234538  16.333   3.033  11.337  0.4887 -0.0906  0.1302
17270OCT     C134539  11.711  23.666  15.620  0.0158 -0.0407  0.2204
17270OCT     C234540  12.117   0.134  15.524 -0.0445 -0.0125  0.2416
17271OCT     C134541  11.952  13.844  22.016 -0.3377  0.0412  0.1383
17271OCT     C234542  11.742  13.678  21.637 -0.0522  0.2529 -0.2119
17272OCT     C134543  12.533  10.952  19.420 -0.2844 -0.1737 -0.2430
17272OCT     C234544  12.775  11.169  19.064  0.0400 -0.0350 -0.0821
17273OCT     C134545  17.540   8.607  10.493 -0.1895  0.3118  0.3381
17273OCT     C234546  17.539   8.123  10.551 -0.1926  0.0312  0.1489
17274OCT     C134547   8.256   1.324   7.791 -0.0971 -0.1097 -0.2298
17274OCT     C234548   8.662   1.276   7.545 -0.1460 -0.0801 -0.2192
17275OCT     C134549   8.273  11.693  22.563 -0.0968  0.1694 -0.0245
17275OCT     C234550   8.249  12.052  22.884 -0.2010  0.0766 -0.3430
17276OCT     C134551   5.472  15.276   3.033  0.0605  0.0396  0.0401
17276OCT     C234552   5.529  15.752   3.023 -0.2822  0.3043  0.0712
17277OCT     C134553  20.815   1.070  12.916 -0.1092  0.3785  0.2689
17277OCT     C234554  20.415   1.073  12.664  0.0568 -0.0463 -0.3640
17278OCT     C134555   7.182   5.690  22.008  0.1541  0.3210 -0.2532
17278OCT     C234556   6.967   5.977  22.320  0.1514  0.2414 -0.0247
17279OCT     C134557   0.841  15.352  14.576  0.0914 -0.1979 -0.1039
17279OCT     C234558   0.754  15.756  14.714  0.2586 -0.2392 -0.3387
17280OCT     C134559  16.867  17.765  17.340  0.4133  0.0593  0.2823
17280OCT     C234560  17.065  17.400  17.171  0.0624  0.3800 -0.4774
17281OCT     C134561  22.444   9.597   3.358 -0.1008 -0.2018 -0.0048
17281OCT     C234562  22.039   9.736   3.510 -0.1573 -0.1857 -0.1617
17282OCT     C134563  17.520   1.244  18.201  0.1168  0.1646  0.0067
17282OCT     C234564  17.772   1.584  18.367  0.1499  0.0707 -0.0567
17283OCT     C134565  21.473   2.868   6.373  0.1666 -0.2386 -0.0233
17283OCT     C234566  21.838   2.599   6.434  0.2721 -0.3603  0.2220
17284OCT     C134567  10.331   7.996   7.191 -0.1083 -0.2101  0.1912
17284OCT     C234568  10.722   8.299   7.176 -0.1086  0.1752 -0.2046
17285OCT     C134569  12.939   2.063  22.267  0.0655  0.0118  0.2057
17285OCT     C234570  12.537   2.349  22.162 -0.2501  0.3445  0.0349
17286OCT     C134571  15.923  10.879  17.135  0.1393 -0.0204 -0.0794
17286OCT     C234572  15.590  10.916  17.441  0.1885  0.0072 -0.2235
17287OCT     C134573  21.819   2.607   3.707  0.3309 -0.2991 -0.0373
17287OCT     C234574  21.332   2.682   3.912  0.1829 -0.0806 -0.2841
17288OCT     C134575   8.672  11.834  16.587  0.0176  0.0438  0.0181
17288OCT     C234576   9.041  11.999  16.364  0.0327 -0.1040 -0.0175
17289OCT     C134577  12.939   7.457   5.934 -0.1449 -0.1708 -0.1674
17289OCT     C234578  12.814   7.035   5.693  0.1279 -0.2496  0.4623
17290OCT     C134579  13.155   5.778  18.954 -0.0152  0.1464  0.4693
17290OCT     C234580  12.733   5.978  19.153 -0.3286 -0.1172 -0.1644
17291OCT     C134581  11.054  20.438   8.533  0.2824 -0.0275  0.1324
17291OCT     C234582  11.524  20.435   8.801  0.0083 -0.3370  0.1360
17292OCT     C134583   4.258   9.958   1.203 -0.3680 -0.0634 -0.3661
17292OCT     C234584   4.614  10.291   1.254 -0.0332  0.3728 -0.2769
17293OCT     C134585  15.018   2.061   0.556  0.1972 -0.0975 -0.0038
17293OCT     C234586  15.034   1.865   0.128 -0.0162  0.0410  0.0159
17294OCT     C134587  16.855  17.975   5.749  0.0543 -0.1759  0.4233
17294OCT     C234588  16.893  18.335   6.068  0.0535  0.2866 -0.0627
17295OCT     C134589  19.056  23.001  23.285  0.4982  0.0434  0.2929
17295OCT     C234590  18.928  22.550  23.404  0.1344  0.0275  0.2624
17296OCT     C134591  23.078   5.078   7.568  0.0902  0.0684  0.0509
17296OCT     C234592  23.109   4.720   7.285 -0.0713 -0.3797  0.0480
17297OCT     C134593   1.035   4.120   5.143  0.1069  0.0374  0.0192
17297OCT     C234594   1.364   4.159   5.444  0.0661  0.1966 -0.0485
17298OCT     C134595  20.171   4.891  19.711 -0.0639 -0.1136  0.0802
17298OCT     C234596  20.405   5.118  20.042  0.0378 -0.3792 -0.5911
17299OCT     C134597  15.175  10.434   5.506  0.0168 -0.1983  0.1593
17299OCT     C234598  14.836  10.253   5.731 -0.1416  0.0349  0.1630
17300OCT     C134599   7.526   1.243   7.006  0.2737 -0.0100 -0.0394
17300OCT     C234600   7.333   1.036   7.397 -0.0715 -0.2190  0.0333
17301OCT     C134601  10.167  11.428   1.624  0.4321  0.1384 -0.6171
17301OCT     C234602   9.705  11.510   1.491  0.0403  0.0369  0.0122
17302OCT     C134603   6.019  16.618  19.405 -0.1959  0.3486  0.1599
17302OCT     C234604   6.059  16.556  19.869  0.2247  0.1600 -0.1888
17303OCT     C134605   5.143  17.112   6.015  0.0661 -0.1981  0.4359
17303OCT     C234606   5.092  17.002   5.587 -0.1529  0.0076  0.0725
17304OCT     C134607  21.460   1.454   3.865  0.1062 -0.1405 -0.0545
17304OCT     C234608  21.519   1.225   4.268 -0.0891  0.1975  0.0421
17305OCT     C134609  11.557  14.662   9.947  0.0508  0.1492  0.0990
17305OCT     C234610  11.219  14.328  10.031 -0.1066  0.0973 -0.0374
17306OCT     C134611  22.615   8.691   6.013 -0.2538 -0.0723  0.0401
17306OCT     C234612  23.077   8.914   5.953  0.2065  0.1888  0.0899
17307OCT     C134613   2.133  15.506  12.501 -0.1407  0.1143  0.0373
17307OCT     C234614   2.139  15.102  12.333 -0.1608  0.1607  0.0570
17308OCT     C134615  14.891   1.676  11.206 -0.0787 -0.2071  0.0798
17308OCT     C234616  14.691   2.059  11.323 -0.1212 -0.3777  0.0122
17309OCT     C134617  21.891  22.987   3.103  0.1442  0.0493  0.0760
17309OCT     C234618  21.563  22.669   3.218 -0.0456  0.3915  0.0727
17310OCT     C134619  20.160   4.557  22.611  0.1409  0.2858  0.0804
17310OCT     C234620  20.058   4.799  22.187  0.1104 -0.0303  0.3876
17311OCT     C134621   2.144   8.300  19.558 -0.1655 -0.0058 -0.0224
17311OCT     C234622   1.956   8.153  20.002  0.1147 -0.2097 -0.0975
17312OCT     C134623  15.519   8.037  16.321 -0.1063  0.1966  0.2133
17312OCT     C234624  15.538   7.601  16.200 -0.0980  0.0275  0.1280
17313OCT     C134625  13.987   4.927  10.954 -0.1934 -0.0634  0.0571
17313OCT     C234626  13.647   4.609  10.966  0.2060  0.1294 -0.0862
17314OCT     C134627   8.936  19.036   0.437 -0.1244 -0.0256 -0.0400
17314OCT     C234628   8.741  19.418   0.172 -0.0149 -0.0410 -0.0692
17315OCT     C134629  21.336   6.822   0.612  0.0673  0.1232  0.1133
17315OCT     C234630  21.055   7.176   0.658 -0.4455 -0.2690  0.3523
17316OCT     C134631  14.345   4.396  10.031 -0.0430  0.4607 -0.1795
17316OCT     C234632  14.438   4.233  10.415 -0.1299 -0.3064 -0.0340
17317OCT     C134633  20.350   4.975   7.688 -0.3685  0.1475  0.2980
17317OCT     C234634  20.557   4.933   7.259 -0.3462 -0.0041 -0.1252
17318OCT     C134635   0.833  10.511   0.282  0.0260 -0.0345  0.0776
17318OCT     C234636   0.612  10.194  23.734  0.0183  0.4414 -0.0993
17319OCT     C134637  12.723  12.197  13.848 -0.0769  0.2901  0.0960
17319OCT     C234638  12.627  12.602  14.117 -0.2367  0.1698  0.1883
17320OCT     C134639  11.056   3.741   8.712 -0.0799 -0.1137  0.0654
17320OCT     C234640  11.176   3.826   9.124  0.0470  0.0505 -0.4521
17321OCT     C134641  10.341   3.035  17.954  0.2053  0.1935 -0.0373
17321OCT     C234642  10.448   3.314  18.330 -0.2161 -0.1075 -0.1675
17322OCT     C134643  20.867  16.817  10.631 -0.3339 -0.1145  0.1881
17322OCT     C234644  21.145  17.215  10.497 -0.1064 -0.0851  0.1606
17323OCT     C134645  11.715   7.157  17.243 -0.0303  0.2894  0.1566
17323OCT     C234646  11.604   7.550  17.013  0.0745  0.2889 -0.1101
17324OCT     C134647   9.012  19.133  11.210 -0.0751 -0.0940 -0.1195
17324OCT     C234648   8.792  18.954  10.854 -0.3410 -0.3364  0.1097
17325OCT     C134649  23.735   8.714   9.032 -0.3314  0.0411  0.2335
17325OCT     C234650   0.228   8.432   8.742 -0.0094  0.3255 -0.1452
17326OCT     C134651   0.162   1.273  23.652  0.1436  0.0949 -0.1614
17326OCT     C234652   0.424   0.905  23.473 -0.1855  0.3369 -0.1410
17327OCT     C134653  20.746   4.655  14.169  0.3454  0.3086  0.6026
17327OCT     C234654  21.183   4.495  14.173  0.1888  0.0707  0.1427
17328OCT     C134655   6.754  21.301   8.888  0.2303 -0.1823 -0.1095
17328OCT     C234656   6.768  20.896   8.677 -0.1194 -0.1363 -0.0131
17329OCT     C134657  18.216  14.412   7.265  0.1056  0.4130  0.0157
17329OCT     C234658  18.562  14.157   7.172  0.3099  0.0362  0.6714
17330OCT     C134659   9.198  14.593   6.268 -0.0929 -0.2238  0.1313
17330OCT     C234660   9.084  14.155   6.203 -0.3624  0.2361 -0.0926
17331OCT     C134661  11.603   6.942   8.399  0.0756  0.0824  0.1470
17331OCT     C234662  11.500   7.025   8.888 -0.0037 -0.0465  0.2155
17332OCT     C134663   9.178  14.881   6.689 -0.1218  0.1844 -0.4720
17332OCT     C234664   8.882  14.998   7.007  0.3432 -0.0163 -0.1321
17333OCT     C134665  10.530  14.245   2.197 -0.0987  0.1808 -0.1678
17333OCT     C234666  10.247  13.934   1.889 -0.3360 -0.0962 -0.0492
17334OCT     C134667   8.686  15.915   5.387 -0.1315 -0.0967 -0.1435
17334OCT     C234668   8.664  16.412   5.334  0.2708  0.0135  0.3018
17335OCT     C134669  23.580   6.468  10.766 -0.0552 -0.2010 -0.0179
17335OCT     C234670  23.440   6.175  10.431  0.0132  0.2439  0.2791
17336OCT     C134671   4.687  21.456  13.102  0.0013  0.1773 -0.0226
17336OCT     C234672   4.690  21.940  13.013 -0.0766 -0.3840  0.3918
17337OCT     C134673  16.111   3.209  10.735  0.2187 -0.1994 -0.1271
17337OCT     C234674  16.449   2.870  10.781 -0.1928  0.4153 -0.3969
17338OCT     C134675  13.887  21.818  20.409  0.0664 -0.2690 -0.0613
17338OCT     C234676  13.519  21.530  20.280 -0.3739  0.3684 -0.1951
17339OCT     C134677  19.431  10.725  11.958  0.1067  0.4170  0.1305
17339OCT     C234678  19.731  10.781  12.293  0.0692 -0.0618  0.0457
17340OCT     C134679   0.779  21.058  21.841  0.0306 -0.0462  0.0527
17340OCT     C234680   0.990  21.514  21.907 -0.2036 -0.0051  0.1579
17341OCT     C134681   3.721  13.925   6.404 -0.2102 -0.1195 -0.1099
17341OCT     C234682   3.786  14.371   6.285  0.6788  0.0389  0.0741
17342OCT     C134683   1.066  13.725  11.852 -0.0768 -0.2679  0.3693
17342OCT     C234684   1.418  13.465  11.755 -0.1656 -0.2590  0.0647
17343OCT     C134685  12.882   5.565  13.486 -0.2662  0.2595 -0.3445
17343OCT     C234686  13.296   5.379  13.298  0.2364  0.2054  0.0327
17344OCT     C134687  10.319   0.068  17.224 -0.2921  0.1109 -0.1372
17344OCT     C234688  10.707   0.238  16.973  0.0610 -0.1926 -0.0571
17345OCT     C134689  21.363  21.924   9.238  0.0431  0.1571  0.4034
17345OCT     C234690  21.171  21.551   9.126 -0.1941  0.1900 -0.3262
17346OCT     C134691   9.771   5.283   5.864 -0.3450 -0.0267 -0.3726
17346OCT     C234692   9.594   4.881   6.006 -0.1317  0.0832 -0.1506
17347OCT     C134693   0.784  10.218  21.379  0.1135  0.0786  0.1579
17347OCT     C234694   1.174   9.975  21.289  0.0606  0.2602  0.1883
17348OCT     C134695   3.678   3.135  18.998 -0.1098  0.0929  0.3019
17348OCT     C234696   3.580   3.225  19.387  0.1899 -0.1367  0.0197
17349OCT     C134697  22.997   6.800  21.357  0.0454  0.2943 -0.3955
17349OCT     C234698  23.271   6.371  21.482 -0.1135 -0.1413  0.1377
17350OCT     C134699  11.657  13.033   3.736  0.0367 -0.4114  0.1197
17350OCT     C234700  11.441  12.626   3.714  0.2440 -0.2080 -0.3400
17351OCT     C134701  19.989   4.880   3.236 -0.0583  0.2273  0.2827
17351OCT     C234702  19.775   4.472   3.094 -0.2035  0.6257 -0.3193
17352OCT     C134703   2.408   4.292  22.541 -0.0592  0.1784 -0.0908
17352OCT     C234704   2.800   4.584  22.514 -0.0772 -0.4194 -0.1307
17353OCT     C134705  13.917  23.086  12.975  0.2280  0.1531 -0.3304
17353OCT     C234706  14.365  22.901  13.015  0.0538 -0.1911 -0.3475
17354OCT     C134707  18.031  12.581  22.130 -0.0734  0.0749 -0.0735
17354OCT     C234708  18.417  12.757  21.964 -0.0742  0.0637 -0.0931
17355OCT     C134709  16.316   3.597  11.606  0.0170 -0.1837 -0.2490
17355OCT     C234710  16.742   3.814  11.718 -0.4268  0.3398 -0.0704
17356OCT     C134711   8.371   3.324   2.636  0.1662 -0.0213  0.0058
17356OCT     C234712   8.110   3.132   2.266  0.1894 -0.1023  0.1282
17357OCT     C134713   0.451  12.673   8.910 -0.1675  0.0726 -0.1852
17357OCT     C234714   0.573  12.791   9.379  0.2831  0.1593  0.0109
17358OCT     C134715  14.711  20.385  16.555 -0.0816 -0.0705  0.2903
17358OCT     C234716  14.523  20.430  16.984  0.2104 -0.2752  0.2697
17359OCT     C134717   8.701  17.834   8.845 -0.0836  0.1165 -0.1147
17359OCT     C234718   8.328  18.005   8.564 -0.1395 -0.0444 -0.0902
17360OCT     C134719  23.454   4.050   0.304 -0.0415  0.0994 -0.1266
17360OCT     C234720  23.701   3.683   0.475 -0.0130 -0.0781 -0.0021
17361OCT     C134721   3.562  16.901  15.154 -0.1216 -0.1323 -0.1280
17361OCT     C234722   3.128  16.827  15.165  0.4402 -0.1142  0.2015
17362OCT     C134723  21.868  23.494   8.676 -0.0126 -0.3865 -0.1869
17362OCT     C234724  21.872  22.979   8.668  0.1581  0.0449 -0.3492
17363OCT     C134725  18.970  16.808  18.202  0.1753  0.1291 -0.2315
17363OCT     C234726  18.557  16.940  17.992  0.5336  0.1683  0.0340
17364OCT     C134727  12.618  20.235   0.990  0.2386  0.0580  0.0512
17364OCT     C234728  12.397  20.248   0.570 -0.1784  0.0697 -0.2956
17365OCT     C134729   6.023   4.851   1.504 -0.0157  0.2308  0.0581
17365OCT     C234730   6.019   4.720   1.888 -0.0205  0.0461  0.0561
17366OCT     C134731   1.861  20.929   3.003 -0.4111  0.1360 -0.0774
17366OCT     C234732   1.843  20.723   2.564 -0.0504 -0.3135  0.1274
17367OCT     C134733  14.117  14.333  13.227 -0.0222  0.4897  0.2315
17367OCT     C234734  14.419  13.972  13.314 -0.0946  0.1795  0.0225
17368OCT     C134735  13.402  12.576  17.025 -0.0503 -0.1423 -0.0631
17368OCT     C234736  13.461  12.133  16.818  0.0857 -0.0047 -0.1624
17369OCT     C134737  21.862  14.014  11.127 -0.0136 -0.1311 -0.1224
17369OCT     C234738  21.442  13.710  11.140 -0.0820 -0.2492 -0.0507
17370OCT     C134739  12.170  21.369  19.545  0.2229 -0.2521  0.2269
17370OCT     C234740  12.380  21.253  19.163  0.3239  0.2357  0.0580
17371OCT     C134741   2.540   3.858  12.116  0.0649  0.2681 -0.0898
17371OCT     C234742   2.090   4.021  12.266  0.1334 -0.1547  0.3010
17372OCT     C134743   8.705  12.031  18.009  0.2301  0.2299  0.0190
17372OCT     C234744   8.962  12.125  18.329 -0.1572  0.1727  0.1645
17373OCT     C134745  20.319   1.457   2.523  0.0113 -0.0716  0.3189
17373OCT     C234746  19.919   1.704   2.668  0.2878  0.0217  0.0545
17374OCT     C134747  18.207   2.664  18.211 -0.1249 -0.3151  0.0552
17374OCT     C234748  18.135   2.398  18.619 -0.0722 -0.0263 -0.2523
17375OCT     C134749  15.068  21.659   9.365  0.3124 -0.2089 -0.1348
17375OCT     C234750  14.913  21.383   9.665 -0.0645  0.1590 -0.0935
17376OCT     C134751   8.408  18.061   6.816 -0.0649 -0.2390  0.4480
17376OCT     C234752   8.322  18.280   7.283  0.0629 -0.3347 -0.2135
17377OCT     C134753   3.248   8.586   3.177  0.0439 -0.1353  0.0894
17377OCT     C234754   3.326   8.190   3.378  0.3870  0.2311 -0.0326
17378OCT     C134755  15.997  16.814   8.915  0.3533  0.0298  0.2136
17378OCT     C234756  15.968  16.838   8.424  0.0294 -0.4030  0.2218
17379OCT     C134757  12.046  21.494  14.556  0.2628  0.1038  0.0180
17379OCT     C234758  12.207  21.127  14.287 -0.0735 -0.3524 -0.0316
17380OCT     C134759  10.793   4.155   0.253  0.0658 -0.0784  0.1394
17380OCT     C234760  10.528   4.155   0.657 -0.3489  0.3213  0.0921
17381OCT     C134761   7.458  20.358   6.510  0.1288  0.0144  0.1518
17381OCT     C234762   6.981  20.415   6.579 -0.1764 -0.4234  0.2362
17382OCT     C134763   7.781   3.255  14.553 -0.4382  0.0465  0.5167
17382OCT     C234764   7.445   3.557  14.670  0.0723 -0.3137  0.2457
17383OCT     C134765   6.990  18.457   8.464 -0.1318 -0.1033  0.3916
17383OCT     C234766   7.401  18.447   8.327  0.0205 -0.0056  0.0014
17384OCT     C134767  20.947  11.399   1.756  0.1109  0.0991  0.1439
17384OCT     C234768  20.518  11.149   1.681  0.2992  0.5846  0.3092
17385OCT     C134769   6.671   5.174   7.471  0.1557 -0.3167 -0.0866
17385OCT     C234770   6.594   4.769   7.392  0.0654 -0.1379  0.2971
17386OCT     C134771  23.206  23.424  20.319  0.1365  0.3814 -0.0132
17386OCT     C234772  23.403  23.038  20.127 -0.1092 -0.0938 -0.1299
17387OCT     C134773   1.598   4.226   9.221 -0.0381  0.1115 -0.1902
17387OCT     C234774   1.354   4.119   9.594  0.1618 -0.0119 -0.1995
17388OCT     C134775   4.919  16.855  19.792  0.4119  0.0459  0.1535
17388OCT     C234776   5.300  16.609  19.801 -0.1998  0.2649 -0.3161
17389OCT     C134777   3.182   6.776   7.678 -0.1003 -0.0725  0.0273
17389OCT     C234778   3.631   6.640   7.843  0.3438 -0.4334 -0.0608
17390OCT     C134779   7.175  15.650  17.107 -0.1431  0.0242 -0.2339
17390OCT     C234780   7.082  15.245  17.297 -0.1166 -0.0381 -0.2792
17391OCT     C134781  23.214  21.344  15.072 -0.2607  0.3051  0.2435
17391OCT     C234782  22.920  21.659  14.914 -0.1084  0.0517  0.1094
17392OCT     C134783   3.706   4.378   8.384 -0.1317  0.1578 -0.1881
17392OCT     C234784   3.463   4.072   8.630  0.1800  0.0483 -0.2446
17393OCT     C134785   4.488  17.741  21.568 -0.1562  0.1971 -0.1713
17393OCT     C234786   4.819  17.535  21.809  0.0022  0.1502 -0.0124
17394OCT     C134787   1.292  12.184  22.680 -0.0928  0.0588  0.4561
17394OCT     C234788   0.851  12.268  22.615 -0.3240 -0.1206 -0.4259
17395OCT     C134789  11.680   0.507  15.671  0.2889  0.0940  0.1833
17395OCT     C234790  11.393   0.209  15.865  0.2548 -0.0329  0.2969
17396OCT     C134791   5.450   6.019  15.761 -0.1306  0.4851 -0.1920
17396OCT     C234792   5.872   5.773  15.961  0.1886  0.1437 -0.0594
17397OCT     C134793  17.811   7.071   2.831  0.0553  0.1061  0.0126
17397OCT     C234794  17.578   7.268   2.478  0.0553  0.1339  0.0972
17398OCT     C134795  16.727   9.412   2.096  0.1039  0.0301  0.2109
17398OCT     C234796  16.265   9.187   2.073 -0.1867  0.2195 -0.0586
17399OCT     C134797  10.431  10.394  15.695 -0.0763 -0.0137  0.0088
17399OCT     C234798  10.421  10.614  15.310  0.1188  0.1361 -0.0518
17400OCT     C134799   8.419   9.063  15.507 -0.0243 -0.1885 -0.0221
17400OCT     C234800   8.176   8.858  15.144 -0.1789  0.0611  0.1314
17401OCT     C134801  16.222   4.837  21.577 -0.0728  0.1556  0.2487
17401OCT     C234802  16.677   4.912  21.419  0.1007 -0.3118 -0.2714
17402OCT     C134803  20.607  19.494   7.432  0.1391 -0.3497  0.3248
17402OCT     C234804  20.722  19.098   7.754  0.0042 -0.3214 -0.1439
17403OCT     C134805  23.351   1.234  22.635 -0.1269  0.0145 -0.0489
17403OCT     C234806  23.151   1.079  22.286 -0.1023 -0.2806  0.0923
17404OCT     C134807  20.663   0.867  19.960 -0.1682  0.1647  0.1877
17404OCT     C234808  20.687   1.324  20.079 -0.1224 -0.1323  0.0483
17405OCT     C134809   2.130  10.748  18.334  0.2224  0.5135 -0.1086
17405OCT     C234810   2.516  11.041  18.240 -0.0529  0.2967 -0.7116
17406OCT     C134811  14.766  18.877  19.459 -0.0607  0.0700  0.3339
17406OCT     C234812  14.815  18.892  18.977 -0.1447  0.0497  0.0335
17407OCT     C134813  10.760  18.101  12.261  0.2840  0.1117 -0.1565
17407OCT     C234814  10.283  18.137  12.291 -0.1536 -0.0651 -0.2403
17408OCT     C134815  12.683  13.350  14.235  0.1111  0.1823 -0.0222
17408OCT     C234816  12.275  13.105  14.229 -0.3389  0.3940  0.0750
17409OCT     C134817  17.682   5.032  12.116  0.1106  0.1256 -0.3550
17409OCT     C234818  17.874   5.453  12.115 -0.3442 -0.0452 -0.0588
17410OCT     C134819  20.009   2.845   2.467 -0.6394  0.0502 -0.2265
17410OCT     C234820  20.142   3.182   2.751 -0.2683 -0.0569  0.0238
17411OCT     C134821   2.289  22.067   9.984 -0.4142 -0.0764  0.1249
17411OCT     C234822   2.359  21.618  10.245 -0.0071 -0.1307  0.5603
17412OCT     C134823  18.121  14.386  22.140 -0.0993  0.2556 -0.2507
17412OCT     C234824  18.262  14.770  22.300 -0.0417 -0.1597 -0.1306
17413OCT     C134825  20.356  23.265  12.650 -0.2120 -0.0838  0.2165
17413OCT     C234826  20.069  22.911  12.731  0.2338 -0.2872  0.0734
17414OCT     C134827   7.290  11.504   0.667 -0.0594  0.2879  0.0141
17414OCT     C234828   6.900  11.376   0.430  0.4794  0.0312  0.2368
17415OCT     C134829  15.073   7.873  18.573  0.1429 -0.1302  0.0903
17415OCT     C234830  14.641   8.001  18.743 -0.1845  0.1678  0.0963
17416OCT     C134831   0.785  20.976  11.306 -0.2644 -0.3017  0.0427
17416OCT     C234832   0.888  20.787  11.738  0.3117  0.0973  0.1131
17417OCT     C134833   0.478   8.787   2.757  0.1273  0.0129 -0.1137
17417OCT     C234834   0.723   8.459   2.481  0.2235 -0.0088  0.2999
17418OCT     C134835  13.934   3.196  12.159  0.0204  0.0845  0.4207
17418OCT     C234836  14.052   2.838  11.845 -0.2830 -0.0523  0.0111
17419OCT     C134837  21.978  17.463  19.462 -0.2424 -0.3411 -0.1496
17419OCT     C234838  22.170  17.704  19.108  0.0849 -0.1410  0.0502
17420OCT     C134839  12.990   4.984   9.601 -0.0330  0.1236  0.1472
17420OCT     C234840  13.060   5.288   9.905  0.0548 -0.0256 -0.0318
17421OCT     C134841  22.968   7.438  17.040  0.0018  0.1605  0.0073
17421OCT     C234842  23.329   7.492  17.385  0.0500  0.0005 -0.0068
17422OCT     C134843  22.186   7.643  12.245 -0.0268  0.0908  0.4804
17422OCT     C234844  22.075   7.928  12.604  0.0220  0.2375 -0.3228
17423OCT     C134845  18.098  17.439  19.385 -0.0066  0.1250  0.0533
17423OCT     C234846  18.379  17.528  19.058  0.0970  0.0911 -0.0775
17424OCT     C134847  11.099  12.967   1.707 -0.0338 -0.0012  0.1006
17424OCT     C234848  10.750  12.736   1.606  0.1379  0.0914 -0.0417
17425OCT     C134849   6.947  21.934   0.574  0.2457  0.2502 -0.3429
17425OCT     C234850   7.371  21.907   0.784 -0.1006  0.0826 -0.0928
17426OCT     C134851   1.581  22.102   5.962  0.1647 -0.3567 -0.1666
17426OCT     C234852   1.422  22.463   5.759  0.2433 -0.2974  0.2376
17427OCT     C134853  16.961  23.301   1.297  0.0109 -0.0700  0.1308
17427OCT     C234854  17.187  23.103   0.963 -0.0219 -0.0738  0.0750
17428OCT     C134855  17.438  13.073  12.362 -0.3907  0.0456 -0.0636
17428OCT     C234856  17.761  13.395  12.382 -0.1753  0.1226  0.2698
17429OCT     C134857  17.931  15.841  12.372 -0.0449  0.0162 -0.0351
17429OCT     C234858  17.762  16.257  12.492  0.0896  0.3931  0.0300
17430OCT     C134859   2.383  17.620  17.100  0.2710 -0.0801 -0.0038
17430OCT     C234860   2.042  17.561  17.395 -0.0146 -0.0592 -0.0652
17431OCT     C134861  21.634   1.170  23.065 -0.2530 -0.0520  0.1044
17431OCT     C234862  21.263   1.228  22.716  0.0785  0.1809 -0.0324
17432OCT     C134863  12.665   6.399  20.462  0.0217  0.2582  0.2413
17432OCT     C234864  12.342   6.097  20.269 -0.4244 -0.0681 -0.0866
17433OCT     C134865   4.975   2.483   5.349  0.0579 -0.0822  0.2138
17433OCT     C234866   4.504   2.519   5.429  0.4182 -0.3293  0.1249
17434OCT     C134867  11.421  11.659   4.529  0.0397  0.3077 -0.1063
17434OCT     C234868  11.460  11.751   4.058  0.2133  0.0093  0.2364
17435OCT     C134869   2.025  13.808   2.688 -0.3104 -0.0627  0.0657
17435OCT     C234870   1.622  13.577   2.851 -0.2031 -0.1233  0.2611
17436OCT     C134871   6.727   8.312   2.824  0.2134  0.3666 -0.1978
17436OCT     C234872   7.071   8.488   2.992  0.0745  0.0241  0.1100
17437OCT     C134873   8.646  18.262   1.969 -0.0170 -0.1592  0.0840
17437OCT     C234874   8.966  18.348   2.289  0.3412 -0.1229 -0.0418
17438OCT     C134875  17.289   7.856   7.267  0.1671  0.0393  0.1444
17438OCT     C234876  17.675   7.924   7.493  0.1226  0.4457 -0.0993
17439OCT     C134877  15.138   6.862   6.784  0.2118  0.1636 -0.0700
17439OCT     C234878  15.438   6.810   6.396  0.0578  0.1848  0.2560
17440OCT     C134879  23.153  22.712  22.082  0.2010  0.0451 -0.0242
17440OCT     C234880  23.486  22.606  22.345 -0.0545  0.1541 -0.1327
17441OCT     C134881   9.228   0.776  16.638 -0.0187  0.0159  0.3504
17441OCT     C234882   9.598   0.441  16.658  0.0443  0.1423  0.5267
17442OCT     C134883  13.030   8.085  18.002 -0.0445 -0.0824 -0.0252
17442OCT     C234884  12.827   8.159  17.591  0.3084 -0.0892 -0.1096
17443OCT     C134885   2.196  23.411  19.227 -0.0485 -0.0764  0.1325
17443OCT     C234886   2.301  22.897  19.148  0.0656 -0.2083  0.1944
17444OCT     C134887   8.872   6.965  21.611 -0.4230 -0.4081 -0.0989
17444OCT     C234888   9.340   6.944  21.436  0.1244 -0.1558 -0.1471
17445OCT     C134889   3.537   7.849   4.593 -0.0905 -0.0132  0.1287
17445OCT     C234890   3.604   8.091   5.011 -0.0252  0.0260  0.0048
17446OCT     C134891  19.529  20.399   1.716  0.3969  0.2025  0.3407
17446OCT     C234892  19.074  20.281   1.771 -0.0033 -0.1117  0.1599
17447OCT     C134893  11.165  15.498   4.247  0.2632  0.1382  0.1946
17447OCT     C234894  10.927  15.568   4.556  0.1154 -0.0634  0.0254
17448OCT     C134895  19.241  10.129  11.986 -0.0868  0.1795  0.3573
17448OCT     C234896  19.176  10.218  11.572  0.0114 -0.2208  0.2199
17449OCT     C134897  12.127  12.104   7.277 -0.0134  0.0763  0.3772
17449OCT     C234898  11.932  11.705   7.220  0.1950 -0.2282 -0.0193
17450OCT     C134899  11.063  13.920  15.807  0.0077  0.0800 -0.1552
17450OCT     C234900  11.171  14.155  16.281 -0.0611  0.2301  0.0605
17451OCT     C134901  15.337  14.177  15.010 -0.0347 -0.1184 -0.1059
17451OCT     C234902  15.390  13.762  14.917 -0.0088  0.1233  0.1818
17452OCT     C134903   7.832  16.096  11.424 -0.3380 -0.0765  0.1429
17452OCT     C234904   7.820  16.477  11.103  0.3069 -0.2734  0.2462
17453OCT     C134905  14.557   7.488   3.238 -0.2978  0.0114 -0.3782
17453OCT     C234906  14.462   7.600   3.703  0.2060  0.2393  0.2644
17454OCT     C134907   6.064   5.373  16.527  0.0804 -0.0151 -0.3051
17454OCT     C234908   5.761   5.050  16.619  0.1191  0.4433 -0.0164
17455OCT     C134909   8.760   3.385  15.031 -0.0550 -0.0067  0.0257
17455OCT     C234910   8.461   2.990  14.998  0.1503  0.3064  0.0513
17456OCT     C134911   0.289  16.413   3.955  0.2904 -0.0436 -0.1891
17456OCT     C234912   0.395  16.765   3.708  0.0055  0.1070 -0.1851
17457OCT     C134913   8.891   1.324  17.002 -0.1976 -0.2691 -0.2448
17457OCT     C234914   8.760   1.073  16.622  0.0415 -0.0785 -0.2531
17458OCT     C134915  15.609  12.183  13.288  0.3687 -0.2050 -0.0260
17458OCT     C234916  16.037  12.107  13.143  0.4071 -0.2775  0.0948
17459OCT     C134917  13.942  22.586  18.839  0.1426 -0.0082  0.0994
17459OCT     C234918  13.668  22.324  19.077  0.1019  0.0839  0.3265
17460OCT     C134919   1.447  18.998   2.399  0.0802  0.1375 -0.0290
17460OCT     C234920   1.186  18.761   2.726  0.1572  0.0536  0.0249
17461OCT     C134921   6.709   3.282   2.349 -0.1859 -0.3475 -0.3221
17461OCT     C234922   6.995   3.612   2.484 -0.1975  0.0704  0.0185
17462OCT     C134923  18.391  10.834  22.450 -0.0628 -0.2023  0.3237
17462OCT     C234924  18.772  10.648  22.220  0.0356 -0.3057  0.3449
17463OCT     C134925  13.826   6.847   0.159  0.0965  0.2370  0.2103
17463OCT     C234926  13.874   7.248   0.366 -0.0634 -0.1574  0.3691
17464OCT     C134927  17.280   6.694   7.992 -0.2437 -0.5112 -0.1531
17464OCT     C234928  17.232   6.821   8.426  0.0132 -0.0627  0.1027
17465OCT     C134929   9.444   1.580  14.468  0.0340  0.0448  0.1048
17465OCT     C234930   9.779   1.935  14.514 -0.0324 -0.1769  0.1579
17466OCT     C134931  10.546  20.959   8.810  0.1442 -0.2055 -0.3938
17466OCT     C234932  10.649  21.275   8.434 -0.0906 -0.2572 -0.3109
17467OCT     C134933   3.006  13.903  23.195  0.0823 -0.2624  0.0596
17467OCT     C234934   3.021  14.353  23.261 -0.1004  0.0465  0.1496
17468OCT     C134935   5.874   8.343   2.067 -0.1871  0.0422 -0.2583
17468OCT     C234936   5.627   8.121   1.706 -0.0094 -0.2124 -0.2810
17469OCT     C134937  23.517  16.620  13.425 -0.0989 -0.0591  0.1219
17469OCT     C234938  23.683  16.697  13.896  0.2328  0.0918 -0.1382
17470OCT     C134939  22.140  17.395  21.174  0.0326  0.1036  0.2894
17470OCT     C234940  22.328  17.406  20.773  0.0213 -0.0313 -0.3817
17471OCT     C134941   4.539   4.824  11.676  0.0246 -0.1606 -0.0413
17471OCT     C234942   4.378   4.919  11.277 -0.1601  0.4162 -0.0054
17472OCT     C134943   4.836  15.030  12.556 -0.1575 -0.2633  0.1244
17472OCT     C234944   5.118  15.086  12.149  0.0781  0.0795 -0.0046
17473OCT     C134945   6.344  10.841   1.513 -0.4626 -0.0047 -0.3410
17473OCT     C234946   6.055  10.480   1.678 -0.1092  0.1356  0.0066
17474OCT     C134947  10.044   3.701  18.376  0.0923 -0.0920  0.0973
17474OCT     C234948  10.249   3.593  17.989 -0.0819  0.2588 -0.3791
17475OCT     C134949   7.857  12.764  15.733  0.1695  0.0503  0.0641
17475OCT     C234950   7.442  12.764  15.440 -0.3454 -0.2887 -0.0017
17476OCT     C134951  20.139  16.014  23.293  0.0406  0.2260  0.0190
17476OCT     C234952  20.041  15.991  22.856  0.1255 -0.0786  0.0365
17477OCT     C134953   7.733  11.972  12.460  0.1747 -0.1588 -0.0691
17477OCT     C234954   7.627  11.769  12.832 -0.0171 -0.3466 -0.1216
17478OCT     C134955   6.389   7.571  15.657 -0.1226 -0.0127 -0.6112
17478OCT     C234956   6.493   7.490  15.169  0.4619  0.3240  0.5087
17479OCT     C134957   1.625   3.313   4.272  0.4791 -0.3166  0.0359
17479OCT     C234958   1.569   2.868   4.454 -0.1770 -0.2331  0.2763
17480OCT     C134959   0.119   0.725   3.258  0.1859  0.0650 -0.0460
17480OCT     C234960   0.143   0.468   2.901 -0.1495 -0.0354 -0.1494
17481OCT     C134961   1.108  23.260  18.052  0.0160 -0.1394 -0.2539
17481OCT     C234962   1.328  23.026  18.385  0.1750  0.5033 -0.0775
17482OCT     C134963  10.820   9.999  23.549 -0.1988 -0.1197 -0.1403
17482OCT     C234964  10.951  10.413  23.651 -0.1168  0.0783  0.1194
17483OCT     C134965  19.159  18.806  21.209 -0.1521  0.1145  0.0275
17483OCT     C234966  19.051  18.495  21.458  0.4644 -0.3979  0.1644
17484OCT     C134967  13.691   5.208  21.756  0.1764 -0.0296 -0.0507
17484OCT     C234968  13.900   5.631  21.840 -0.3416  0.0010  0.2180
17485OCT     C134969   0.540   4.695   5.928 -0.1538 -0.6152 -0.0765
17485OCT     C234970   0.169   4.918   5.739 -0.0016  0.2085 -0.0607
17486OCT     C134971  21.891  17.129  20.742 -0.1192 -0.1182 -0.3201
17486OCT     C234972  21.424  17.341  20.762 -0.1760  0.1024 -0.2874
17487OCT     C134973  23.327   1.130  15.039 -0.0708  0.2547  0.0211
17487OCT     C234974  23.690   0.980  15.308 -0.0948  0.1206 -0.1904
17488OCT     C134975  12.804   0.900  13.235  0.0975 -0.1792 -0.0207
17488OCT     C234976  12.742   1.267  13.530 -0.0612  0.0461 -0.1420
17489OCT     C134977  14.248   1.374   6.458 -0.0061  0.3528  0.1915
17489OCT     C234978  14.505   1.435   6.045  0.2325  0.1232 -0.1112
17490OCT     C134979   2.822  22.767  14.863  0.1180 -0.3262  0.1308
17490OCT     C234980   2.386  22.816  15.006  0.0846 -0.1214 -0.0592
17491OCT     C134981   9.122   4.274   4.134 -0.2803 -0.1389  0.0841
17491OCT     C234982   9.372   4.112   3.794  0.1751 -0.0321  0.1188
17492OCT     C134983   4.132   3.848  21.635 -0.4435  0.1311 -0.1431
17492OCT     C234984   3.731   3.753  21.797  0.3610  0.1765 -0.1957
17493OCT     C134985   9.405  17.465   3.753  0.0453  0.1166  0.0668
17493OCT     C234986   9.107  17.660   4.082 -0.5801  0.1807  0.2616
17494OCT     C134987  22.240  19.242  14.787  0.2067  0.0113  0.3763
17494OCT     C234988  22.352  19.494  15.133  0.5003  0.0760 -0.0985
17495OCT     C134989  18.393   0.926  23.145  0.3110 -0.1725  0.0296
17495OCT     C234990  18.874   0.896  23.372 -0.2693  0.3682  0.0594
17496OCT     C134991  15.128   1.031  22.457  0.0657  0.2412 -0.1966
17496OCT     C234992  15.152   1.401  22.714 -0.2707 -0.0361 -0.1469
17497OCT     C134993  17.178  18.452   0.776 -0.2106 -0.3420  0.1168
17497OCT     C234994  17.110  18.849   0.488  0.0973 -0.4104 -0.0856
17498OCT     C134995   9.344   6.302  17.616  0.0565  0.1534 -0.1963
17498OCT     C234996   9.561   6.029  17.868 -0.0272 -0.1490 -0.3784
17499OCT     C134997   3.845  10.189   7.193  0.0350 -0.5437  0.2527
17499OCT     C234998   3.970   9.826   6.997 -0.0805 -0.0011 -0.0167
17500OCT     C134999  18.464   2.655  21.300  0.0696  0.3160  0.1117
17500OCT     C235000  18.911   2.776  21.420  0.1291 -0.0737 -0.2906
17501OCT     C135001  21.133  18.301   9.342 -0.3978 -0.0861 -0.0599
17501OCT     C235002  21.461  18.094   9.620 -0.3669 -0.2439 -0.2380
17502OCT     C135003   0.241  22.916  23.672 -0.0438  0.1032 -0.0883
17502OCT     C235004  23.615  23.001  23.389  0.0922  0.1477 -0.0989
17503OCT     C135005   0.250  11.628  19.697 -0.0526  0.0010  0.1793
17503OCT     C235006  23.699  11.889  19.556 -0.0040  0.3170 -0.1981
17504OCT     C135007  18.167   6.433  22.077  0.0899 -0.0696 -0.0897
17504OCT     C235008  17.983   6.054  21.893  0.2286  0.3291  0.0250
17505OCT     C135009  14.908  19.510  13.701  0.5217  0.5691  0.2006
17505OCT     C235010  15.039  19.989  13.626  0.0540  0.2220 -0.0818
17506OCT     C135011  18.798   5.387  12.582 -0.3567  0.1920 -0.2967
17506OCT     C235012  18.537   5.742  12.376  0.0600 -0.3914 -0.0194
17507OCT     C135013   1.456   0.395  12.710  0.0819  0.0085  0.1108
17507OCT     C235014   0.947   0.360  12.733  0.1064 -0.0853  0.0540
17508OCT     C135015   2.933   1.476   8.215 -0.0952 -0.2664  0.0926
17508OCT     C235016   3.182   1.722   7.924  0.1917  0.0594 -0.0192
17509OCT     C135017  15.669  16.389  12.453 -0.0461  0.3669  0.3623
17509OCT     C235018  15.435  16.078  12.703 -0.3158 -0.2305  0.1188
17510OCT     C135019  16.189   2.223   9.837  0.2359 -0.0137  0.2203
17510OCT     C235020  16.308   2.620  10.007 -0.2248 -0.1442 -0.2493
17511OCT     C135021   6.786   3.626  22.754 -0.1697  0.0221 -0.0270
17511OCT     C235022   6.826   4.048  22.828  0.1440 -0.3120 -0.0744
17512OCT     C135023  23.686   4.812  21.031 -0.1150 -0.0057 -0.1176
17512OCT     C235024   0.007   4.450  21.338 -0.0070 -0.0368  0.1016
17513OCT     C135025   6.862   2.168  17.155  0.2913 -0.2544  0.2135
17513OCT     C235026   6.776   1.730  17.096 -0.0501 -0.0553  0.2243
17514OCT     C135027  19.526  20.913   6.568  0.0065 -0.1020  0.5918
17514OCT     C235028  19.677  20.668   6.961 -0.2622 -0.4275 -0.1483
17515OCT     C135029  15.996  14.931  15.319  0.2023  0.0859 -0.1950
17515OCT     C235030  16.417  14.851  15.495  0.0156 -0.1037 -0.2118
17516OCT     C135031  18.900  21.709   8.224 -0.0889  0.1318 -0.0630
17516OCT     C235032  18.826  22.157   8.189 -0.0785  0.0930 -0.1343
17517OCT     C135033   2.608   5.362   7.325 -0.3372 -0.0226 -0.0868
17517OCT     C235034   2.638   5.114   7.693  0.1595  0.2125 -0.1367
17518OCT     C135035  10.624   7.804   1.606  0.0157  0.2353  0.2479
17518OCT     C235036  10.873   8.011   1.966  0.1879  0.3433  0.0727
17519OCT     C135037   3.352  10.366  15.869 -0.0134  0.1500  0.2696
17519OCT     C235038   3.568   9.971  15.941  0.0038  0.0054  0.1655
17520OCT     C135039  15.231  15.360   0.775 -0.0461  0.0584  0.0203
17520OCT     C235040  15.132  15.124   0.398  0.0701 -0.0802 -0.0347
17521OCT     C135041   2.239   1.528   0.081 -0.2088 -0.1543  0.1020
17521OCT     C235042   2.240   1.803   0.482  0.1709  0.0826  0.1315
17522OCT     C135043  21.149   3.038  10.254 -0.1996 -0.2137  0.0577
17522OCT     C235044  21.590   3.074  10.490  0.3246  0.0805  0.0456
17523OCT     C135045   4.984  14.431  22.146 -0.2192  0.0222  0.2848
17523OCT     C235046   4.647  14.117  22.253  0.1885  0.1534  0.0981
17524OCT     C135047  22.269   4.627   6.926 -0.0742 -0.2707  0.5191
17524OCT     C235048  22.412   4.627   6.444  0.5662 -0.0159 -0.1215
17525OCT     C135049   6.781  12.209  17.262  0.0969  0.0884  0.1347
17525OCT     C235050   6.759  12.180  16.750 -0.1372 -0.2564  0.0687
17526OCT     C135051  10.064  17.783  15.125 -0.3471  0.1054 -0.0380
17526OCT     C235052   9.765  17.658  15.412 -0.5304 -0.1768 -0.2711
17527OCT     C135053   8.295  14.032  17.065  0.1065  0.6311  0.1082
17527OCT     C235054   7.974  13.648  17.216 -0.3161 -0.0981 -0.0621
17528OCT     C135055   5.700   0.042  14.944  0.2238 -0.2491  0.3117
17528OCT     C235056   5.363   0.180  14.642 -0.1594 -0.2277 -0.0783
17529OCT     C135057  13.447  14.497  17.254 -0.2332 -0.2941 -0.1784
17529OCT     C235058  13.708  14.244  16.911 -0.0198  0.1805 -0.3734
17530OCT     C135059  13.923   6.509   2.410 -0.0761 -0.4388  0.3244
17530OCT     C235060  13.796   6.902   2.080  0.2458 -0.0218  0.3037
17531OCT     C135061  11.149   5.150   4.933 -0.2060  0.0845  0.0418
17531OCT     C235062  11.319   5.559   4.936 -0.0856  0.4918  0.0860
17532OCT     C135063   5.266  16.573  17.153 -0.2647  0.1772 -0.0335
17532OCT     C235064   5.702  16.354  17.136  0.3520 -0.2904 -0.0326
17533OCT     C135065  13.833  18.488  13.396 -0.0863 -0.0432 -0.1760
17533OCT     C235066  13.959  18.023  13.490  0.0084 -0.2202  0.0398
17534OCT     C135067  14.439  20.566   9.865 -0.0121  0.0470  0.2261
17534OCT     C235068  14.464  20.531   9.399 -0.0920  0.5808 -0.3413
17535OCT     C135069   4.617  21.079   3.869  0.2833  0.0889  0.0820
17535OCT     C235070   4.317  21.282   4.127 -0.0031 -0.2389 -0.3039
17536OCT     C135071  10.014   0.922  14.812 -0.0616 -0.1885 -0.2250
17536OCT     C235072   9.931   0.711  15.207 -0.0727 -0.1158 -0.1429
17537OCT     C135073   1.255   1.289   8.147  0.1482  0.5368  0.2947
17537OCT     C235074   1.095   1.602   8.482 -0.1041 -0.5500 -0.0053
17538OCT     C135075  11.203   1.576   7.600 -0.1575  0.2723 -0.2837
17538OCT     C235076  11.194   1.177   7.381  0.2234  0.0548 -0.0107
17539OCT     C135077  12.194   1.750   5.191  0.0216  0.2278  0.1244
17539OCT     C235078  12.398   1.504   5.530 -0.1288 -0.2391  0.2811
17540OCT     C135079  10.552  19.802  21.340  0.0488 -0.0531 -0.0494
17540OCT     C235080  11.028  19.845  21.272  0.2146  0.2975  0.1771
17541OCT     C135081  17.535  11.599  16.155  0.2395  0.1533 -0.1487
17541OCT     C235082  17.729  11.652  15.719  0.2722 -0.0548 -0.2363
17542OCT     C135083  17.567  19.105   9.401  0.0381  0.0987 -0.1147
17542OCT     C235084  17.849  19.089   9.040  0.1470 -0.0636  0.2828
17543OCT     C135085  21.636   5.982  22.837 -0.3805 -0.1947  0.2195
17543OCT     C235086  21.781   6.455  22.711 -0.1552 -0.1472  0.1135
17544OCT     C135087  20.372  15.533  10.926  0.0207  0.0630  0.6995
17544OCT     C235088  20.728  15.391  10.679  0.1288 -0.2386 -0.1515
17545OCT     C135089   4.683  21.272   8.039 -0.2541  0.0473  0.4009
17545OCT     C235090   4.483  21.058   7.703 -0.0797 -0.1066 -0.0943
17546OCT     C135091   0.928   6.515   8.620  0.3395 -0.2844 -0.0351
17546OCT     C235092   0.647   6.124   8.605  0.1550  0.0109 -0.2429
17547OCT     C135093  11.213   2.738   0.988 -0.2513  0.1721  0.1719
17547OCT     C235094  11.331   2.411   0.715  0.1503 -0.2232  0.5296
17548OCT     C135095   4.991  11.373  21.019 -0.1109 -0.0403 -0.1902
17548OCT     C235096   5.271  11.272  21.430 -0.1656 -0.1601  0.0788
17549OCT     C135097  19.650  18.682  19.678  0.2411 -0.2047  0.1997
17549OCT     C235098  19.217  18.921  19.729 -0.2416 -0.2089  0.2576
17550OCT     C135099   7.115  23.732  15.689  0.1314  0.4585  0.0390
17550OCT     C235100   7.317  23.333  15.710  0.3040  0.1627  0.2506
17551OCT     C135101  17.354   7.589  18.352  0.2678  0.2466 -0.0557
17551OCT     C235102  17.658   7.826  18.065 -0.0383 -0.0848 -0.0531
17552OCT     C135103  21.214   8.375  10.834  0.1401  0.4619  0.1445
17552OCT     C235104  20.848   8.630  10.857  0.0148  0.1713  0.0360
17553OCT     C135105  19.017   8.793   8.709 -0.1538 -0.0377  0.0414
17553OCT     C235106  19.190   9.236   8.766  0.2021 -0.1488  0.0033
17554OCT     C135107  16.841  22.582  17.397  0.3188 -0.0753  0.0308
17554OCT     C235108  16.394  22.477  17.455 -0.1331  0.2706  0.0963
17555OCT     C135109  16.258  22.537  14.645 -0.1444 -0.0605 -0.2357
17555OCT     C235110  16.210  22.216  14.416 -0.2432 -0.3281  0.3681
17556OCT     C135111  11.981   9.332   8.303  0.0441 -0.4529 -0.0497
17556OCT     C235112  11.588   9.367   8.494 -0.0175  0.0653  0.0882
17557OCT     C135113   4.435  19.896  22.042 -0.3982 -0.0235 -0.0710
17557OCT     C235114   4.029  19.793  21.824  0.0789 -0.0291 -0.0788
17558OCT     C135115  23.233   4.563  14.659  0.0829  0.3770 -0.0604
17558OCT     C235116  23.010   4.940  14.544  0.3513 -0.4708  0.0045
17559OCT     C135117  17.378  16.535  23.494 -0.1900  0.2069 -0.1101
17559OCT     C235118  17.300  16.655   0.180 -0.1297  0.0221 -0.1866
17560OCT     C135119  13.295  12.253   0.992  0.3286  0.1070 -0.2534
17560OCT     C235120  13.582  12.268   0.580 -0.3101  0.0402  0.0049
17561OCT     C135121  17.934  15.502  17.527  0.2818  0.1954  0.0345
17561OCT     C235122  17.948  15.117  17.740  0.2024 -0.3196  0.2722
17562OCT     C135123  20.755   6.188   8.152 -0.0084  0.0400  0.1436
17562OCT     C235124  20.351   6.344   7.849  0.0619  0.0542  0.0453
17563OCT     C135125   5.055  15.417   1.547 -0.4510  0.0431 -0.1705
17563OCT     C235126   5.415  15.699   1.571 -0.1089 -0.4035  0.0926
17564OCT     C135127   9.029  18.312   9.167  0.0142  0.1418 -0.0116
17564OCT     C235128   8.943  17.929   9.341 -0.0722 -0.1829 -0.2462
17565OCT     C135129   5.809   1.127   7.639  0.3703 -0.2572 -0.4628
17565OCT     C235130   5.638   1.286   7.204 -0.0918 -0.1133 -0.0840
17566OCT     C135131  19.526   8.447   9.523  0.4139 -0.2859 -0.0143
17566OCT     C235132  19.482   8.267   9.950  0.1595  0.0621 -0.0992
17567OCT     C135133   4.719  18.676  22.806 -0.1216  0.0368 -0.3597
17567OCT     C235134   4.460  18.269  22.862 -0.2376 -0.1005  0.1993
17568OCT     C135135   6.111   4.809   7.413  0.0365 -0.1842 -0.1850
17568OCT     C235136   5.660   4.877   7.448 -0.0083 -0.0038 -0.1635
17569OCT     C135137   6.066   6.470   5.498 -0.1432  0.1861 -0.2675
17569OCT     C235138   6.037   6.059   5.311 -0.3426  0.3313  0.2712
17570OCT     C135139  18.982  14.615   2.536  0.3158  0.0062 -0.3591
17570OCT     C235140  18.666  14.591   2.229  0.0915 -0.2628  0.1013
17571OCT     C135141   8.311   9.549  17.829  0.2288 -0.0230 -0.3680
17571OCT     C235142   8.781   9.470  17.918 -0.0081 -0.0408  0.0670
17572OCT     C135143  17.257  11.266   6.123  0.0653 -0.2017 -0.0226
17572OCT     C235144  16.789  11.493   6.128 -0.1140 -0.3113 -0.1165
17573OCT     C135145  14.703   6.949   2.075  0.2613 -0.0323  0.2767
17573OCT     C235146  14.253   6.748   2.026 -0.1163  0.2286  0.2548
17574OCT     C135147  22.737  10.044  16.556 -0.2552  0.0201  0.2003
17574OCT     C235148  22.703  10.229  17.036  0.3802 -0.2546 -0.0566
17575OCT     C135149  20.703   6.504  13.337 -0.3517  0.2026  0.1265
17575OCT     C235150  21.117   6.340  13.172  0.1055 -0.1709  0.0122
17576OCT     C135151  16.093  21.874  21.639 -0.2616 -0.0685 -0.2031
17576OCT     C235152  15.824  22.306  21.595 -0.0042  0.1198  0.0491
17577OCT     C135153  17.866  13.757   0.787  0.1567  0.1385  0.0120
17577OCT     C235154  18.290  13.696   0.606 -0.0085 -0.1209  0.2081
17578OCT     C135155   5.394  16.742   6.336 -0.3697 -0.1745 -0.0493
17578OCT     C235156   5.167  16.610   6.717  0.1522 -0.0243  0.1180
17579OCT     C135157  14.573  14.347   6.712  0.3319  0.3064 -0.1531
17579OCT     C235158  14.833  14.585   7.006  0.2728  0.0179 -0.1193
17580OCT     C135159   1.802   9.545  10.319 -0.0354  0.0755  0.2202
17580OCT     C235160   1.709   9.872  10.671 -0.2403  0.1697  0.2903
17581OCT     C135161  11.117  17.478  14.839  0.0379  0.0752 -0.1660
17581OCT     C235162  11.550  17.375  14.574 -0.1056  0.1734  0.0661
17582OCT     C135163  23.130   8.489   5.036  0.1427 -0.1390  0.0697
17582OCT     C235164  22.919   8.208   5.300  0.1931 -0.3746 -0.0973
17583OCT     C135165  21.942   6.117   9.464  0.0253  0.0307 -0.2956
17583OCT     C235166  22.206   6.218   9.799  0.0837  0.4482 -0.2959
17584OCT     C135167   5.304  20.529   9.952  0.1547 -0.2675 -0.2079
17584OCT     C235168   4.966  20.206   9.917 -0.4521 -0.0297 -0.2108
17585OCT     C135169  16.590  23.004  21.125  0.1429 -0.0808 -0.1163
17585OCT     C235170  16.716  23.410  21.120 -0.1857 -0.1014 -0.1024
17586OCT     C135171  16.685  23.213   8.363 -0.1774 -0.2096  0.0530
17586OCT     C235172  17.028  22.882   8.220 -0.2088 -0.4617  0.3064
17587OCT     C135173   4.758  12.818   1.891  0.1026  0.0023  0.1520
17587OCT     C235174   4.372  13.083   2.079  0.1703 -0.0593  0.2171
17588OCT     C135175   1.018   2.675  10.329 -0.2374  0.1017 -0.2810
17588OCT     C235176   1.280   2.965  10.125  0.0031  0.2742  0.4387
17589OCT     C135177   5.993   8.306  13.192 -0.1584 -0.1714 -0.0942
17589OCT     C235178   6.409   8.191  13.388 -0.1149 -0.3327 -0.1701
17590OCT     C135179   8.400   6.521   9.367  0.2705  0.1378 -0.0489
17590OCT     C235180   8.607   6.117   9.431  0.0547 -0.1556  0.0156
17591OCT     C135181   0.597   0.629  20.180  0.1569 -0.0354  0.0039
17591OCT     C235182   0.663   1.077  20.130 -0.1929 -0.4809  0.0104
17592OCT     C135183  20.278  20.554  13.942  0.1927 -0.0605  0.0254
17592OCT     C235184  20.483  20.744  14.339  0.0629 -0.0531  0.1241
17593OCT     C135185   1.576  13.971   3.376  0.2527  0.1630 -0.1412
17593OCT     C235186   1.752  14.404   3.444  0.1837  0.4602 -0.2593
17594OCT     C135187  18.185   9.584   5.966 -0.0915  0.1573  0.4411
17594OCT     C235188  18.492   9.405   5.693  0.2393  0.2431 -0.1493
17595OCT     C135189   7.975  18.331   5.265  0.0628  0.2738  0.2221
17595OCT     C235190   8.066  17.879   5.058  0.1321  0.4645  0.0417
17596OCT     C135191  13.902  21.512   3.173 -0.0177  0.0181  0.0455
17596OCT     C235192  14.075  21.180   2.916  0.2839  0.0478  0.0121
17597OCT     C135193   5.608   1.092   8.089  0.0528  0.1002  0.0076
17597OCT     C235194   5.752   1.495   8.045  0.2234 -0.0842  0.0104
17598OCT     C135195  13.963  16.988  21.795  0.0810 -0.1635 -0.2265
17598OCT     C235196  14.347  17.276  21.588  0.0357  0.1197  0.1543
17599OCT     C135197  11.803  17.557  14.969  0.0651 -0.0972 -0.1876
17599OCT     C235198  11.576  17.206  15.060  0.0168 -0.0411 -0.2036
17600OCT     C135199   9.533  13.097   9.504  0.1282  0.0767 -0.0672
17600OCT     C235200   9.885  12.772   9.357 -0.1123  0.1275  0.0654
17601OCT     C135201  17.052   3.107  13.330  0.0297  0.0275  0.3646
17601OCT     C235202  17.200   3.126  12.898 -0.3042 -0.2455 -0.2098
17602OCT     C135203   7.957   3.736  17.004  0.2608  0.1280 -0.2322
17602OCT     C235204   7.731   3.369  16.905  0.1430 -0.0423  0.0667
17603OCT     C135205  20.538   4.330  14.786 -0.0667 -0.0283 -0.0546
17603OCT     C235206  20.725   4.085  14.483  0.7941  0.2882  0.2827
17604OCT     C135207  13.510  22.900   6.516 -0.0961 -0.3854  0.2270
17604OCT     C235208  13.380  23.330   6.512 -0.0667 -0.1253 -0.0830
17605OCT     C135209   8.601  12.818  17.348 -0.0838 -0.1398  0.0329
17605OCT     C235210   8.959  12.912  17.635  0.2685  0.1469  0.0554
17606OCT     C135211   0.064  10.208   4.261  0.0383  0.1397  0.2315
17606OCT     C235212   0.197  10.002   3.891 -0.1929 -0.1980  0.2492
17607OCT     C135213   2.750   1.215  19.879  0.2937 -0.0060  0.2207
17607OCT     C235214   2.983   1.590  19.888 -0.2585  0.0612  0.1874
17608OCT     C135215   4.073   4.308  21.824 -0.1364 -0.3535  0.1318
17608OCT     C235216   3.757   4.625  21.962  0.0618  0.0190 -0.0385
17609OCT     C135217  13.417  12.579   3.570 -0.0232 -0.3430 -0.3319
17609OCT     C235218  13.543  12.704   3.996  0.2005 -0.3712  0.2581
17610OCT     C135219  10.006  17.246  16.794 -0.2796  0.1257 -0.1728
17610OCT     C235220   9.793  17.052  17.186  0.4181  0.2136  0.3763
17611OCT     C135221   2.944  10.008  14.438 -0.3462 -0.1055 -0.4045
17611OCT     C235222   2.730   9.773  14.800 -0.0024 -0.5311 -0.0505
17612OCT     C135223   2.260   7.626  14.398 -0.1645  0.0110  0.2282
17612OCT     C235224   2.611   7.533  14.571  0.0350 -0.2507  0.1963
17613OCT     C135225  17.498  18.808   8.802 -0.0684 -0.1345 -0.2524
17613OCT     C235226  17.171  19.083   9.040  0.2831  0.0857  0.4940
17614OCT     C135227   5.690  11.178   2.374  0.0565 -0.1083 -0.1896
17614OCT     C235228   5.579  10.906   2.039  0.1564 -0.1814  0.2214
17615OCT     C135229  21.344   5.798   4.262 -0.2274  0.0406 -0.1136
17615OCT     C235230  20.880   5.976   4.353 -0.0057 -0.1967 -0.0241
17616OCT     C135231   7.740  12.963   7.795  0.1113 -0.0270  0.0003
17616OCT     C235232   7.821  13.296   8.129 -0.1920 -0.0633  0.1329
17617OCT     C135233  19.760  12.261  16.847  0.0190 -0.2804  0.6604
17617OCT     C235234  19.640  11.810  16.697  0.2686 -0.1109  0.0013
17618OCT     C135235  19.876  12.910   5.658 -0.1485  0.2516  0.1148
17618OCT     C235236  19.949  13.325   5.804  0.0210 -0.5235 -0.2895
17619OCT     C135237   6.526   2.787  11.492 -0.1090 -0.1064  0.0758
17619OCT     C235238   6.923   3.050  11.557 -0.2641 -0.0838  0.0218
17620OCT     C135239  14.880   4.874   0.033  0.2088 -0.2140  0.3611
17620OCT     C235240  15.345   4.916   0.113 -0.0645 -0.0280 -0.0698
17621OCT     C135241   5.741   4.939  10.862  0.0995  0.1968  0.0717
17621OCT     C235242   5.661   4.478  10.939  0.2151 -0.1324 -0.0545
17622OCT     C135243   7.308  16.588  12.724  0.3085  0.0752 -0.0659
17622OCT     C235244   6.939  16.871  12.547  0.1235  0.0155  0.0651
17623OCT     C135245   5.316   3.172  11.335  0.1063 -0.0759 -0.0465
17623OCT     C235246   5.200   3.372  11.732 -0.0920  0.0684  0.2925
17624OCT     C135247  14.467  13.693  19.595  0.2017 -0.2536  0.1771
17624OCT     C235248  14.282  13.947  19.210  0.1813  0.0908  0.1938
17625OCT     C135249  15.582  21.860  20.056 -0.3982  0.1569 -0.0636
17625OCT     C235250  15.562  22.312  20.213  0.0544  0.3913 -0.2051
17626OCT     C135251  16.352   9.851   2.985  0.3448 -0.0568 -0.0469
17626OCT     C235252  16.670  10.208   2.839  0.0606  0.1123  0.0797
17627OCT     C135253  22.647   2.159   8.394  0.1921  0.6045  0.5533
17627OCT     C235254  22.411   1.919   8.702 -0.0390  0.0105 -0.3419
17628OCT     C135255  13.767  22.720  19.346  0.0733 -0.0784 -0.2704
17628OCT     C235256  14.130  22.461  19.331  0.0469 -0.0827 -0.1177
17629OCT     C135257   9.705  13.086  21.907 -0.3153  0.0057  0.1666
17629OCT     C235258   9.705  13.457  21.697  0.0933 -0.0949  0.0305
17630OCT     C135259   7.393  13.030  18.973 -0.3606  0.0314 -0.4491
17630OCT     C235260   7.487  12.671  19.266  0.2034 -0.0223  0.2151
17631OCT     C135261  15.587  11.746  16.010  0.1637 -0.1486  0.0956
17631OCT     C235262  16.010  11.815  15.907  0.1626  0.0451 -0.1768
17632OCT     C135263  13.973   6.204  15.065  0.3185  0.2275  0.0644
17632OCT     C235264  13.954   6.664  14.870 -0.1168 -0.0936  0.1755
17633OCT     C135265  18.627  15.331  15.807  0.3581  0.4000  0.0430
17633OCT     C235266  18.271  15.092  15.931 -0.2422  0.1005  0.1773
17634OCT     C135267   1.715  22.703  10.296 -0.3964 -0.0371 -0.1043
17634OCT     C235268   1.637  22.958  10.716  0.2520  0.0129 -0.0700
17635OCT     C135269   5.551  11.354  19.710 -0.0899  0.1674 -0.3347
17635OCT     C235270   5.370  11.582  19.319 -0.1702  0.2596 -0.1473
17636OCT     C135271   0.320   9.578  15.305 -0.2227  0.1507 -0.2800
17636OCT     C235272   0.424  10.013  15.348  0.1328 -0.0570 -0.2430
17637OCT     C135273   7.370   3.180   4.146  0.0304  0.1544 -0.0022
17637OCT     C235274   7.006   3.319   4.098  0.2510  0.2285  0.0985
17638OCT     C135275  10.710   4.303   3.726  0.0289 -0.1052 -0.0880
17638OCT     C235276  10.646   4.329   4.157  0.6028 -0.3273  0.2078
17639OCT     C135277  23.175  23.649  10.630  0.0423  0.1907  0.2771
17639OCT     C235278  22.912  23.617  11.038 -0.3270  0.3850  0.1329
17640OCT     C135279  10.974  10.655   5.890 -0.0062 -0.2376 -0.2127
17640OCT     C235280  10.844  10.592   6.356 -0.1243  0.0801 -0.1907
17641OCT     C135281   8.553  22.080  16.826  0.1553 -0.1682 -0.2421
17641OCT     C235282   8.273  22.170  17.220  0.1770 -0.0458 -0.3468
17642OCT     C135283  14.754  20.687  12.698 -0.4643  0.0025 -0.3073
17642OCT     C235284  14.680  20.430  13.071  0.2105 -0.0718 -0.2956
17643OCT     C135285   6.013   3.325   9.448 -0.1838  0.1394  0.0622
17643OCT     C235286   6.025   3.675   9.136  0.1933  0.2266  0.1679
17644OCT     C135287   2.916  17.590   4.655 -0.0558 -0.4522 -0.0928
17644OCT     C235288   2.597  17.602   4.226 -0.0372 -0.1752 -0.2850
17645OCT     C135289   9.632   3.785  19.103  0.0072  0.0477  0.0420
17645OCT     C235290  10.053   3.879  19.175  0.2365  0.1218  0.3306
17646OCT     C135291  11.650   4.302  19.170  0.0424  0.1818 -0.2663
17646OCT     C235292  11.862   4.008  19.541 -0.3759  0.2719  0.0109
17647OCT     C135293   0.514  10.095  18.770  0.1926 -0.4244  0.4883
17647OCT     C235294   0.698  10.247  19.159 -0.0208  0.0643 -0.1329
17648OCT     C135295  10.750  10.175   4.490  0.1389  0.0148  0.0454
17648OCT     C235296  10.434  10.338   4.794 -0.0286  0.0745  0.0577
17649OCT     C135297   2.232  11.960   4.112  0.2197  0.0326 -0.0886
17649OCT     C235298   2.054  12.340   3.980  0.2428  0.0330 -0.2735
17650OCT     C135299  12.586  19.102  10.277  0.1235  0.2616 -0.1187
17650OCT     C235300  12.601  19.364   9.936  0.1767  0.1918 -0.1933
17651OCT     C135301  23.711  16.988   8.578  0.4953 -0.1166 -0.0612
17651OCT     C235302  23.713  17.462   8.514  0.0650 -0.0390  0.0128
17652OCT     C135303  13.374  19.599   1.306 -0.0556 -0.1252  0.0618
17652OCT     C235304  13.308  19.415   1.748  0.0376  0.0663  0.2456
17653OCT     C135305   8.553   3.973  18.857  0.0641 -0.1840 -0.1098
17653OCT     C235306   8.867   4.221  18.694 -0.2351 -0.0773  0.2211
17654OCT     C135307   1.694  22.377  16.967 -0.0828  0.1168 -0.0230
17654OCT     C235308   1.425  22.127  17.310  0.1840 -0.4231 -0.2203
17655OCT     C135309  13.379   3.798   8.268  0.1138  0.2867 -0.0544
17655OCT     C235310  13.177   3.906   8.690 -0.1926  0.1486  0.0277
17656OCT     C135311  10.854   0.476  23.138 -0.2140  0.3382 -0.0737
17656OCT     C235312  10.589   0.141  22.976  0.2016  0.3446 -0.1440
17657OCT     C135313   1.748  15.023  12.613  0.1333  0.1955 -0.1098
17657OCT     C235314   1.770  15.147  13.006 -0.3324  0.2105  0.0984
17658OCT     C135315  23.643   2.113  15.421  0.0268  0.0514 -0.3365
17658OCT     C235316  23.672   2.003  14.947 -0.3593  0.1541 -0.2861
17659OCT     C135317  14.483  14.025  18.183 -0.0719  0.3283  0.0372
17659OCT     C235318  14.636  13.710  17.880 -0.0441 -0.2232 -0.5223
17660OCT     C135319   8.748  17.651  18.460 -0.3723 -0.0018  0.3228
17660OCT     C235320   8.596  18.074  18.312 -0.2403 -0.0313 -0.0590
17661OCT     C135321   3.843   2.645   7.823  0.2458  0.2445 -0.1352
17661OCT     C235322   3.702   2.558   8.269  0.4309  0.0159 -0.1813
17662OCT     C135323  11.368   6.102  16.960  0.1702 -0.1220 -0.3427
17662OCT     C235324  11.522   5.623  17.014  0.0719 -0.1095 -0.2034
17663OCT     C135325  21.914  12.340  15.270 -0.1203 -0.1695 -0.4561
17663OCT     C235326  21.727  12.730  15.169 -0.1929 -0.1545  0.2108
17664OCT     C135327   8.326  18.955  13.817 -0.0039 -0.3764  0.3892
17664OCT     C235328   8.360  19.207  14.243  0.0826  0.2621  0.4410
17665OCT     C135329  14.851  16.916  10.532  0.0466  0.0045 -0.0937
17665OCT     C235330  15.017  17.357  10.589  0.1084 -0.1212  0.3396
17666OCT     C135331  13.530  14.516  14.944  0.0409  0.4281  0.2386
17666OCT     C235332  13.552  14.973  15.116 -0.0676  0.2019  0.2712
17667OCT     C135333  15.931  14.485  14.316  0.0991 -0.0106 -0.2308
17667OCT     C235334  15.713  14.893  14.197  0.3866  0.4079  0.0346
17668OCT     C135335  17.117  13.622   5.805 -0.2007 -0.2928 -0.0382
17668OCT     C235336  16.706  13.574   6.049 -0.1931 -0.1073  0.0046
17669OCT     C135337  12.672   0.623  18.516  0.1598  0.2000 -0.0259
17669OCT     C235338  12.891   0.424  18.863 -0.2701  0.3647 -0.1351
17670OCT     C135339  10.397  17.351   6.788  0.2832 -0.1599 -0.3095
17670OCT     C235340   9.969  17.553   6.694  0.0116 -0.2009  0.2830
17671OCT     C135341   9.540  11.500  10.711 -0.2208  0.2248 -0.1718
17671OCT     C235342   9.888  11.838  10.744 -0.0272  0.0468 -0.3429
17672OCT     C135343  22.264   0.234   9.601  0.0734 -0.2222  0.2339
17672OCT     C235344  22.467   0.003   9.263  0.1898  0.0598  0.2370
17673OCT     C135345   3.465  13.745  20.590  0.0174  0.0722  0.0612
17673OCT     C235346   3.137  14.104  20.690  0.1784 -0.2760 -0.0242
17674OCT     C135347  12.804  13.312  21.057  0.1088  0.2508 -0.1645
17674OCT     C235348  13.040  13.474  20.714  0.0729  0.0393 -0.4803
17675OCT     C135349   0.323   8.156   2.398 -0.0069  0.1971  0.0955
17675OCT     C235350   0.282   7.744   2.559  0.0020  0.1991 -0.3455
17676OCT     C135351  14.544   3.837  19.543  0.2583 -0.2349  0.4041
17676OCT     C235352  14.942   4.053  19.583 -0.2037 -0.1964  0.0145
17677OCT     C135353  20.274   1.857  10.309  0.2998 -0.3023 -0.1030
17677OCT     C235354  20.035   2.237  10.518  0.1261 -0.0087 -0.2967
17678OCT     C135355  11.438   3.932  15.503  0.0277 -0.0669 -0.1360
17678OCT     C235356  11.641   3.982  15.931 -0.3096 -0.3561 -0.3357
17679OCT     C135357   9.282   2.540  11.886  0.0596 -0.0871  0.0608
17679OCT     C235358   9.085   2.580  11.499  0.2436  0.0429  0.0494
17680OCT     C135359  18.952   4.119   2.395 -0.3816 -0.1136  0.2112
17680OCT     C235360  18.740   4.504   2.558 -0.0630  0.0046  0.1167
17681OCT     C135361   0.988  12.872  21.596 -0.1480 -0.2374  0.3041
17681OCT     C235362   0.531  12.718  21.500 -0.1761 -0.1971  0.0747
17682OCT     C135363  10.871  22.195  12.121 -0.0927 -0.2974 -0.3574
17682OCT     C235364  11.181  22.149  11.802 -0.2361 -0.1273  0.1973
17683OCT     C135365   5.366  14.979   5.952  0.2063 -0.5763  0.3275
17683OCT     C235366   5.497  15.408   5.737 -0.2388  0.1284  0.3071
17684OCT     C135367   0.270  21.951   6.629  0.0891 -0.1571  0.5524
17684OCT     C235368   0.390  21.745   7.041 -0.0912 -0.0063 -0.2046
17685OCT     C135369   4.119   0.160  13.772  0.0549  0.0183  0.1529
17685OCT     C235370   4.038  23.553  13.526  0.0370  0.0699 -0.0939
17686OCT     C135371  18.016   6.973   9.683  0.2754 -0.0724 -0.2494
17686OCT     C235372  18.368   7.295   9.857 -0.1776  0.2374 -0.1828
17687OCT     C135373  13.924  18.500   4.149 -0.0409 -0.0132  0.1040
17687OCT     C235374  13.632  18.164   3.939 -0.1019  0.4357  0.2810
17688OCT     C135375   6.841   9.783   4.388  0.2337  0.1853  0.0227
17688OCT     C235376   7.106   9.615   4.096 -0.1778  0.3009  0.2533
17689OCT     C135377   4.349  23.088  21.601  0.1506  0.0577 -0.2524
17689OCT     C235378   3.843  22.949  21.605 -0.2863 -0.3411  0.0208
17690OCT     C135379  19.815   1.028  15.570 -0.2391 -0.1194 -0.1338
17690OCT     C235380  19.603   1.019  15.936  0.0907  0.1355 -0.1518
17691OCT     C135381  10.189  13.440  21.737 -0.1957  0.1312  0.1555
17691OCT     C235382  10.484  13.831  21.690  0.0208 -0.3679 -0.1130
17692OCT     C135383  22.606  12.103   7.291  0.1722 -0.1763 -0.1075
17692OCT     C235384  22.641  12.541   7.239  0.1878  0.0851  0.5236
17693OCT     C135385  17.469  19.095   2.987 -0.3325 -0.2629 -0.5156
17693OCT     C235386  17.059  19.338   3.034 -0.0477  0.3000 -0.1192
17694OCT     C135387  14.591  19.653   3.402 -0.2780 -0.1824  0.3445
17694OCT     C235388  14.417  20.108   3.589 -0.2396  0.2186 -0.0294
17695OCT     C135389   6.566   2.153   7.824  0.5185  0.1938  0.1084
17695OCT     C235390   6.630   1.801   8.106 -0.0066  0.2645 -0.2256
17696OCT     C135391   4.799   1.878  15.245 -0.3969  0.1070 -0.0270
17696OCT     C235392   4.593   2.295  15.384 -0.2166 -0.4032  0.0092
17697OCT     C135393  18.701   8.447  22.527  0.1627  0.0270  0.1393
17697OCT     C235394  18.401   8.710  22.813 -0.0052 -0.1796  0.2610
17698OCT     C135395   2.305   0.533  11.968  0.0094  0.0264  0.1281
17698OCT     C235396   2.059   0.186  11.934  0.2345  0.2437 -0.1090
17699OCT     C135397  12.955  19.991  21.400  0.4226 -0.0072  0.0389
17699OCT     C235398  13.016  20.357  21.662  0.1897  0.1254 -0.0870
17700OCT     C135399  11.707  19.493   4.711 -0.0061  0.3750  0.0240
17700OCT     C235400  11.425  19.521   4.292 -0.2079  0.0909  0.2975
17701OCT     C135401   3.938   5.029   6.057  0.2876 -0.0250  0.0335
17701OCT     C235402   4.040   5.144   6.496  0.2458  0.0241 -0.2013
17702OCT     C135403  21.985  23.118  18.772  0.0820  0.2575  0.0102
17702OCT     C235404  22.417  23.252  18.767  0.2460  0.2099  0.1741
17703OCT     C135405   0.365   1.608   2.125  0.1833  0.0278 -0.2072
17703OCT     C235406   0.784   1.765   2.118  0.1033  0.1861  0.0342
17704OCT     C135407  22.162  12.406  14.816  0.0891  0.1237  0.2819
17704OCT     C235408  22.568  12.175  14.941  0.0013  0.0630  0.0043
17705OCT     C135409  10.979   4.025  11.991  0.1257  0.1596 -0.1663
17705OCT     C235410  11.179   4.116  12.384 -0.1570  0.0668 -0.2123
17706OCT     C135411  21.283   9.405  10.444  0.1911 -0.1407  0.1222
17706OCT     C235412  21.426   9.663  10.094  0.3767  0.3248  0.1118
17707OCT     C135413   3.833  18.761  20.683  0.0408  0.1806 -0.2493
17707OCT     C235414   3.927  18.383  20.414 -0.2888  0.2659  0.1599
17708OCT     C135415   1.034  22.758   9.530  0.4119  0.4278 -0.0639
17708OCT     C235416   0.979  22.663   9.051 -0.5536 -0.0683 -0.1705
17709OCT     C135417  22.578  17.385  18.449 -0.0658  0.0221 -0.0636
17709OCT     C235418  22.974  17.612  18.323 -0.0137 -0.2663 -0.0876
17710OCT     C135419  10.440  10.003   7.581  0.3867 -0.0854 -0.0426
17710OCT     C235420  10.810   9.851   7.314  0.1476  0.0519  0.2757
17711OCT     C135421  13.366   3.035   0.081 -0.1863 -0.2779 -0.2135
17711OCT     C235422  13.475   3.113  23.366 -0.2490  0.1191 -0.1580
17712OCT     C135423  17.255  14.120   9.129  0.0074  0.2284 -0.0358
17712OCT     C235424  17.350  13.700   8.825 -0.0717  0.0414  0.3846
17713OCT     C135425  17.992  23.684   8.009  0.0426  0.2014 -0.0670
17713OCT     C235426  18.009   0.106   8.469  0.0517  0.1000 -0.0084
17714OCT     C135427   6.304  20.077   2.572  0.2927  0.1197 -0.0509
17714OCT     C235428   6.452  20.299   2.195 -0.1241 -0.1645 -0.1627
17715OCT     C135429   6.060  12.037  12.265 -0.0106 -0.0094 -0.4706
17715OCT     C235430   5.696  12.344  12.302 -0.2152  0.1709 -0.0099
17716OCT     C135431  13.366  18.226  21.634 -0.0681  0.0393 -0.0249
17716OCT     C235432  13.524  18.697  21.467 -0.2010 -0.1983  0.2265
17717OCT     C135433  22.430  11.084  19.899 -0.0463  0.3273 -0.1364
17717OCT     C235434  22.312  10.675  20.108 -0.0222 -0.1852 -0.0829
17718OCT     C135435   7.774   3.464  20.158  0.3038 -0.3052  0.2170
17718OCT     C235436   7.435   3.276  20.373 -0.1724  0.0894 -0.0903
17719OCT     C135437  12.389   1.331  21.380  0.3153 -0.0740  0.1331
17719OCT     C235438  12.854   1.258  21.253  0.4354 -0.2703  0.0509
17720OCT     C135439   6.910   2.081   4.918  0.2074 -0.0285 -0.0309
17720OCT     C235440   7.258   1.846   5.020  0.0200 -0.4755  0.2443
17721OCT     C135441   6.048  17.768  12.755  0.1951  0.0363 -0.3468
17721OCT     C235442   6.230  18.224  12.765  0.2257  0.0359 -0.4319
17722OCT     C135443   1.161   7.281   3.467 -0.2813  0.0301 -0.2540
17722OCT     C235444   1.068   7.021   3.831 -0.1188  0.1913 -0.1384
17723OCT     C135445  13.066  10.760  13.806  0.0037 -0.2946  0.1310
17723OCT     C235446  13.463  10.519  13.798 -0.1010  0.0261  0.2458
17724OCT     C135447  10.702   7.494  20.124 -0.4193 -0.1287  0.3927
17724OCT     C235448  10.841   7.418  20.536  0.0101 -0.1750 -0.0502
17725OCT     C135449  19.284   8.422  12.226 -0.0277 -0.0499 -0.0877
17725OCT     C235450  19.537   8.529  12.613  0.2141 -0.0517  0.3011
17726OCT     C135451   3.983   1.259  13.220 -0.1485  0.0291  0.2289
17726OCT     C235452   3.791   1.660  13.171  0.3682  0.4951 -0.4451
17727OCT     C135453  21.434   3.245  22.813 -0.2765 -0.3044  0.0642
17727OCT     C235454  21.621   2.881  22.973 -0.4479 -0.2028 -0.1807
17728OCT     C135455   9.827   6.970   4.368  0.2440 -0.0036  0.1268
17728OCT     C235456  10.145   6.910   4.006  0.0396 -0.1756 -0.1039
17729OCT     C135457  17.322  12.969  23.163 -0.0818 -0.0253  0.0825
17729OCT     C235458  17.423  12.718  22.768  0.2198 -0.0559 -0.3053
17730OCT     C135459  14.301  18.012   8.688  0.1083 -0.0331 -0.2991
17730OCT     C235460  14.456  17.577   8.482 -0.1419 -0.3065  0.0313
17731OCT     C135461  13.336   7.117  20.923  0.1028 -0.0647 -0.1233
17731OCT     C235462  12.987   6.992  20.704 -0.3650 -0.0032  0.2785
17732OCT     C135463  21.849   3.624  20.546  0.0522 -0.3542 -0.3471
17732OCT     C235464  21.693   3.900  20.885 -0.0982  0.3970 -0.1904
17733OCT     C135465  12.169   5.106   7.216  0.2791 -0.3021  0.2395
17733OCT     C235466  11.745   5.140   7.202  0.2026 -0.0252  0.0873
17734OCT     C135467   4.405   9.807  12.339 -0.0254 -0.0358 -0.1925
17734OCT     C235468   4.145   9.513  12.024 -0.0724 -0.1501 -0.2363
17735OCT     C135469  11.694   8.593   7.752  0.0209 -0.4608 -0.2836
17735OCT     C235470  11.618   8.482   7.299 -0.4924  0.5953 -0.0443
17736OCT     C135471   0.926   6.688  19.716  0.1156  0.0898 -0.3386
17736OCT     C235472   0.848   6.694  19.241  0.0437 -0.1068  0.0941
17737OCT     C135473  14.929  18.847  16.297  0.2518 -0.2708 -0.3568
17737OCT     C235474  14.645  18.697  16.551 -0.1768  0.2404  0.0715
17738OCT     C135475   3.552   6.875  23.490 -0.2412  0.2543  0.0975
17738OCT     C235476   3.996   7.019  23.583  0.1552 -0.0871 -0.0079
17739OCT     C135477  21.435  20.287   0.179 -0.3244 -0.2442 -0.0189
17739OCT     C235478  21.495  19.931   0.428  0.0058 -0.0763 -0.0661
17740OCT     C135479   7.927   5.327  14.768  0.1299  0.3172  0.1656
17740OCT     C235480   8.219   5.009  14.994 -0.4071  0.4491 -0.2943
17741OCT     C135481   9.800  13.051   2.491  0.2388 -0.2851 -0.1469
17741OCT     C235482   9.954  12.829   2.883  0.3021 -0.1100  0.3418
17742OCT     C135483   5.541  22.561  13.703  0.2270 -0.2571  0.4038
17742OCT     C235484   5.788  22.170  13.754 -0.0096 -0.2320 -0.1138
17743OCT     C135485  23.677   9.015   1.290  0.1171  0.4355 -0.1609
17743OCT     C235486  23.701   8.841   1.726  0.3876  0.2393 -0.0198
17744OCT     C135487   8.624   2.607  18.317 -0.0339 -0.4202  0.0720
17744OCT     C235488   8.236   2.408  18.510  0.1292 -0.1160  0.0703
17745OCT     C135489  21.290   6.242  16.303  0.0529 -0.0439  0.1317
17745OCT     C235490  21.575   6.489  16.485  0.0735 -0.2930  0.2277
17746OCT     C135491   1.440   3.005   3.937 -0.1343 -0.1038 -0.1109
17746OCT     C235492   1.139   3.166   4.257 -0.3321  0.5097  0.1911
17747OCT     C135493  22.985  18.922   4.860 -0.0060  0.1539  0.4397
17747OCT     C235494  23.331  18.947   5.168  0.1742 -0.3108  0.3609
17748OCT     C135495  18.335   9.931   3.386  0.0785 -0.1105  0.1361
17748OCT     C235496  18.662   9.890   3.047 -0.0357 -0.0741  0.1018
17749OCT     C135497   5.582   1.409  11.327  0.1682  0.1062 -0.0193
17749OCT     C235498   5.754   1.023  11.128  0.0109  0.2825 -0.1963
17750OCT     C135499  23.712  21.901   3.755  0.1937 -0.0863  0.1225
17750OCT     C235500  23.385  21.604   3.771  0.0661 -0.2422  0.2019
17751OCT     C135501  18.215  11.060  17.595  0.1180 -0.0582 -0.3446
17751OCT     C235502  18.425  11.463  17.650 -0.2889  0.4336 -0.0693
17752OCT     C135503  16.602   9.436   4.091  0.2030  0.3212  0.1036
17752OCT     C235504  16.959   9.374   3.798 -0.4650 -0.1666  0.2598
17753OCT     C135505   6.446  20.755  19.500  0.1190  0.0631 -0.1523
17753OCT     C235506   5.930  20.734  19.442  0.1745 -0.0105 -0.0581
17754OCT     C135507   4.781   0.761   7.320  0.2379  0.0978 -0.2767
17754OCT     C235508   5.217   0.633   7.241  0.0872 -0.2992  0.0111
17755OCT     C135509   7.033  19.297  17.939 -0.1912  0.4332 -0.0520
17755OCT     C235510   6.648  19.433  17.720  0.1069  0.1428 -0.1146
17756OCT     C135511  17.039   1.916   2.576  0.2797 -0.0154 -0.0145
17756OCT     C235512  17.428   2.056   2.770  0.1122  0.1778  0.0388
17757OCT     C135513   1.525  11.692   1.827 -0.1029  0.1241 -0.0582
17757OCT     C235514   1.115  11.843   1.667 -0.1326 -0.3635  0.1778
17758OCT     C135515   5.907   2.941  20.752  0.1592 -0.0725 -0.2443
17758OCT     C235516   5.515   2.673  20.616 -0.4330  0.3602  0.1427
17759OCT     C135517   6.771  21.702  15.668  0.4334  0.1961  0.0035
17759OCT     C235518   6.635  21.849  15.224 -0.2906 -0.0948 -0.1605
17760OCT     C135519  15.890   7.606  12.797 -0.0423 -0.0774 -0.1042
17760OCT     C235520  16.165   7.699  13.141  0.3368 -0.0084 -0.0807
17761OCT     C135521   3.875   1.245   6.356 -0.2104  0.1020  0.3140
17761OCT     C235522   4.059   1.105   6.834 -0.0349  0.0247 -0.1789
17762OCT     C135523  15.772  23.210   9.559 -0.2078  0.2259 -0.0716
17762OCT     C235524  16.082  23.330   9.232 -0.2060  0.2346 -0.0429
17763OCT     C135525   0.941   9.208  10.753  0.2860 -0.1162 -0.1900
17763OCT     C235526   0.742   8.935  11.066  0.2760  0.0722 -0.0427
17764OCT     C135527  13.095  21.926  20.264  0.0008  0.2952 -0.0026
17764OCT     C235528  12.690  21.748  20.116 -0.2125  0.0728 -0.0732
17765OCT     C135529   4.473  19.390  17.348  0.0142  0.1149  0.0332
17765OCT     C235530   4.875  19.368  17.154  0.0643 -0.1120 -0.0851
17766OCT     C135531  18.648   1.131   4.373 -0.1082  0.1301 -0.1314
17766OCT     C235532  18.956   1.201   4.079  0.1044 -0.3704  0.1447
17767OCT     C135533   6.278  23.072  14.957 -0.0938  0.2823  0.0001
17767OCT     C235534   6.563  22.806  14.653  0.0530  0.0259  0.2374
17768OCT     C135535  23.069  13.257  13.254 -0.1321 -0.2062 -0.1265
17768OCT     C235536  23.489  13.193  13.372 -0.1583 -0.0508 -0.1984
17769OCT     C135537   5.469  14.634  11.825  0.2883  0.3484  0.0586
17769OCT     C235538   5.053  14.622  11.897  0.3482  0.2639  0.2516
17770OCT     C135539   3.798   8.589  15.763 -0.1464 -0.3728 -0.0832
17770OCT     C235540   3.875   8.869  15.376 -0.1330 -0.0728 -0.0422
17771OCT     C135541   0.767  18.383  16.963  0.0777 -0.2824  0.0688
17771OCT     C235542   0.328  18.219  17.001 -0.2064 -0.1926 -0.2180
17772OCT     C135543  16.386  13.829   7.602 -0.0355 -0.0028 -0.2141
17772OCT     C235544  16.818  13.932   7.820  0.2318 -0.1892  0.0316
17773OCT     C135545  13.174  22.533  15.818  0.3261 -0.0332 -0.1045
17773OCT     C235546  13.593  22.366  15.809  0.3556  0.1374 -0.0591
17774OCT     C135547   0.254  20.348  14.486 -0.1391 -0.1351  0.2295
17774OCT     C235548   0.413  20.387  14.932  0.3190  0.0118 -0.0829
17775OCT     C135549  19.483  13.388   6.468 -0.0185 -0.0817 -0.0611
17775OCT     C235550  19.500  13.342   5.978  0.0130 -0.1058 -0.1687
17776OCT     C135551  10.788   2.680   8.077 -0.1432  0.1325  0.0091
17776OCT     C235552  10.911   2.610   8.472 -0.1685 -0.2577 -0.2439
17777OCT     C135553  20.352  22.517  10.989 -0.0136  0.1213  0.0084
17777OCT     C235554  20.156  22.950  10.947  0.0320  0.1565  0.3097
17778OCT     C135555   7.497  17.250  15.098  0.0014 -0.2885  0.1742
17778OCT     C235556   7.889  17.297  14.946  0.0388 -0.0738 -0.2065
17779OCT     C135557   6.339  15.244   7.572  0.0257 -0.0240  0.1271
17779OCT     C235558   6.071  14.889   7.363 -0.1738  0.2211  0.2796
17780OCT     C135559   1.596  11.500  20.398 -0.3358  0.0951  0.1347
17780OCT     C235560   1.904  11.264  20.678  0.2602  0.1917 -0.0967
17781OCT     C135561  19.932  20.964   7.722 -0.1440 -0.2249  0.0643
17781OCT     C235562  19.908  20.912   8.210 -0.1337  0.0729 -0.0276
17782OCT     C135563   8.435   3.863   8.682  0.0986  0.2600  0.1668
17782OCT     C235564   8.624   3.555   8.360 -0.1500  0.0718  0.0605
17783OCT     C135565   4.570  16.419   8.637  0.1232 -0.1957  0.2144
17783OCT     C235566   4.914  16.630   8.876  0.2463 -0.1108 -0.3367
17784OCT     C135567   9.256  18.536   7.307  0.0927 -0.0072  0.1571
17784OCT     C235568   9.394  18.748   7.666  0.3289 -0.1030 -0.1321
17785OCT     C135569   6.166   0.537   3.261 -0.0375  0.0040 -0.0322
17785OCT     C235570   5.737   0.309   3.324  0.1478  0.1491  0.0346
17786OCT     C135571  18.915  13.441  23.146  0.3935  0.0718  0.1655
17786OCT     C235572  18.719  13.550  22.732 -0.1960 -0.2566  0.2531
17787OCT     C135573   0.218   4.223  20.022  0.0056  0.1062  0.0367
17787OCT     C235574   0.480   4.335  19.679 -0.1169 -0.0727 -0.1072
17788OCT     C135575  15.097  15.399  16.785  0.0887  0.5322 -0.0623
17788OCT     C235576  15.135  15.008  16.490  0.2165 -0.5489 -0.0172
17789OCT     C135577  15.308   8.875  21.967  0.0313  0.1784  0.0426
17789OCT     C235578  15.135   9.295  22.030 -0.1769 -0.3287  0.1057
17790OCT     C135579  21.298  14.700  17.109 -0.3156  0.0527 -0.0569
17790OCT     C235580  20.888  14.507  16.921  0.0991 -0.1553 -0.0332
17791OCT     C135581   2.375   6.321   9.171 -0.3265 -0.2525  0.1234
17791OCT     C235582   2.155   6.095   8.902  0.1679 -0.0519 -0.2130
17792OCT     C135583  15.633   4.981   6.288  0.1795  0.1806  0.4510
17792OCT     C235584  15.427   4.681   5.967  0.0688 -0.1810  0.2344
17793OCT     C135585   8.856   0.755  17.177 -0.3506 -0.1933  0.2716
17793OCT     C235586   8.553   0.673  17.495  0.6096  0.0407 -0.1071
17794OCT     C135587   6.957   4.523  12.400  0.0059  0.0955 -0.1336
17794OCT     C235588   7.327   4.281  12.545 -0.2108 -0.1569  0.1347
17795OCT     C135589  17.479  14.212  20.679 -0.1402  0.0010  0.1097
17795OCT     C235590  17.520  13.852  20.988 -0.2591 -0.1179 -0.1233
17796OCT     C135591   8.608  16.686  21.803 -0.2332 -0.1069 -0.2475
17796OCT     C235592   8.860  16.548  22.206  0.1671 -0.1790  0.0034
17797OCT     C135593  22.545   6.121  23.550 -0.4084 -0.2755 -0.2552
17797OCT     C235594  22.591   5.766  23.203  0.1159  0.1883 -0.0041
17798OCT     C135595  11.218  20.674  11.239 -0.2658  0.1847  0.1264
17798OCT     C235596  10.794  20.802  11.099  0.0714 -0.2507  0.0273
17799OCT     C135597   5.295   1.687  19.559 -0.4771 -0.0642 -0.0602
17799OCT     C235598   5.668   1.442  19.737 -0.0232 -0.2798  0.2165
17800OCT     C135599  20.583   8.878   3.528 -0.2262  0.1408 -0.0661
17800OCT     C235600  20.272   9.129   3.831  0.0326 -0.0217  0.2930
17801OCT     C135601   6.774  21.807   1.394  0.0037  0.3889  0.2923
17801OCT     C235602   6.913  22.041   1.047 -0.2080 -0.1319  0.0107
17802OCT     C135603  13.121   0.028  20.815 -0.1740 -0.1653 -0.3314
17802OCT     C235604  12.791  23.509  21.035 -0.1475  0.0246 -0.1836
17803OCT     C135605  14.674  16.126  22.918 -0.0816  0.4139  0.0027
17803OCT     C235606  14.368  16.484  23.120  0.0131  0.0436 -0.2331
17804OCT     C135607  14.494  15.895  17.388  0.4153  0.3710  0.1288
17804OCT     C235608  14.294  16.320  17.294  0.1345  0.2230 -0.3578
17805OCT     C135609   1.208  22.158   8.482 -0.0453  0.1361  0.1145
17805OCT     C235610   1.443  22.447   8.762  0.1998 -0.1348  0.2680
17806OCT     C135611  22.191  11.197  21.628 -0.2072 -0.2426 -0.2202
17806OCT     C235612  22.377  10.771  21.647 -0.1616  0.1773 -0.5755
17807OCT     C135613  13.094   9.295  21.218  0.0413  0.3667  0.1871
17807OCT     C235614  12.705   9.489  21.078 -0.1583  0.0646 -0.0617
17808OCT     C135615  12.009  20.059   9.014 -0.3751  0.1334  0.0047
17808OCT     C235616  12.081  20.070   8.544 -0.1219  0.2469  0.0948
17809OCT     C135617  21.769   8.500   9.954  0.1669  0.0519 -0.2616
17809OCT     C235618  21.900   8.076  10.220 -0.0283  0.0931 -0.2221
17810OCT     C135619   5.559  13.652   4.710  0.5096 -0.2937  0.1875
17810OCT     C235620   5.816  13.564   4.333 -0.1817  0.5037 -0.0026
17811OCT     C135621   0.048  12.257   2.842  0.2132  0.1664  0.0008
17811OCT     C235622   0.155  12.503   2.454  0.2922 -0.2337  0.2845
17812OCT     C135623   1.976  11.171   6.570 -0.1836  0.3641  0.1917
17812OCT     C235624   1.888  10.897   6.946  0.0980  0.2839 -0.0614
17813OCT     C135625   8.391   8.317   5.459 -0.0126  0.1966  0.1226
17813OCT     C235626   8.525   8.357   5.027  0.2152  0.0543  0.2376
17814OCT     C135627  23.573  11.366   6.989 -0.0096 -0.0738  0.2170
17814OCT     C235628  23.628  10.904   6.903  0.1332 -0.1553 -0.1286
17815OCT     C135629   5.767  20.316   4.565  0.2888 -0.0571  0.0335
17815OCT     C235630   5.823  20.726   4.400  0.1174 -0.1416  0.0152
17816OCT     C135631   5.184   3.325   6.068 -0.1461 -0.0942 -0.1185
17816OCT     C235632   4.893   2.956   6.084 -0.0646 -0.0862  0.1788
17817OCT     C135633  18.588  21.976  18.373 -0.1840  0.1055  0.0605
17817OCT     C235634  18.611  22.443  18.512 -0.2325 -0.1354  0.0972
17818OCT     C135635   7.540   3.103   9.069 -0.0825  0.0958  0.1472
17818OCT     C235636   7.618   2.709   9.321  0.2402  0.2035 -0.1923
17819OCT     C135637  14.631   8.987   1.964  0.0022 -0.0354  0.1200
17819OCT     C235638  14.341   8.679   1.735 -0.3990 -0.0814 -0.0222
17820OCT     C135639   6.343  21.860  18.822 -0.0467 -0.2891 -0.4280
17820OCT     C235640   6.388  22.257  19.019  0.1522  0.1160 -0.0725
17821OCT     C135641   3.225   6.334   9.634 -0.0948  0.0278 -0.0377
17821OCT     C235642   3.101   5.858   9.670  0.1114  0.1263 -0.0554
17822OCT     C135643  14.043  10.003   0.694 -0.0065  0.0036 -0.2756
17822OCT     C235644  14.038  10.098   1.154  0.0083  0.0089 -0.2055
17823OCT     C135645   4.713   0.682   6.875 -0.4090  0.3214 -0.1019
17823OCT     C235646   5.131   0.950   6.846 -0.1572  0.1510  0.2222
17824OCT     C135647  13.527  16.228   5.637 -0.0149  0.1990  0.2257
17824OCT     C235648  13.851  16.176   5.959  0.1154  0.2924  0.0242
17825OCT     C135649  11.839  18.016  11.828  0.0666  0.2660  0.2797
17825OCT     C235650  11.782  18.224  11.399 -0.1522  0.1633 -0.1766
17826OCT     C135651  17.861   4.214  18.907  0.3851 -0.0440 -0.2279
17826OCT     C235652  17.527   4.585  18.831 -0.2616 -0.1555  0.2529
17827OCT     C135653  20.821   6.325  22.511 -0.2659 -0.2809  0.0507
17827OCT     C235654  21.237   6.251  22.551  0.2416  0.0086  0.0498
17828OCT     C135655   4.769   6.759  11.918  0.2501 -0.1029 -0.1760
17828OCT     C235656   4.700   7.151  12.178  0.0911 -0.2368 -0.1847
17829OCT     C135657   3.282  22.516   4.816 -0.1152 -0.0868 -0.5267
17829OCT     C235658   2.924  22.354   5.157  0.2038  0.0251  0.0124
17830OCT     C135659   1.805  12.639  23.538 -0.0980 -0.1311  0.0289
17830OCT     C235660   2.090  12.426  23.241  0.0142  0.0626 -0.3379
17831OCT     C135661  13.820   3.605  11.797  0.1295  0.0189  0.0450
17831OCT     C235662  13.581   3.899  11.482 -0.1245 -0.1037 -0.1417
17832OCT     C135663   5.919  15.287   3.616  0.0442 -0.1980  0.0142
17832OCT     C235664   6.331  15.605   3.654 -0.0222  0.3237  0.6251
17833OCT     C135665   5.243   4.843   6.380  0.0830 -0.1912  0.1077
17833OCT     C235666   5.020   4.556   6.032  0.0825  0.1676 -0.4742
17834OCT     C135667  15.525  23.131   0.079  0.0342  0.1197  0.2390
17834OCT     C235668  15.406  23.051  23.451  0.3724 -0.0588  0.0253
17835OCT     C135669  12.571  17.077   2.685  0.1214 -0.1579  0.2587
17835OCT     C235670  12.439  17.315   2.317  0.2112 -0.0518 -0.0787
17836OCT     C135671  15.704  13.150   3.950  0.4106  0.2294 -0.1874
17836OCT     C235672  15.339  13.157   3.697  0.1066 -0.2636 -0.2490
17837OCT     C135673  21.445   5.672  22.538 -0.2699  0.3313 -0.2983
17837OCT     C235674  21.350   5.974  22.212 -0.2539 -0.0318 -0.0336
17838OCT     C135675  23.562   7.020  15.956  0.1298  0.0954  0.2125
17838OCT     C235676   0.150   7.281  15.759 -0.2433 -0.1584  0.2652
17839OCT     C135677   8.755  12.444  10.198  0.2242 -0.1567 -0.0403
17839OCT     C235678   8.582  12.708  10.521  0.1246  0.0959  0.0301
17840OCT     C135679  22.240   1.420   6.487  0.2274 -0.1124 -0.0073
17840OCT     C235680  22.300   1.410   6.003 -0.0828 -0.0420 -0.0205
17841OCT     C135681  17.026  21.920  10.379  0.1983  0.0844  0.0571
17841OCT     C235682  17.367  22.153  10.629  0.1220  0.2363 -0.1089
17842OCT     C135683  21.251  10.059   5.327 -0.0470 -0.4573 -0.2703
17842OCT     C235684  21.159   9.724   5.692 -0.2063  0.0159  0.0921
17843OCT     C135685   5.766   3.941  16.577  0.0790 -0.0643 -0.0759
17843OCT     C235686   5.425   3.932  16.256  0.3513  0.0291  0.0867
17844OCT     C135687  16.052   3.372   2.558  0.0269  0.3460 -0.2677
17844OCT     C235688  15.774   3.539   2.289 -0.0134  0.2754 -0.0272
17845OCT     C135689   9.792  12.469  16.821 -0.1086  0.0818 -0.1479
17845OCT     C235690   9.495  12.270  17.125  0.1744  0.3314  0.3166
17846OCT     C135691  13.682  20.570   3.587  0.2263 -0.0465  0.0809
17846OCT     C235692  13.389  20.744   3.944  0.2957 -0.3785  0.3508
17847OCT     C135693  10.368   2.802   1.216 -0.1275 -0.0221  0.0639
17847OCT     C235694  10.358   2.418   0.904 -0.3554  0.0027  0.1581
17848OCT     C135695  12.692  10.680   1.353  0.1939 -0.1504 -0.2190
17848OCT     C235696  12.903  10.472   1.728 -0.1854 -0.0785  0.1785
17849OCT     C135697  15.303  19.374  19.211  0.2974 -0.0309  0.1173
17849OCT     C235698  15.622  19.226  18.859 -0.1775  0.1663 -0.2045
17850OCT     C135699  20.692   5.660  17.113 -0.0303  0.1057 -0.2217
17850OCT     C235700  21.067   5.429  17.156  0.0534 -0.1738 -0.1017
17851OCT     C135701  12.388  18.590   2.693 -0.2228  0.0501 -0.1036
17851OCT     C235702  12.552  18.987   2.573 -0.3460  0.1100 -0.1172
17852OCT     C135703   4.924  10.843   7.497  0.0493 -0.0432  0.0332
17852OCT     C235704   5.093  10.419   7.706 -0.1288  0.2427  0.1187
17853OCT     C135705  18.636   7.853  23.134  0.0474 -0.0472 -0.1272
17853OCT     C235706  18.703   7.509  22.814  0.2087 -0.2007 -0.0058
17854OCT     C135707  11.762   4.432   1.745  0.0962  0.2546 -0.1779
17854OCT     C235708  12.217   4.368   1.659 -0.1655 -0.1221 -0.1555
17855OCT     C135709  21.485   4.281  13.202  0.2031  0.0316 -0.2012
17855OCT     C235710  21.278   4.532  12.869  0.0125 -0.2002  0.0192
17856OCT     C135711  19.463   9.703  10.648 -0.0915  0.2190  0.0646
17856OCT     C235712  19.499  10.121  10.482  0.1175  0.2288 -0.1820
17857OCT     C135713  23.725  11.040  11.890  0.0479  0.1095 -0.1425
17857OCT     C235714  23.700  10.911  12.339  0.1125  0.3797  0.3140
17858OCT     C135715   8.949   6.311   9.111  0.2102  0.0486 -0.0341
17858OCT     C235716   9.343   6.196   9.358 -0.0040  0.2995 -0.0035
17859OCT     C135717   9.804  17.513   9.803  0.0028 -0.5013 -0.0663
17859OCT     C235718  10.227  17.676   9.579  0.3559  0.1511 -0.3975
17860OCT     C135719   1.431   4.832   9.056  0.0660  0.3526 -0.1064
17860OCT     C235720   1.437   5.254   9.356  0.4460  0.0153 -0.1409
17861OCT     C135721   3.999   1.038  12.581 -0.0910 -0.1977 -0.0354
17861OCT     C235722   3.624   1.389  12.661 -0.5631  0.2626 -0.1554
17862OCT     C135723   7.004   1.285  22.856 -0.2600  0.1462  0.1201
17862OCT     C235724   7.401   1.207  22.657  0.4786  0.1874 -0.1291
17863OCT     C135725   2.947   5.897   7.172  0.4018 -0.1696 -0.4879
17863OCT     C235726   3.113   5.480   7.240 -0.2234 -0.1819 -0.3006
17864OCT     C135727   7.522  10.635  21.696 -0.1086  0.0355  0.0411
17864OCT     C235728   7.845  10.335  21.549  0.2292  0.3948 -0.4005
17865OCT     C135729  21.338  18.485   4.224 -0.3115  0.1650 -0.2705
17865OCT     C235730  21.412  18.081   3.899  0.1605 -0.0560 -0.0296
17866OCT     C135731  18.071  19.852  12.152 -0.0826  0.0044 -0.2154
17866OCT     C235732  18.205  20.314  12.180 -0.1035 -0.4911  0.0869
17867OCT     C135733   3.662  11.115   3.601 -0.0073 -0.2511 -0.0708
17867OCT     C235734   3.908  11.485   3.606 -0.0462  0.2225  0.0776
17868OCT     C135735  11.065  21.015  13.194  0.0336  0.1681  0.2884
17868OCT     C235736  10.781  21.214  12.866  0.2234  0.3231  0.0338
17869OCT     C135737  15.925  16.842  19.861  0.0309  0.1123  0.3014
17869OCT     C235738  15.951  17.288  20.018 -0.1935 -0.0573 -0.3472
17870OCT     C135739   2.114  22.404  18.342  0.2704 -0.1564  0.1554
17870OCT     C235740   2.270  22.566  18.789 -0.2216 -0.0384 -0.0168
17871OCT     C135741   8.135   3.160  22.694 -0.0624  0.0163 -0.1862
17871OCT     C235742   8.188   3.508  22.425 -0.2049  0.0125 -0.0474
17872OCT     C135743   2.852   9.910  19.185 -0.1605  0.1606  0.2303
17872OCT     C235744   2.563  10.237  19.017 -0.1074 -0.0711 -0.1152
17873OCT     C135745   5.169  11.393  22.950 -0.1189 -0.1901 -0.0344
17873OCT     C235746   5.275  10.927  22.983  0.0562 -0.3674 -0.5787
17874OCT     C135747   5.083   4.310  21.131  0.1091 -0.5604  0.1499
17874OCT     C235748   5.187   4.049  21.462 -0.0716  0.1964  0.0062
17875OCT     C135749  13.990  22.688   4.567  0.0926 -0.4334 -0.2207
17875OCT     C235750  14.058  22.264   4.610  0.1665 -0.0015  0.1065
17876OCT     C135751  14.746  12.044   1.146 -0.0368 -0.3293 -0.3534
17876OCT     C235752  14.955  11.711   0.824  0.5608 -0.1147  0.0225
17877OCT     C135753   1.297   2.451   7.174  0.0846 -0.1590 -0.0741
17877OCT     C235754   1.490   2.101   7.007 -0.1403 -0.1918  0.0757
17878OCT     C135755  17.060  11.943  23.165 -0.1472  0.2732  0.1243
17878OCT     C235756  16.698  11.989  23.410  0.0334  0.1058 -0.0097
17879OCT     C135757   2.771  12.864  21.986  0.2225  0.1093  0.0124
17879OCT     C235758   3.035  12.619  21.712  0.0504 -0.0796  0.2005
17880OCT     C135759   1.124   8.773  14.457  0.1721  0.0243 -0.3477
17880OCT     C235760   1.291   8.329  14.536  0.2968 -0.0449 -0.1985
17881OCT     C135761   2.196   2.524  10.024  0.0453  0.0486  0.1343
17881OCT     C235762   2.411   2.127  10.078 -0.0656  0.3762 -0.0894
17882OCT     C135763  17.155   9.396   2.641 -0.1699  0.1844  0.0868
17882OCT     C235764  16.693   9.475   2.632  0.1009 -0.0120  0.1899
17883OCT     C135765  14.684  11.304  11.245 -0.0323  0.0344 -0.1438
17883OCT     C235766  14.504  11.048  10.852 -0.0331 -0.0424 -0.2080
17884OCT     C135767  15.374   3.478  18.280 -0.1027  0.0621 -0.1916
17884OCT     C235768  15.513   3.803  18.560  0.0266 -0.0530  0.1869
17885OCT     C135769  16.682  11.246  11.942  0.3396 -0.4963 -0.1243
17885OCT     C235770  17.109  11.397  11.919 -0.1900  0.3553  0.0451
17886OCT     C135771   2.784  14.917  18.478 -0.1331  0.0792 -0.0301
17886OCT     C235772   2.465  14.939  18.089  0.0744  0.1812  0.1787
17887OCT     C135773  14.636  12.856  18.423  0.0992  0.1731  0.3793
17887OCT     C235774  15.113  12.751  18.559 -0.2037  0.0585  0.1432
17888OCT     C135775   0.377   8.579  14.913  0.1724 -0.3078  0.1149
17888OCT     C235776   0.879   8.496  14.833  0.0998  0.1144  0.0363
17889OCT     C135777  11.986  10.310  20.869  0.0584  0.1025  0.0646
17889OCT     C235778  11.662  10.637  20.933 -0.1835 -0.1183 -0.1046
17890OCT     C135779  22.224  19.032   8.826 -0.0869  0.1086  0.1625
17890OCT     C235780  22.216  18.840   8.379 -0.3869 -0.3259  0.1168
17891OCT     C135781  11.223  11.492  11.401 -0.0551  0.0276  0.0377
17891OCT     C235782  11.442  11.195  11.153 -0.2171  0.4387  0.1864
17892OCT     C135783  15.834   1.598  12.591 -0.0983 -0.0482  0.2290
17892OCT     C235784  15.588   1.901  12.816 -0.3491 -0.2885  0.2143
17893OCT     C135785  10.323  17.180   4.668 -0.1673 -0.1438  0.1074
17893OCT     C235786  10.267  17.246   5.113  0.4036 -0.4477  0.3378
17894OCT     C135787  21.089   0.403  20.091  0.0943 -0.0682 -0.2884
17894OCT     C235788  21.088   0.005  19.800  0.3079  0.1175  0.0389
17895OCT     C135789  18.684   3.562  14.691 -0.3438 -0.3108 -0.0617
17895OCT     C235790  18.590   3.119  14.577  0.1599  0.3809  0.0868
17896OCT     C135791  12.128   1.542  16.890  0.1402  0.1161  0.1899
17896OCT     C235792  12.079   2.011  16.832  0.0733 -0.0790 -0.0733
17897OCT     C135793  21.056  22.459   4.917 -0.1006 -0.1434  0.1353
17897OCT     C235794  20.868  22.212   4.569 -0.1353 -0.1419  0.5963
17898OCT     C135795   4.053  12.789   5.354  0.1100  0.1913 -0.1326
17898OCT     C235796   4.049  12.870   4.915 -0.0286  0.3864 -0.0560
17899OCT     C135797   4.004  13.474  11.009 -0.0601  0.1707 -0.0121
17899OCT     C235798   3.756  13.157  11.112 -0.2163  0.2364  0.1076
17900OCT     C135799   1.055  15.905   1.129 -0.0294  0.0033 -0.2095
17900OCT     C235800   0.790  15.501   1.030  0.1124 -0.0355 -0.1434
17901OCT     C135801   7.407  23.214   1.411  0.3037 -0.0420  0.4589
17901OCT     C235802   7.301  22.875   1.097  0.0202 -0.0437  0.1729
17902OCT     C135803   2.962  15.775  17.569  0.3506 -0.2230 -0.2468
17902OCT     C235804   2.488  15.862  17.768  0.2962 -0.0348 -0.0936
17903OCT     C135805  15.766  17.642   4.735  0.2863  0.1896  0.1413
17903OCT     C235806  15.533  18.048   4.644  0.2542 -0.2911  0.0924
17904OCT     C135807   9.227  15.379  12.923 -0.1906 -0.0905 -0.2249
17904OCT     C235808   9.484  15.435  13.324 -0.0144  0.2747 -0.4888
17905OCT     C135809  19.467  21.201  10.229 -0.2156  0.0748  0.3017
17905OCT     C235810  19.459  20.924  10.608 -0.1668  0.1679 -0.2337
17906OCT     C135811  18.668   4.092   7.026  0.3378  0.2985  0.2502
17906OCT     C235812  18.596   3.974   7.417  0.1507  0.0736 -0.1186
17907OCT     C135813  22.470  13.954   1.329  0.0766 -0.2463 -0.1397
17907OCT     C235814  22.466  14.397   1.475 -0.3295 -0.0548 -0.0471
17908OCT     C135815   1.195  22.271   1.154 -0.0670  0.2594 -0.0772
17908OCT     C235816   0.946  22.493   0.817 -0.2432  0.4797  0.0361
17909OCT     C135817   7.645  17.316  20.641  0.1476  0.5492  0.0421
17909OCT     C235818   8.072  17.520  20.667  0.1284  0.4077 -0.1654
17910OCT     C135819   3.590   1.113   6.814  0.1187 -0.0206 -0.0700
17910OCT     C235820   3.198   1.053   6.575 -0.0633  0.3735  0.0506
17911OCT     C135821  14.127  19.454  15.171  0.1884 -0.5409  0.0710
17911OCT     C235822  14.207  19.267  14.745 -0.2469 -0.1647  0.2301
17912OCT     C135823   5.357  16.563   0.212  0.3826 -0.2787 -0.1724
17912OCT     C235824   5.169  16.963   0.460  0.0984  0.0230  0.2038
17913OCT     C135825  10.984   6.558  15.786 -0.0399 -0.1366  0.3345
17913OCT     C235826  11.336   6.411  15.539 -0.0450 -0.0520 -0.1133
17914OCT     C135827  15.937   8.011  12.255  0.2366 -0.0271  0.1825
17914OCT     C235828  15.968   7.583  11.929 -0.2933 -0.0463  0.1530
17915OCT     C135829  12.440   2.234  16.414  0.0624 -0.0884  0.0298
17915OCT     C235830  12.744   2.019  16.035  0.2590  0.1345  0.1981
17916OCT     C135831  11.215   7.996  19.698 -0.1788 -0.3520 -0.3234
17916OCT     C235832  10.969   7.919  19.287  0.2171 -0.0556  0.4085
17917OCT     C135833   7.409  18.316  19.671 -0.1236  0.1192 -0.2535
17917OCT     C235834   7.729  18.497  20.042  0.2528 -0.2174 -0.1579
17918OCT     C135835  22.107  12.878   8.315  0.2867  0.0975  0.4291
17918OCT     C235836  21.625  13.075   8.267 -0.2613 -0.1159  0.0198
17919OCT     C135837   8.374  19.795   4.800  0.0622 -0.1202 -0.3012
17919OCT     C235838   8.265  19.568   4.415  0.1132  0.0139 -0.2689
17920OCT     C135839  17.214  19.610  11.578 -0.1008  0.2718 -0.1448
17920OCT     C235840  17.528  19.843  11.825  0.0769 -0.4793 -0.0892
17921OCT     C135841   8.507   6.521   6.595  0.1794  0.1367  0.0979
17921OCT     C235842   8.081   6.481   6.788  0.3893 -0.0256  0.0540
17922OCT     C135843   2.047   6.664  17.793  0.0574  0.0298  0.3130
17922OCT     C235844   1.771   6.775  17.414 -0.2442  0.0029 -0.1277
17923OCT     C135845   0.584   3.815   8.333  0.1501 -0.0344 -0.0311
17923OCT     C235846   0.429   3.400   8.156 -0.5011 -0.0715  0.3074
17924OCT     C135847   1.978  12.981  23.078 -0.0102  0.2993 -0.2742
17924OCT     C235848   1.565  12.889  23.173 -0.0522  0.0689 -0.1089
17925OCT     C135849   6.266  11.264  11.265 -0.1218  0.1282 -0.4122
17925OCT     C235850   5.884  11.453  11.480  0.2424 -0.2908 -0.0808
17926OCT     C135851   3.835  21.300  13.080 -0.1169  0.5012  0.2088
17926OCT     C235852   3.976  20.842  13.042 -0.1288  0.0489 -0.3729
17927OCT     C135853  14.288  22.142   4.139  0.1102 -0.1024 -0.0029
17927OCT     C235854  14.241  21.871   3.838 -0.4330  0.1010  0.3482
17928OCT     C135855   9.478  22.623   9.007 -0.3229  0.1081  0.0664
17928OCT     C235856   9.344  22.316   8.658  0.0888 -0.1759 -0.2145
17929OCT     C135857  21.033  17.697  14.487  0.3278 -0.1743  0.2283
17929OCT     C235858  20.582  17.634  14.669 -0.1517  0.3654  0.0430
17930OCT     C135859   6.319  19.373  19.705  0.0922 -0.0072 -0.4636
17930OCT     C235860   5.803  19.278  19.702  0.1272  0.0287 -0.1273
17931OCT     C135861  21.998   7.588  15.168  0.0476 -0.5237 -0.1697
17931OCT     C235862  22.440   7.559  15.121  0.0349  0.2198 -0.0157
17932OCT     C135863   4.907  20.059   5.869  0.0792  0.0405 -0.1163
17932OCT     C235864   5.167  19.790   5.563  0.0637 -0.2049  0.1376
17933OCT     C135865  18.707   1.301   6.218 -0.0857 -0.3574 -0.0197
17933OCT     C235866  18.954   1.086   5.999  0.4248  0.0045  0.0322
17934OCT     C135867  12.638  20.188  20.767  0.2951 -0.0391 -0.2834
17934OCT     C235868  13.076  20.141  20.920 -0.1839  0.5257 -0.1983
17935OCT     C135869   6.878   6.452  22.752 -0.4680  0.3661 -0.2444
17935OCT     C235870   6.654   6.070  22.678  0.1464 -0.1002  0.0824
17936OCT     C135871   2.284  17.558   1.936 -0.2604  0.3113  0.6398
17936OCT     C235872   2.702  17.809   1.851  0.0957  0.0421  0.2118
17937OCT     C135873  19.930  17.010  11.188 -0.1631 -0.0717  0.0850
17937OCT     C235874  19.912  16.847  11.651 -0.0327  0.2012 -0.2709
17938OCT     C135875   2.387   0.030  23.049  0.3434 -0.3049 -0.4476
17938OCT     C235876   2.630  23.463  23.254 -0.2723 -0.0120  0.1439
17939OCT     C135877   0.319  14.759  21.426  0.0552  0.1465  0.2732
17939OCT     C235878   0.622  15.049  21.622 -0.3432 -0.1514  0.0044
17940OCT     C135879   1.333   0.279   3.514 -0.0855 -0.1339 -0.1494
17940OCT     C235880   1.500   0.492   3.071 -0.2379 -0.1019 -0.1047
17941OCT     C135881  23.511  16.847  20.883 -0.1052 -0.2212  0.1760
17941OCT     C235882  23.632  16.573  20.542 -0.1487  0.2638  0.2458
17942OCT     C135883   8.214   0.823  19.136 -0.0778  0.0403  0.2220
17942OCT     C235884   7.993   1.231  19.059 -0.0975 -0.0600 -0.4663
17943OCT     C135885  11.293   0.088   7.311  0.0608  0.0274  0.1464
17943OCT     C235886  11.250  23.522   7.677 -0.3064 -0.0398  0.3086
17944OCT     C135887   0.033  10.734   1.619 -0.2560  0.0176 -0.0977
17944OCT     C235888   0.125  10.569   2.028  0.3170 -0.0043 -0.3818
17945OCT     C135889  13.528   1.412  20.773  0.1720 -0.0331  0.1474
17945OCT     C235890  13.272   1.050  20.972  0.3606  0.0664 -0.0177
17946OCT     C135891  21.174  18.084  10.110 -0.2125  0.1140  0.1494
17946OCT     C235892  20.999  17.948   9.690  0.0353 -0.1178 -0.1325
17947OCT     C135893  13.338  13.749  15.382 -0.1357  0.0022  0.0689
17947OCT     C235894  13.683  13.449  15.338  0.2706 -0.1074 -0.2390
17948OCT     C135895   4.566   2.597   0.875  0.1981  0.2211 -0.0491
17948OCT     C235896   4.881   2.939   0.835 -0.0489 -0.0312 -0.4562
17949OCT     C135897   5.202  19.232   2.027  0.0897 -0.0921 -0.0406
17949OCT     C235898   5.195  19.022   2.413  0.2742 -0.1686  0.1592
17950OCT     C135899  12.859  17.104   8.284 -0.1232  0.1240 -0.0310
17950OCT     C235900  12.607  17.421   8.535 -0.1219  0.1581  0.0175
17951OCT     C135901  10.280   2.894   7.966  0.2728 -0.0073  0.2403
17951OCT     C235902  10.513   2.696   7.659 -0.1031  0.1220  0.3949
17952OCT     C135903  19.187   4.008  13.589 -0.3409  0.1779  0.0760
17952OCT     C235904  19.019   3.697  13.880  0.0617 -0.3444 -0.0353
17953OCT     C135905  13.697  17.696   0.049  0.2401  0.0793 -0.2287
17953OCT     C235906  13.644  17.381   0.367  0.0055 -0.1006  0.2256
17954OCT     C135907  11.052   5.423  16.687 -0.1136 -0.2488  0.1010
17954OCT     C235908  11.147   4.997  16.495 -0.0742  0.0131  0.1040
17955OCT     C135909  10.384  14.934  17.621 -0.1437  0.2568 -0.1197
17955OCT     C235910   9.963  14.708  17.831  0.1373  0.0838 -0.1156
17956OCT     C135911  18.450  21.872   9.028  0.1357  0.0530 -0.1122
17956OCT     C235912  18.639  22.314   9.166 -0.1140 -0.0672 -0.0687
17957OCT     C135913   9.849   5.866   0.348  0.3976  0.1033 -0.0942
17957OCT     C235914   9.738   5.483   0.624 -0.0233  0.4582  0.0532
17958OCT     C135915   0.900   9.174   4.586 -0.1769 -0.3264  0.3419
17958OCT     C235916   1.246   9.476   4.483 -0.0840 -0.0634  0.1060
17959OCT     C135917  15.378  22.907   6.362  0.0626  0.3484  0.1191
17959OCT     C235918  14.909  22.839   6.398  0.2166  0.3448 -0.0164
17960OCT     C135919  17.423  23.319  12.766 -0.3175 -0.0841  0.3707
17960OCT     C235920  17.853  23.377  12.563 -0.0534  0.0654  0.1425
17961OCT     C135921   9.856  22.038  22.141  0.1846  0.1335  0.2543
17961OCT     C235922   9.402  21.828  22.164 -0.3144  0.0518 -0.3027
17962OCT     C135923   9.483  18.150  16.327  0.0553  0.0200 -0.0473
17962OCT     C235924   9.383  17.969  16.721  0.4241 -0.2765 -0.0048
17963OCT     C135925  14.983  10.455   2.630  0.1112 -0.0446 -0.1681
17963OCT     C235926  14.918  10.518   2.173  0.0973 -0.3318 -0.1030
17964OCT     C135927  11.774  10.679   4.381  0.1647 -0.2925  0.1554
17964OCT     C235928  12.009  10.744   3.954 -0.0946 -0.1921 -0.2111
17965OCT     C135929  17.452  21.528  14.203 -0.0900  0.0506 -0.3142
17965OCT     C235930  17.114  21.251  14.230  0.1833 -0.1869 -0.1609
17966OCT     C135931   1.887  19.895  16.736 -0.0950 -0.3995  0.1111
17966OCT     C235932   2.256  20.114  16.839  0.0382  0.2214  0.0236
17967OCT     C135933   7.831   5.112   4.634 -0.0616  0.3385 -0.0122
17967OCT     C235934   8.006   5.516   4.669  0.3900  0.1486  0.0135
17968OCT     C135935  22.260  17.748  17.728 -0.0566  0.1443  0.3476
17968OCT     C235936  22.424  17.805  18.170  0.0043  0.2774  0.0144
17969OCT     C135937  15.300  16.471  17.291 -0.4124 -0.1349  0.3614
17969OCT     C235938  15.171  16.790  16.956  0.0769 -0.0128  0.4534
17970OCT     C135939  23.445  13.097  10.465  0.3455 -0.1859  0.0427
17970OCT     C235940  23.037  13.066  10.248 -0.2579  0.2534 -0.2692
17971OCT     C135941  15.054   8.646   9.581  0.2607 -0.0948  0.1114
17971OCT     C235942  14.977   8.212   9.710  0.0017  0.1827 -0.1372
17972OCT     C135943  19.555  10.610  18.553  0.0400 -0.4505 -0.2157
17972OCT     C235944  19.709  10.250  18.305  0.1020 -0.1039 -0.0354
17973OCT     C135945   9.520  23.562  22.913 -0.0858  0.2368  0.6271
17973OCT     C235946   9.215  23.381  23.195 -0.2704 -0.0965 -0.0019
17974OCT     C135947  18.547   2.812   4.739 -0.0528 -0.1533  0.2361
17974OCT     C235948  18.928   2.772   5.046  0.3403  0.0181 -0.2449
17975OCT     C135949   2.859   0.447   6.915 -0.0406 -0.2492 -0.0680
17975OCT     C235950   2.414   0.301   6.885 -0.0756 -0.2670  0.0453
17976OCT     C135951  20.860   0.721  12.077 -0.0047  0.1610  0.1605
17976OCT     C235952  21.219   0.756  12.317 -0.4210  0.0446 -0.5978
17977OCT     C135953   8.658  21.505  11.271 -0.2041 -0.1270 -0.0769
17977OCT     C235954   8.695  21.709  11.702 -0.1242  0.1396  0.1629
17978OCT     C135955  10.826  17.153  19.152  0.3105  0.0697 -0.1068
17978OCT     C235956  10.488  17.414  18.903 -0.1983  0.0697 -0.0001
17979OCT     C135957  14.470  11.795  18.903  0.2879  0.3878 -0.2157
17979OCT     C235958  14.724  11.655  18.478  0.4240  0.0308 -0.0207
17980OCT     C135959  23.135  18.573  17.096  0.2233  0.2746 -0.1541
17980OCT     C235960  23.573  18.676  17.251 -0.1464  0.0317 -0.0305
17981OCT     C135961  17.097  23.495  17.759 -0.0226  0.0632  0.0780
17981OCT     C235962  17.375  23.145  17.576 -0.2058  0.0992 -0.0423
17982OCT     C135963   0.217   8.406   1.880 -0.1324 -0.2947 -0.1917
17982OCT     C235964   0.656   8.258   1.951  0.0720 -0.2386 -0.1157
17983OCT     C135965  18.812   7.713   0.533 -0.1879 -0.1957  0.1134
17983OCT     C235966  18.708   8.023   0.882 -0.1036 -0.2932  0.0263
17984OCT     C135967   0.272   6.925   5.887  0.0366  0.1905 -0.0846
17984OCT     C235968   0.757   6.966   5.947  0.0695  0.1044  0.0514
17985OCT     C135969  12.579   4.517   9.768  0.0951 -0.0653 -0.0123
17985OCT     C235970  12.197   4.317   9.556  0.0671  0.0488 -0.6414
17986OCT     C135971  10.968  22.514  17.662  0.0823 -0.0468  0.1831
17986OCT     C235972  11.405  22.344  17.550 -0.1742  0.1013 -0.1626
17987OCT     C135973  15.463  12.692  14.583  0.1730 -0.1300 -0.2622
17987OCT     C235974  15.451  13.053  14.236  0.2210 -0.0354 -0.2074
17988OCT     C135975   7.528   6.265  13.514  0.0475 -0.2699 -0.0537
17988OCT     C235976   7.655   6.649  13.358  0.2876 -0.0672  0.4073
17989OCT     C135977   0.315  15.095   4.582 -0.2112  0.3352 -0.1514
17989OCT     C235978   0.136  15.159   4.997 -0.4232 -0.2069  0.3540
17990OCT     C135979   9.501  14.775  16.220  0.3038  0.0644  0.0503
17990OCT     C235980   9.065  14.753  16.216  0.4322  0.2279  0.0584
17991OCT     C135981  18.858  21.560  11.488  0.2605 -0.1193 -0.1461
17991OCT     C235982  19.106  21.165  11.509 -0.0021 -0.2469 -0.3228
17992OCT     C135983   0.912  15.931  18.081 -0.0146 -0.0877  0.0559
17992OCT     C235984   0.444  16.005  18.079 -0.1542  0.0388 -0.0230
17993OCT     C135985   3.730  12.974   3.393  0.0128 -0.0531 -0.4327
17993OCT     C235986   4.049  12.744   3.626  0.1111 -0.0315  0.1212
17994OCT     C135987  15.254   0.383  23.516  0.0124  0.1916  0.0379
17994OCT     C235988  15.198   0.310   0.266  0.1951 -0.1526  0.1054
17995OCT     C135989  16.762  12.054   8.534  0.0174 -0.1403  0.2159
17995OCT     C235990  17.022  12.390   8.257  0.2222 -0.0337  0.1098
17996OCT     C135991  21.891  11.461   9.309  0.0514 -0.3113  0.1499
17996OCT     C235992  21.765  11.050   9.139  0.1413  0.1612  0.3541
17997OCT     C135993  17.941  17.451  17.645 -0.4360 -0.0759  0.0732
17997OCT     C235994  17.779  17.046  17.448  0.1601  0.1121  0.0920
17998OCT     C135995  20.208  10.724  14.780  0.1392 -0.2641  0.3292
17998OCT     C235996  19.832  10.434  14.764 -0.1812  0.0726  0.0358
17999OCT     C135997  16.562   9.849  20.280  0.1133  0.0392 -0.0135
17999OCT     C235998  16.501  10.302  20.395 -0.0456 -0.2068 -0.0993
18000OCT     C135999   2.191  17.952  12.346  0.0640 -0.0960 -0.3342
18000OCT     C236000   2.253  18.216  12.697 -0.1676  0.0680  0.1708
18001OCT     C136001  16.561  19.595  10.860  0.0597  0.1438  0.1336
18001OCT     C236002  17.021  19.730  10.742  0.2165  0.1764  0.3101
18002OCT     C136003   9.043  23.184   2.192  0.5674  0.0817 -0.0510
18002OCT     C236004   8.641  23.450   2.212 -0.0208  0.0727 -0.2226
18003OCT     C136005   6.165  11.331   5.442  0.0763 -0.0650  0.2376
18003OCT     C236006   6.469  10.995   5.550  0.0118  0.0126  0.1231
18004OCT     C136007  19.665  10.512   4.525 -0.2460  0.0366  0.1775
18004OCT     C236008  20.067  10.542   4.772 -0.1317 -0.0595 -0.4114
18005OCT     C136009   8.446  13.587   2.850  0.0177 -0.0396  0.1395
18005OCT     C236010   8.583  14.000   2.953 -0.0596  0.0452  0.4488
18006OCT     C136011  13.901   3.267  11.217 -0.0156 -0.1562  0.1676
18006OCT     C236012  13.988   3.732  11.263  0.5261  0.0910 -0.2347
18007OCT     C136013  10.214  22.284   8.544  0.2899 -0.2674 -0.3173
18007OCT     C236014  10.634  22.214   8.757  0.0087  0.1810 -0.1463
18008OCT     C136015  15.733  15.056  22.023 -0.1440  0.3043 -0.3377
18008OCT     C236016  16.103  14.760  22.056 -0.0504  0.0614  0.3702
18009OCT     C136017  19.412   4.244   6.299 -0.1273  0.0898 -0.0231
18009OCT     C236018  19.080   3.981   6.120  0.3500 -0.1422  0.1317
18010OCT     C136019   1.967   5.144  13.200 -0.2318 -0.0053 -0.0756
18010OCT     C236020   1.783   5.038  13.596 -0.2904 -0.0459 -0.0182
18011OCT     C136021   6.771  16.540   8.630  0.1245  0.4791 -0.6413
18011OCT     C236022   6.962  16.330   9.021  0.1670 -0.0984 -0.1601
18012OCT     C136023  12.182   2.012  14.692 -0.1257  0.1471 -0.0392
18012OCT     C236024  11.923   2.349  14.902  0.0065 -0.2216 -0.0357
18013OCT     C136025   1.691   9.891   1.658 -0.1105 -0.1828 -0.3003
18013OCT     C236026   1.863   9.533   1.799 -0.2576 -0.0466 -0.2575
18014OCT     C136027  15.412   7.854  11.909 -0.1908  0.0326 -0.1073
18014OCT     C236028  15.568   7.987  11.509  0.0519 -0.1788 -0.1357
18015OCT     C136029  19.634   0.347   8.105 -0.3449 -0.1437 -0.3032
18015OCT     C236030  19.630   0.772   7.957 -0.4408  0.2573  0.4675
18016OCT     C136031   1.116   9.672  10.748  0.0409 -0.2525 -0.0477
18016OCT     C236032   1.507   9.364  10.762 -0.0521  0.0084  0.0482
18017OCT     C136033  12.116   6.945   0.149 -0.1326 -0.1710  0.0910
18017OCT     C236034  12.580   6.952  23.682  0.0164 -0.0349 -0.0506
18018OCT     C136035  22.487   0.523  21.630 -0.0554 -0.3478  0.0617
18018OCT     C236036  22.604   0.279  22.031  0.2498  0.2613 -0.1762
18019OCT     C136037  14.932   5.481  11.721  0.3034  0.1391 -0.4940
18019OCT     C236038  14.961   5.015  11.857 -0.0109  0.2082 -0.0222
18020OCT     C136039   4.264  10.844   4.658  0.0826 -0.0953  0.1854
18020OCT     C236040   4.679  11.041   4.690  0.0517  0.1036 -0.1908
18021OCT     C136041   7.665   4.423   7.755  0.1195  0.0779 -0.0486
18021OCT     C236042   7.741   4.044   7.479 -0.2080  0.2260 -0.3800
18022OCT     C136043  12.398  16.694   1.688  0.1319 -0.3171  0.1876
18022OCT     C236044  12.381  16.851   2.093 -0.0950 -0.0714  0.4164
18023OCT     C136045   9.818   5.404   5.090 -0.1700 -0.1594  0.0094
18023OCT     C236046   9.522   5.088   5.210  0.1699 -0.4812 -0.4301
18024OCT     C136047  23.036  10.229   5.593  0.0362 -0.1666 -0.1464
18024OCT     C236048  23.048  10.643   5.815  0.3543 -0.1662  0.4803
18025OCT     C136049   9.582   9.636   0.328  0.0537  0.2066 -0.3795
18025OCT     C236050   9.346   9.324   0.629  0.1442  0.1747  0.0147
18026OCT     C136051  14.910   5.300   2.716 -0.1203 -0.0559  0.3021
18026OCT     C236052  14.616   4.943   2.680  0.0864 -0.1452 -0.0409
18027OCT     C136053   8.009  18.003   5.994 -0.0759 -0.2345  0.2188
18027OCT     C236054   7.953  18.430   5.811  0.0290  0.1242  0.0564
18028OCT     C136055  18.698   8.056  10.145 -0.2070  0.2132 -0.0027
18028OCT     C236056  18.451   8.151  10.569 -0.1815 -0.2218 -0.0571
18029OCT     C136057  23.152  20.600   9.583 -0.0540 -0.0833  0.2639
18029OCT     C236058  23.036  20.284   9.262 -0.1234 -0.1747  0.2398
18030OCT     C136059  20.642  15.279  20.507 -0.4020 -0.0838 -0.1191
18030OCT     C236060  20.782  14.817  20.568 -0.2231 -0.1691  0.1975
18031OCT     C136061  16.031   2.626   0.461  0.1310  0.1078 -0.2889
18031OCT     C236062  16.163   2.927   0.817  0.1129 -0.0888 -0.1334
18032OCT     C136063  13.256   2.409  21.986 -0.0672 -0.0693 -0.1886
18032OCT     C236064  13.115   2.034  21.768 -0.3883 -0.0691 -0.1217
18033OCT     C136065   1.911  13.760  21.369  0.2341  0.1229 -0.0346
18033OCT     C236066   1.591  13.471  21.314 -0.0856  0.0151  0.2062
18034OCT     C136067  22.665   3.091   8.968 -0.0616  0.0867 -0.0168
18034OCT     C236068  23.117   3.209   8.961  0.0389 -0.0210  0.1124
18035OCT     C136069   0.549  15.529  13.257 -0.4258  0.2040  0.0027
18035OCT     C236070   0.702  15.760  12.860 -0.0164 -0.4200  0.0111
18036OCT     C136071  17.420  17.514   8.204 -0.4062  0.2240 -0.2606
18036OCT     C236072  17.280  17.098   8.392 -0.0403  0.0961  0.1875
18037OCT     C136073  20.778   0.712   2.256  0.0112 -0.0200  0.0501
18037OCT     C236074  21.172   0.974   2.141  0.3342 -0.4591 -0.3613
18038OCT     C136075   3.666  19.905   8.163 -0.0209  0.3786 -0.0207
18038OCT     C236076   3.261  19.779   7.875  0.0186  0.1681 -0.1760
18039OCT     C136077   7.268   7.403  23.222 -0.2139 -0.2467  0.0487
18039OCT     C236078   7.406   7.872  23.161 -0.0611 -0.2547  0.0642
18040OCT     C136079   2.974   5.390  14.786 -0.0052  0.0483  0.0087
18040OCT     C236080   2.784   5.116  15.181 -0.1277  0.2729  0.0779
18041OCT     C136081   5.042   1.481   6.741 -0.0657  0.1340  0.3097
18041OCT     C236082   5.507   1.276   6.719  0.4377 -0.0062 -0.3475
18042OCT     C136083  14.660  17.501   5.153 -0.0153 -0.1426 -0.1058
18042OCT     C236084  14.722  17.050   5.127 -0.0072 -0.0710  0.3499
18043OCT     C136085  15.431   9.105  19.660 -0.1124  0.0083  0.0356
18043OCT     C236086  15.154   9.113  20.019 -0.3385 -0.0327 -0.0120
18044OCT     C136087  19.426   6.709   7.308 -0.0985 -0.3224  0.0820
18044OCT     C236088  19.185   6.446   7.021  0.0399  0.1274 -0.1535
18045OCT     C136089   8.553   9.409  10.627 -0.1018  0.1346 -0.2820
18045OCT     C236090   8.466   9.347  10.186 -0.0201 -0.0902  0.2542
18046OCT     C136091  13.199  13.104   4.031  0.0521  0.3825 -0.2254
18046OCT     C236092  13.031  12.694   3.917  0.0101  0.1418 -0.2556
18047OCT     C136093  11.462   6.097   8.391 -0.1011 -0.2075 -0.0516
18047OCT     C236094  11.316   6.537   8.616  0.0063  0.2240 -0.1525
18048OCT     C136095   0.063   6.488   9.900 -0.5350 -0.1034  0.0980
18048OCT     C236096   0.155   6.560  10.383  0.0859 -0.0875 -0.0027
18049OCT     C136097  13.351   3.029   5.054  0.0180  0.0739 -0.0394
18049OCT     C236098  13.008   3.190   5.359  0.0691 -0.1056  0.0150
18050OCT     C136099  20.177   7.075  19.565  0.4651  0.0187 -0.1594
18050OCT     C236100  19.678   7.090  19.555  0.0245  0.0457  0.2098
18051OCT     C136101  21.123   3.880   6.715  0.0145  0.2671  0.1623
18051OCT     C236102  21.428   3.711   6.401 -0.0731 -0.0223  0.1136
18052OCT     C136103   6.710   6.288  12.091 -0.2124 -0.2675 -0.3174
18052OCT     C236104   6.993   6.162  12.458 -0.1891 -0.3018  0.1694
18053OCT     C136105  12.389  19.289  23.524 -0.4361 -0.2410 -0.2492
18053OCT     C236106  12.586  19.273   0.230 -0.1372 -0.1819  0.1022
18054OCT     C136107   4.844   2.914  23.716 -0.1447 -0.1069 -0.0168
18054OCT     C236108   5.234   2.743  23.597  0.0022  0.1057 -0.1359
18055OCT     C136109   6.447   5.064  22.389 -0.2182 -0.0664  0.7547
18055OCT     C236110   6.878   4.906  22.394 -0.1104  0.2221  0.0441
18056OCT     C136111  21.897   5.143   8.132  0.4453  0.0398 -0.0995
18056OCT     C236112  21.813   5.481   7.902 -0.0733 -0.3706 -0.0276
18057OCT     C136113  10.486   0.120  12.309 -0.4166  0.0379 -0.2121
18057OCT     C236114  10.299   0.275  11.907  0.1813 -0.3706  0.2448
18058OCT     C136115  11.503   9.522   3.942  0.0954  0.0322 -0.0291
18058OCT     C236116  11.335   9.136   3.910 -0.2010 -0.0162 -0.1819
18059OCT     C136117  11.438  15.558  19.053  0.2234 -0.1456  0.3174
18059OCT     C236118  11.066  15.405  19.265  0.1988 -0.0726  0.1953
18060OCT     C136119   4.748   6.797   0.660  0.3758 -0.2700  0.2113
18060OCT     C236120   4.583   6.390   0.736 -0.0388  0.1399  0.2876
18061OCT     C136121  13.073  13.142  18.057 -0.2607 -0.2944 -0.0179
18061OCT     C236122  12.860  12.794  17.777  0.1361  0.1952  0.0949
18062OCT     C136123   9.211   0.432  21.085  0.0982  0.2344 -0.1969
18062OCT     C236124   9.468   0.526  20.709 -0.2547 -0.3681  0.0889
18063OCT     C136125  10.509  12.919  14.350  0.1019  0.2079  0.0598
18063OCT     C236126  10.491  13.394  14.396 -0.1370 -0.0427  0.3328
18064OCT     C136127  15.345   5.825   3.479 -0.1981  0.1419  0.3239
18064OCT     C236128  14.899   5.848   3.673  0.1182  0.1799  0.2557
18065OCT     C136129   1.532   9.605  11.978  0.3201  0.1221 -0.0842
18065OCT     C236130   1.244   9.426  11.622 -0.0090 -0.1724 -0.0466
18066OCT     C136131  10.419  14.637   5.113 -0.1641  0.2448  0.1965
18066OCT     C236132  10.263  14.234   5.234 -0.0597 -0.0162 -0.3503
18067OCT     C136133  15.500  13.025  21.470  0.1136  0.2845  0.0508
18067OCT     C236134  15.406  13.406  21.720 -0.2938  0.0033 -0.2714
18068OCT     C136135  13.541  19.029  20.393  0.1245  0.1901 -0.2136
18068OCT     C236136  13.406  19.029  19.991  0.0345  0.0094  0.1364
18069OCT     C136137  11.112  20.508  23.057 -0.2383 -0.2301 -0.2306
18069OCT     C236138  10.751  20.844  23.184  0.1556 -0.0893  0.2606
18070OCT     C136139   1.180   5.252  22.400  0.0477  0.1700  0.2219
18070OCT     C236140   1.386   4.865  22.200  0.1959 -0.0122 -0.0856
18071OCT     C136141  14.474   7.196   0.838 -0.0870 -0.2081  0.1611
18071OCT     C236142  14.702   6.786   0.712 -0.1731 -0.1426 -0.1659
18072OCT     C136143  20.504   7.658  10.981 -0.0766 -0.3247 -0.0382
18072OCT     C236144  20.604   7.704  11.441 -0.3228 -0.0129  0.3810
18073OCT     C136145  19.952  13.534   0.464 -0.0570  0.3878  0.0514
18073OCT     C236146  20.254  13.250   0.625  0.0061  0.3596  0.1587
18074OCT     C136147   0.900   4.981   1.027  0.1775 -0.3629  0.0985
18074OCT     C236148   0.913   4.738   0.603 -0.2680  0.0290  0.0597
18075OCT     C136149  15.373  17.438   3.960  0.0454 -0.2822 -0.2845
18075OCT     C236150  15.290  17.478   4.382  0.2474 -0.0259 -0.1164
18076OCT     C136151   8.016   7.451   9.444  0.1876  0.4739  0.0093
18076OCT     C236152   7.575   7.272   9.376  0.1681  0.4760  0.0685
18077OCT     C136153  20.706   1.185   5.294 -0.3099  0.2668 -0.2321
18077OCT     C236154  20.803   0.867   4.979  0.0116  0.0476  0.1488
18078OCT     C136155  15.011   3.295   7.548 -0.0434  0.1507  0.0936
18078OCT     C236156  15.399   3.089   7.593 -0.0538  0.0800 -0.1329
18079OCT     C136157  15.870  10.852  10.373  0.0528  0.0780  0.2557
18079OCT     C236158  15.994  11.237  10.612 -0.0378 -0.0530  0.1282
18080OCT     C136159  19.670  11.806  13.956 -0.2269  0.0032  0.0077
18080OCT     C236160  19.650  11.417  14.128 -0.2450  0.2759  0.1669
18081OCT     C136161  14.347  15.949   4.279  0.2261 -0.1766 -0.0396
18081OCT     C236162  14.562  16.265   4.010 -0.3514 -0.0815 -0.1092
18082OCT     C136163  17.824   9.519  21.549 -0.1505  0.1650  0.1472
18082OCT     C236164  17.803   9.736  21.991 -0.1917 -0.1046  0.0947
18083OCT     C136165  21.422   1.774  17.015 -0.1045 -0.0165 -0.0933
18083OCT     C236166  20.954   1.859  16.845  0.2486 -0.0085 -0.0530
18084OCT     C136167   8.014  11.516  23.723 -0.1826  0.2922  0.0257
18084OCT     C236168   8.402  11.687  23.504  0.2373 -0.3823 -0.2862
18085OCT     C136169   5.296   5.274  10.900  0.0284 -0.0706 -0.0679
18085OCT     C236170   5.690   5.402  10.706 -0.0260 -0.2911  0.1130
18086OCT     C136171  23.584  14.760  18.681  0.0004  0.2085 -0.0193
18086OCT     C236172   0.281  14.948  18.674  0.0963 -0.1754  0.2757
18087OCT     C136173   3.060   3.048   6.466 -0.0247  0.2241 -0.1537
18087OCT     C236174   2.603   3.147   6.296  0.0328 -0.2732 -0.3760
18088OCT     C136175  20.599  17.844   7.238  0.1095  0.1351 -0.0094
18088OCT     C236176  20.189  17.686   7.369 -0.1317 -0.2224  0.6511
18089OCT     C136177   7.564  12.621  14.606  0.0080 -0.0528 -0.0891
18089OCT     C236178   7.423  12.431  15.001  0.1501 -0.0270 -0.1765
18090OCT     C136179   7.525  12.090  20.462  0.2344 -0.0787  0.2147
18090OCT     C236180   7.380  12.475  20.743  0.4293  0.2361  0.0207
18091OCT     C136181  18.437   3.856  16.589  0.0564 -0.1047 -0.2453
18091OCT     C236182  18.225   3.415  16.688  0.0169  0.3877 -0.2018
18092OCT     C136183   7.774  20.653   9.255  0.0875  0.0185  0.0850
18092OCT     C236184   7.945  20.982   9.573 -0.1104  0.3220  0.5331
18093OCT     C136185   5.999   1.570  21.783 -0.0118  0.4474  0.0543
18093OCT     C236186   5.919   1.184  21.997 -0.0059 -0.2626 -0.0659
18094OCT     C136187  19.310   6.506  18.579  0.0390  0.0458  0.0256
18094OCT     C236188  19.426   6.890  18.785 -0.2210  0.0105 -0.1825
18095OCT     C136189  13.580   1.126  18.711 -0.4486  0.0569  0.2557
18095OCT     C236190  13.882   0.706  18.789  0.2873 -0.2539  0.0622
18096OCT     C136191   9.928  18.639  13.288  0.2043  0.4711  0.3124
18096OCT     C236192  10.253  18.904  13.291  0.0220 -0.0027 -0.0153
18097OCT     C136193  10.139   9.478  18.698  0.1677 -0.1676 -0.3253
18097OCT     C236194  10.263   9.399  18.280 -0.2433 -0.2455 -0.2979
18098OCT     C136195   4.146   2.576  17.500 -0.2788 -0.1604  0.1665
18098OCT     C236196   3.863   2.697  17.183  0.0422 -0.0439 -0.3494
18099OCT     C136197   9.168  16.764  17.485  0.0200 -0.0495 -0.0035
18099OCT     C236198   9.317  16.855  17.029 -0.0239  0.2180  0.0227
18100OCT     C136199  13.274  21.744  14.528 -0.0439 -0.2282 -0.3740
18100OCT     C236200  13.292  21.678  14.044  0.0911 -0.2003 -0.0655
18101OCT     C136201  16.702  16.136   7.393  0.1399 -0.1836 -0.0501
18101OCT     C236202  16.585  16.015   6.962  0.4308  0.0916  0.2595
18102OCT     C136203   1.340   7.779  15.301  0.3554  0.0889 -0.3142
18102OCT     C236204   0.968   7.507  15.189 -0.2762 -0.0242  0.0959
18103OCT     C136205   5.979   7.332   5.845  0.2782 -0.0630 -0.4392
18103OCT     C236206   6.328   7.351   5.523  0.2198 -0.0802  0.2253
18104OCT     C136207  21.827  21.029  13.252  0.2010  0.2718  0.3112
18104OCT     C236208  21.947  20.937  13.714  0.0743  0.1260  0.1948
18105OCT     C136209  10.650  17.791  10.463 -0.1821  0.0623  0.5671
18105OCT     C236210  10.403  17.717  10.842 -0.4523 -0.1776  0.0347
18106OCT     C136211   4.293   7.056   0.398  0.1340  0.3012  0.3372
18106OCT     C236212   4.236   6.623   0.493 -0.0899 -0.1721 -0.0158
18107OCT     C136213  14.944  19.461  14.185 -0.0252  0.2435  0.0803
18107OCT     C236214  14.588  19.201  14.097 -0.2796 -0.3220  0.2417
18108OCT     C136215  13.966  16.396  21.537 -0.1394  0.1137  0.0253
18108OCT     C236216  14.199  15.985  21.553 -0.5889  0.2463 -0.3496
18109OCT     C136217  19.659   3.058   0.347  0.1138 -0.3335  0.2320
18109OCT     C236218  20.037   2.846   0.505  0.1690  0.0598 -0.0544
18110OCT     C136219   7.298  18.023  20.123  0.0370 -0.1897  0.0501
18110OCT     C236220   7.680  17.849  20.433 -0.0585  0.1599 -0.3005
18111OCT     C136221   5.016   0.708  17.149  0.0993  0.1932 -0.0791
18111OCT     C236222   4.896   1.014  17.523 -0.4952  0.0511  0.0081
18112OCT     C136223  19.798   7.128  10.842 -0.2494  0.2423 -0.0499
18112OCT     C236224  20.120   7.429  10.707  0.0029  0.0888 -0.1188
18113OCT     C136225   5.526   8.932  22.209 -0.2388  0.0793 -0.2145
18113OCT     C236226   5.817   9.176  21.894 -0.1715 -0.1936  0.1143
18114OCT     C136227  16.829  13.005  23.150  0.2684  0.0893  0.2217
18114OCT     C236228  16.982  12.564  23.027  0.0744 -0.0673  0.3246
18115OCT     C136229   4.546   9.999   0.778  0.0199 -0.2654  0.0393
18115OCT     C236230   4.596   9.518   0.782 -0.0525 -0.2702 -0.0261
18116OCT     C136231  14.702  20.697   0.616 -0.1049  0.1272 -0.0045
18116OCT     C236232  15.137  20.756   0.499  0.0316 -0.0960 -0.2109
18117OCT     C136233  14.813  19.009   6.954 -0.0634  0.2082  0.2644
18117OCT     C236234  14.657  19.434   7.086  0.0945  0.2715 -0.1339
18118OCT     C136235   1.083   8.064  12.988 -0.1084  0.1248 -0.4732
18118OCT     C236236   1.437   7.805  12.875  0.4405  0.2348  0.2146
18119OCT     C136237  19.387  18.675  12.245 -0.1474 -0.3553 -0.0731
18119OCT     C236238  19.281  18.792  11.800  0.2600  0.0018 -0.2333
18120OCT     C136239   0.691  22.265  22.795  0.1134  0.1788  0.0189
18120OCT     C236240   1.006  22.143  23.100 -0.3316  0.0453  0.2769
18121OCT     C136241  22.893   6.045   8.941  0.2192  0.6071  0.3032
18121OCT     C236242  22.888   5.667   8.649  0.1899 -0.1050 -0.0742
18122OCT     C136243   2.062  16.393   0.302  0.2328  0.2513 -0.0995
18122OCT     C236244   2.052  16.018   0.515 -0.1260  0.2159  0.0374
18123OCT     C136245   8.118   5.481  22.433 -0.1366 -0.3049 -0.2285
18123OCT     C236246   7.970   5.591  22.871 -0.2095 -0.0099  0.1578
18124OCT     C136247  20.747   8.147  22.619  0.0279 -0.1039  0.1216
18124OCT     C236248  21.077   7.895  22.842  0.2805 -0.0567 -0.0543
18125OCT     C136249  14.588   3.923   6.260 -0.1144  0.2207  0.3271
18125OCT     C236250  14.609   4.238   5.932  0.0825  0.1000  0.0145
18126OCT     C136251   2.907   6.999   3.066 -0.2907 -0.1733  0.0867
18126OCT     C236252   2.697   7.364   2.917 -0.1071 -0.2800  0.1837
18127OCT     C136253  18.599   9.788   4.767 -0.1155 -0.1982 -0.1144
18127OCT     C236254  18.954   9.523   4.991  0.1373  0.1068  0.0635
18128OCT     C136255   1.228  19.717  18.867  0.1328  0.0855 -0.0447
18128OCT     C236256   1.500  19.954  18.635 -0.1658  0.1289  0.3404
18129OCT     C136257   4.346  19.728   8.325 -0.0724 -0.1330 -0.2110
18129OCT     C236258   4.100  19.776   7.959 -0.1836  0.0371 -0.0770
18130OCT     C136259  11.460  12.954  23.356 -0.0960  0.1969  0.2804
18130OCT     C236260  11.276  12.812  22.904  0.2801 -0.0882 -0.2788
18131OCT     C136261  17.970  13.513  23.400 -0.0718 -0.0197  0.1300
18131OCT     C236262  17.630  13.461  23.111 -0.0871 -0.0570 -0.0977
18132OCT     C136263  17.371  12.644   1.846 -0.1278 -0.5276 -0.2789
18132OCT     C236264  17.300  13.099   1.942  0.2027  0.1522  0.3007
18133OCT     C136265   5.764   8.884   6.801 -0.2489  0.3846 -0.2819
18133OCT     C236266   5.920   8.768   6.404 -0.3171  0.2763 -0.0756
18134OCT     C136267   7.686  14.014   3.005  0.1944 -0.0541 -0.1478
18134OCT     C236268   7.613  13.886   3.438  0.2946  0.2544 -0.0898
18135OCT     C136269   7.819  12.866  18.517  0.0301 -0.1508  0.0357
18135OCT     C236270   8.068  12.749  18.146  0.1189 -0.0164  0.0289
18136OCT     C136271  20.084   7.107  13.549 -0.2546 -0.1348  0.2313
18136OCT     C236272  20.433   6.893  13.290  0.0350 -0.2155 -0.2068
18137OCT     C136273  14.662  11.955   8.931  0.0579  0.1183  0.1313
18137OCT     C236274  14.247  12.007   8.612 -0.2148  0.1889 -0.1924
18138OCT     C136275  17.902  23.594  16.578 -0.3725  0.0093 -0.0112
18138OCT     C236276  17.823  23.292  16.183 -0.1268  0.0687  0.1474
18139OCT     C136277  10.397  16.494   3.251 -0.0201  0.2207 -0.2945
18139OCT     C236278  10.513  16.053   3.143  0.0278  0.2820  0.1839
18140OCT     C136279   3.574  16.705  19.077 -0.1115  0.0792 -0.4553
18140OCT     C236280   3.271  16.558  19.428  0.1239  0.1720  0.1921
18141OCT     C136281  11.344  17.992  15.627 -0.0808  0.0768 -0.2621
18141OCT     C236282  11.303  18.478  15.682  0.2443  0.0456  0.3052
18142OCT     C136283  16.281  19.937   3.980 -0.2612 -0.0926 -0.0260
18142OCT     C236284  16.330  20.324   4.256 -0.2438  0.2016 -0.0159
18143OCT     C136285   9.289  18.444  20.384 -0.0425  0.0910  0.1091
18143OCT     C236286   9.018  18.091  20.261  0.1428  0.0783  0.2164
18144OCT     C136287   8.667  14.296   7.554 -0.0429 -0.3447 -0.1731
18144OCT     C236288   9.098  14.330   7.597 -0.1681  0.0639 -0.0872
18145OCT     C136289  17.230  17.031  21.220  0.3961  0.0570 -0.1403
18145OCT     C236290  16.750  16.961  21.215 -0.0259  0.0960 -0.3417
18146OCT     C136291  10.404   7.061   1.446  0.2023  0.2945 -0.1491
18146OCT     C236292  10.468   6.698   1.710  0.2655  0.4789  0.1096
18147OCT     C136293   1.169  15.216  10.536 -0.0040 -0.1989  0.0705
18147OCT     C236294   0.846  14.886  10.494  0.3770 -0.3981 -0.0124
18148OCT     C136295   9.975  22.678   0.576  0.3173  0.0770  0.0247
18148OCT     C236296  10.396  22.769   0.802  0.0987 -0.3456 -0.0771
18149OCT     C136297   6.346  20.638   2.985 -0.2013  0.0657  0.0496
18149OCT     C236298   6.640  20.274   2.866  0.2691 -0.0203  0.2894
18150OCT     C136299   0.364  20.901   0.102 -0.0488 -0.0756  0.0392
18150OCT     C236300   0.063  21.221  23.712  0.0947  0.1224 -0.1167
18151OCT     C136301   5.794   2.525  11.610 -0.1273  0.0000 -0.1149
18151OCT     C236302   5.508   2.238  11.799 -0.1145 -0.3440  0.2968
18152OCT     C136303   8.989   6.387  14.674 -0.4833 -0.1375 -0.0626
18152OCT     C236304   9.048   6.745  14.931  0.0924  0.0708  0.2516
18153OCT     C136305  23.244  22.945   1.799 -0.1654  0.1813 -0.1417
18153OCT     C236306  23.451  23.254   1.547  0.1168  0.3609  0.0279
18154OCT     C136307   5.846   2.412  16.311  0.2263 -0.1309 -0.1958
18154OCT     C236308   5.426   2.318  16.475 -0.2506 -0.2768 -0.0304
18155OCT     C136309   8.090  16.425   2.334  0.1519  0.2656  0.0224
18155OCT     C236310   8.278  16.419   1.914 -0.3131 -0.0933 -0.2423
18156OCT     C136311  20.714   1.798   8.740  0.2074 -0.0341 -0.2832
18156OCT     C236312  20.630   1.393   8.474  0.2463  0.0452  0.1674
18157OCT     C136313  16.620   6.149   4.720 -0.0859  0.1846 -0.0961
18157OCT     C236314  16.532   6.593   4.822 -0.0585  0.2052 -0.2816
18158OCT     C136315   0.440  23.721  23.037  0.0552  0.0910  0.0341
18158OCT     C236316   0.193   0.102  23.391  0.2794  0.0506 -0.3446
18159OCT     C136317  11.910  21.699  10.925  0.3940  0.1615 -0.0447
18159OCT     C236318  11.900  21.793  11.407 -0.3651 -0.0535 -0.3323
18160OCT     C136319  20.860   1.892   1.982  0.3239  0.0648  0.0855
18160OCT     C236320  21.065   1.674   2.321 -0.3951  0.1303  0.0006
18161OCT     C136321  19.789   4.123  20.177 -0.2256  0.1206 -0.4521
18161OCT     C236322  19.403   4.298  20.369 -0.0154  0.2057  0.3426
18162OCT     C136323  16.881   1.102  21.710 -0.1105  0.1197  0.0052
18162OCT     C236324  16.528   1.357  21.523  0.0758  0.2474 -0.2936
18163OCT     C136325  22.736  18.116  13.537  0.1810  0.5441  0.2189
18163OCT     C236326  22.441  18.409  13.349 -0.1871 -0.3693  0.0017
18164OCT     C136327  15.210  17.880  16.085  0.0494 -0.5665 -0.2110
18164OCT     C236328  14.986  17.485  16.056  0.1234 -0.1326 -0.3212
18165OCT     C136329   5.202  16.474  13.772 -0.2321 -0.2866  0.1869
18165OCT     C236330   5.404  16.637  13.382 -0.4731 -0.0015 -0.2622
18166OCT     C136331   6.599  18.036   5.585  0.1549  0.2687  0.1358
18166OCT     C236332   6.745  18.023   6.070  0.2735  0.1422  0.0511
18167OCT     C136333   7.344  18.395   8.831  0.3682 -0.2090 -0.4107
18167OCT     C236334   7.717  18.612   9.052  0.2401 -0.1519  0.0408
18168OCT     C136335   7.196  18.386   1.610 -0.3919 -0.1104 -0.3575
18168OCT     C236336   6.765  18.280   1.378  0.0595  0.1832 -0.0010
18169OCT     C136337   3.373   6.900  15.585 -0.1485  0.0191  0.0728
18169OCT     C236338   3.774   6.648  15.676 -0.1749  0.2003 -0.1342
18170OCT     C136339  18.445  11.389  21.077  0.3240  0.1614  0.0249
18170OCT     C236340  18.797  11.537  21.290  0.0088 -0.1696  0.2824
18171OCT     C136341  10.165  11.286   9.205 -0.1296 -0.3129 -0.0984
18171OCT     C236342  10.576  10.994   9.152 -0.0105  0.1470 -0.1027
18172OCT     C136343  10.537  10.535   0.385  0.3359  0.1690  0.3823
18172OCT     C236344  10.150  10.399   0.565  0.0871  0.1158  0.2637
18173OCT     C136345  16.155  12.037   9.609  0.1973 -0.2032  0.2164
18173OCT     C236346  16.409  12.277   9.904 -0.0904  0.0781 -0.1977
18174OCT     C136347  14.265  17.291  20.875  0.0320  0.0163  0.0892
18174OCT     C236348  14.379  16.857  20.697  0.2217  0.3224  0.1195
18175OCT     C136349   4.270   3.454   7.863 -0.0730 -0.0506 -0.0090
18175OCT     C236350   4.440   3.069   7.951  0.0625 -0.1599  0.0007
18176OCT     C136351  12.416  11.678  15.101  0.2028 -0.1341 -0.0283
18176OCT     C236352  12.146  11.580  14.700 -0.0660 -0.4055 -0.0453
18177OCT     C136353   8.341   8.792  20.055 -0.1085 -0.3208  0.0813
18177OCT     C236354   8.666   8.789  20.410  0.0796  0.3789 -0.1261
18178OCT     C136355   3.870   6.466  12.649 -0.0863  0.0690  0.3458
18178OCT     C236356   3.613   6.220  12.280  0.0002  0.0040  0.0611
18179OCT     C136357   8.238  10.315  12.591 -0.3108  0.1690  0.0004
18179OCT     C236358   8.533  10.008  12.673  0.0190 -0.2532 -0.1619
18180OCT     C136359  16.490  11.137   9.377 -0.5110 -0.2633  0.1586
18180OCT     C236360  16.149  11.031   9.704 -0.1251  0.0917  0.1815
18181OCT     C136361   3.655   5.573  17.190  0.3068  0.0998  0.4528
18181OCT     C236362   3.697   5.373  17.672 -0.0437 -0.1967  0.0652
18182OCT     C136363   1.927   4.829   3.842 -0.3892 -0.1248  0.4741
18182OCT     C236364   1.735   4.703   4.295 -0.4621 -0.4502  0.3108
18183OCT     C136365   1.081   5.754  23.343 -0.5865 -0.2469 -0.1460
18183OCT     C236366   1.575   5.896  23.289  0.0688  0.2599 -0.0763
18184OCT     C136367   6.417   5.045  15.836 -0.4285  0.1077  0.0630
18184OCT     C236368   6.494   5.270  16.274  0.0576  0.0434 -0.1142
18185OCT     C136369   4.556   5.812  17.757  0.1728  0.0744 -0.2604
18185OCT     C236370   4.970   6.018  17.767  0.2670  0.0234 -0.1240
18186OCT     C136371  13.966   6.906   1.479 -0.0213  0.0223  0.3244
18186OCT     C236372  13.556   6.728   1.666 -0.1786  0.2634 -0.0240
18187OCT     C136373  11.639   4.009  19.959  0.0864 -0.0291  0.1937
18187OCT     C236374  11.248   4.267  19.845  0.0703  0.0533  0.1459
18188OCT     C136375  20.347  12.693  20.348  0.1004  0.2337  0.4979
18188OCT     C236376  20.716  12.599  20.567  0.0457 -0.0015  0.1239
18189OCT     C136377  12.292  11.866  16.323  0.1605  0.0269  0.0600
18189OCT     C236378  12.323  11.974  15.899 -0.1722 -0.3527  0.4050
18190OCT     C136379   9.033   0.932  15.356 -0.0577  0.0658  0.0347
18190OCT     C236380   9.336   0.553  15.418 -0.3090  0.0180 -0.1701
18191OCT     C136381  13.997  16.539   0.850  0.2363 -0.1181  0.0219
18191OCT     C236382  13.825  16.951   0.669 -0.1435  0.2110 -0.3641
18192OCT     C136383   1.363  18.972  14.794 -0.1432  0.2327 -0.2454
18192OCT     C236384   1.503  18.542  14.920 -0.2741  0.2479  0.1299
18193OCT     C136385   8.119   2.600  17.438 -0.0456  0.2705  0.0414
18193OCT     C236386   8.220   3.033  17.604  0.4259 -0.1689 -0.0662
18194OCT     C136387  20.442  23.403  14.872 -0.3338 -0.1855  0.0481
18194OCT     C236388  20.306  22.977  14.743  0.0691 -0.0421 -0.0688
18195OCT     C136389   7.069  13.740  14.051  0.0559 -0.0561  0.2017
18195OCT     C236390   6.589  13.796  14.101 -0.1441 -0.3294  0.1352
18196OCT     C136391   2.653  15.188   2.026 -0.0826  0.0877 -0.1210
18196OCT     C236392   2.983  14.927   1.841 -0.4232  0.0005 -0.1863
18197OCT     C136393  19.933  20.543  21.314 -0.2944 -0.0389  0.0024
18197OCT     C236394  20.352  20.701  21.263 -0.1121 -0.2253 -0.2483
18198OCT     C136395   6.205  15.660  12.167  0.1262  0.0155  0.0938
18198OCT     C236396   6.552  15.760  11.849  0.2322 -0.0493 -0.2011
18199OCT     C136397   7.778  17.817  16.876 -0.5134 -0.2170 -0.5038
18199OCT     C236398   7.934  17.357  16.816  0.1835 -0.2016  0.2490
18200OCT     C136399  18.887  11.260  16.792 -0.1900  0.3650  0.0833
18200OCT     C236400  18.880  11.087  16.371 -0.4217  0.2414 -0.1106
18201OCT     C136401   2.836  18.560  11.778 -0.1244  0.0885  0.1859
18201OCT     C236402   2.434  18.515  11.611 -0.0144 -0.2657 -0.0322
18202OCT     C136403  22.828  13.023  19.869 -0.2908 -0.2917  0.0764
18202OCT     C236404  22.751  13.279  19.508  0.2428 -0.0570 -0.1997
18203OCT     C136405  15.621  20.419  14.443 -0.1990 -0.0267  0.1233
18203OCT     C236406  15.864  20.805  14.403  0.2739 -0.1200  0.4263
18204OCT     C136407  12.562  18.117   9.234 -0.3686  0.1854 -0.0962
18204OCT     C236408  12.558  17.825   9.606  0.6678 -0.1345 -0.1278
18205OCT     C136409  10.449  23.577   2.791 -0.1601 -0.1379  0.2355
18205OCT     C236410  10.026   0.023   2.863  0.2240  0.5014  0.2859
18206OCT     C136411   8.554   3.314  13.705 -0.0726 -0.1063  0.1594
18206OCT     C236412   8.699   3.757  13.753 -0.1022 -0.2814  0.0099
18207OCT     C136413  17.588  12.287  21.987 -0.0038 -0.0565  0.3332
18207OCT     C236414  17.267  12.423  22.258 -0.0685 -0.0214 -0.0208
18208OCT     C136415   6.534   4.442  18.080  0.2199 -0.1203 -0.1265
18208OCT     C236416   6.889   4.488  17.804  0.2109  0.1457 -0.1239
18209OCT     C136417  19.243   6.422   6.425 -0.2552  0.0778  0.1198
18209OCT     C236418  19.542   6.812   6.432 -0.0754 -0.4977  0.1156
18210OCT     C136419   7.981  20.088  19.108  0.1768 -0.4371 -0.1458
18210OCT     C236420   7.553  20.073  19.013 -0.1707 -0.0156  0.1372
18211OCT     C136421   1.884  17.061  17.592 -0.1518  0.2595  0.1556
18211OCT     C236422   1.773  16.714  17.880  0.3094 -0.0174  0.0106
18212OCT     C136423  22.186   8.342   4.678  0.2519  0.2612 -0.1735
18212OCT     C236424  22.509   8.450   4.333 -0.2820 -0.1361  0.4177
18213OCT     C136425  14.089   9.520   5.992 -0.1918 -0.1582  0.0237
18213OCT     C236426  13.659   9.737   5.855 -0.1906 -0.2275  0.0984
18214OCT     C136427   7.315  12.548  10.020  0.0224  0.1235  0.1274
18214OCT     C236428   7.283  12.286  10.412 -0.1496  0.0896  0.2197
18215OCT     C136429   5.792  14.759   1.878  0.0982 -0.1633 -0.2039
18215OCT     C236430   5.683  14.770   2.298  0.1863  0.0858  0.0582
18216OCT     C136431   5.543   7.016   5.844  0.1002  0.0075  0.0435
18216OCT     C236432   5.298   6.856   6.177 -0.1792  0.1101 -0.2200
18217OCT     C136433   7.861   6.288   9.518  0.1991 -0.3628 -0.0486
18217OCT     C236434   7.441   6.278   9.287 -0.1846 -0.0790  0.3424
18218OCT     C136435  15.333  13.338  15.889  0.0667 -0.1144 -0.2201
18218OCT     C236436  15.750  13.541  16.071  0.1443 -0.1384 -0.0342
18219OCT     C136437   0.028  22.665  23.046 -0.0629 -0.0330  0.2810
18219OCT     C236438  23.686  22.488  23.414  0.2070  0.0378  0.0999
18220OCT     C136439  14.891  23.175   0.717 -0.0271 -0.0333  0.0668
18220OCT     C236440  14.439  23.051   0.931  0.3229  0.4301  0.1603
18221OCT     C136441  20.136  22.863  17.607  0.3018  0.0927  0.2194
18221OCT     C236442  20.021  22.578  17.996 -0.1132 -0.1104  0.0708
18222OCT     C136443  13.324   0.028  10.434  0.0384  0.1456 -0.2901
18222OCT     C236444  13.506   0.389  10.211 -0.0947  0.0297 -0.0721
18223OCT     C136445   4.915   1.204  11.877  0.0064 -0.1444 -0.0068
18223OCT     C236446   4.785   1.568  11.579  0.1900 -0.4046  0.0970
18224OCT     C136447   4.968   9.888   9.317 -0.1883 -0.6233 -0.0214
18224OCT     C236448   5.066   9.414   9.396 -0.0919 -0.0759  0.0947
18225OCT     C136449   5.567   2.639  14.076 -0.2454  0.0278  0.1002
18225OCT     C236450   5.918   2.573  14.376  0.1791 -0.1876 -0.0384
18226OCT     C136451   4.464  14.930  15.720 -0.0163 -0.3767  0.1019
18226OCT     C236452   4.425  14.470  15.695 -0.2322  0.1072  0.1472
18227OCT     C136453   7.946  20.654   8.398 -0.1992  0.1192  0.0750
18227OCT     C236454   7.620  20.453   8.155  0.0315 -0.0674 -0.0499
18228OCT     C136455   8.231  12.779   0.200  0.0316  0.2702  0.3372
18228OCT     C236456   7.807  12.561   0.114  0.2706 -0.0349  0.1599
18229OCT     C136457  21.817  16.480   3.640  0.1901  0.0528  0.2461
18229OCT     C236458  22.201  16.491   3.902  0.0477 -0.2588 -0.1868
18230OCT     C136459  22.581  15.706   1.841  0.1377 -0.0365  0.0645
18230OCT     C236460  22.474  15.292   2.085  0.0167  0.1540  0.2245
18231OCT     C136461   0.932  22.537  11.204 -0.0956  0.1255 -0.0275
18231OCT     C236462   0.672  22.272  11.491  0.0188  0.0463  0.0409
18232OCT     C136463   3.846   4.040   5.784 -0.0499  0.1798  0.2129
18232OCT     C236464   3.840   4.296   5.461 -0.1216 -0.2935 -0.3096
18233OCT     C136465   5.462   1.457  13.958 -0.1571 -0.0714 -0.0015
18233OCT     C236466   5.873   1.318  13.762 -0.4094 -0.1888 -0.3223
18234OCT     C136467   6.378  23.608   8.806  0.2311  0.2123 -0.0962
18234OCT     C236468   6.427   0.317   8.854  0.0789 -0.1137  0.1029
18235OCT     C136469  11.540   6.063   7.865  0.2725 -0.2699 -0.1961
18235OCT     C236470  11.047   6.053   8.044 -0.0148  0.2042  0.0940
18236OCT     C136471   4.684   2.631   1.430 -0.1064 -0.0559 -0.0909
18236OCT     C236472   4.272   2.396   1.534 -0.0471  0.1313 -0.1051
18237OCT     C136473  12.503   6.673  18.869 -0.1952 -0.1709 -0.0406
18237OCT     C236474  12.378   6.345  19.140  0.3050  0.3368  0.0846
18238OCT     C136475  16.986   2.802   6.751  0.1530  0.2417 -0.2891
18238OCT     C236476  16.719   2.564   6.496  0.2545  0.1854  0.1212
18239OCT     C136477   7.875  20.878  18.319 -0.0960  0.4277  0.2228
18239OCT     C236478   7.435  20.795  18.272 -0.0159  0.1504 -0.2209
18240OCT     C136479  23.664   2.444  23.195 -0.1580  0.3329  0.2384
18240OCT     C236480  23.408   2.079  23.056 -0.1081 -0.0674 -0.2854
18241OCT     C136481  15.155   0.785  21.359 -0.1591  0.2507  0.1469
18241OCT     C236482  15.128   0.405  21.179  0.1607  0.0812 -0.4158
18242OCT     C136483  17.197  18.330  11.956 -0.0194  0.2916 -0.1223
18242OCT     C236484  16.784  18.630  11.878 -0.3696 -0.1018 -0.0612
18243OCT     C136485   7.664   6.968   3.222  0.0879  0.2209 -0.0990
18243OCT     C236486   7.204   7.141   3.289 -0.0317 -0.0311 -0.2175
18244OCT     C136487   2.566  19.705   9.840 -0.3764  0.3776  0.1181
18244OCT     C236488   2.772  19.700   9.458 -0.0186 -0.1099 -0.1841
18245OCT     C136489  23.580   0.278   5.566  0.2703 -0.0430  0.1623
18245OCT     C236490   0.145   0.486   5.305  0.3781  0.2433 -0.1287
18246OCT     C136491  15.285  21.278  11.534  0.1513 -0.0218  0.1200
18246OCT     C236492  15.012  21.527  11.705  0.3481 -0.1050 -0.1176
18247OCT     C136493   1.378   8.344   8.307 -0.0247 -0.2890  0.3263
18247OCT     C236494   1.843   8.515   8.232 -0.1756 -0.1880  0.0931
18248OCT     C136495  17.851  13.890  12.498  0.2585 -0.1591  0.0100
18248OCT     C236496  17.414  13.967  12.703  0.1114 -0.0229 -0.4223
18249OCT     C136497   1.358  13.135   3.598 -0.0699 -0.1893  0.0563
18249OCT     C236498   1.410  13.150   4.052 -0.1419  0.2247  0.0128
18250OCT     C136499   8.421   6.623  19.602  0.3878 -0.0982  0.0916
18250OCT     C236500   8.480   6.342  19.955  0.0497  0.3654 -0.1789
18251OCT     C136501   1.214  23.733   1.959 -0.0584 -0.0097  0.4731
18251OCT     C236502   0.846  23.564   2.213 -0.0780  0.0820 -0.2037
18252OCT     C136503  13.023  13.695   4.713  0.0307  0.0310  0.1797
18252OCT     C236504  13.157  13.836   5.122 -0.1755  0.1775  0.2906
18253OCT     C136505  14.591  16.074   1.624 -0.2484  0.1921 -0.0629
18253OCT     C236506  14.502  15.651   1.815  0.1191  0.0368 -0.1369
18254OCT     C136507  21.209   1.723   4.188 -0.1365 -0.0112  0.2327
18254OCT     C236508  21.023   1.441   4.501 -0.1148  0.3076 -0.1077
18255OCT     C136509   9.292  12.978   5.934 -0.2086 -0.1327 -0.1950
18255OCT     C236510   8.888  12.676   5.907 -0.3264 -0.0462 -0.5129
18256OCT     C136511  21.041   3.133  13.839  0.1400 -0.1645 -0.1459
18256OCT     C236512  21.087   2.862  13.429  0.1026 -0.0603  0.1914
18257OCT     C136513   5.315  10.180  17.064  0.1196 -0.2363 -0.5461
18257OCT     C236514   5.710  10.294  17.254 -0.2013 -0.2129 -0.2625
18258OCT     C136515  18.919  22.652   8.358 -0.1485 -0.3230  0.0803
18258OCT     C236516  18.823  22.857   8.732  0.2085  0.0212  0.0166
18259OCT     C136517  19.812  10.886   6.778  0.0428 -0.1310 -0.3851
18259OCT     C236518  19.380  10.710   6.906  0.1523 -0.0776  0.1464
18260OCT     C136519   5.671  19.530   4.662  0.2951 -0.3305 -0.1627
18260OCT     C236520   5.870  19.327   5.022 -0.0402 -0.0518  0.4499
18261OCT     C136521   4.329  21.471  20.094  0.1836 -0.0140  0.1766
18261OCT     C236522   4.523  21.525  19.672  0.3721  0.1242 -0.2078
18262OCT     C136523   8.922  20.316  17.233  0.3534 -0.0896 -0.0160
18262OCT     C236524   9.271  19.989  17.202 -0.0696  0.1850 -0.1846
18263OCT     C136525  15.331   4.127   5.988 -0.0233  0.0561  0.0717
18263OCT     C236526  15.014   4.166   6.400 -0.3350  0.2118 -0.2349
18264OCT     C136527  20.233   6.700   3.176 -0.0903  0.1276  0.1539
18264OCT     C236528  20.514   6.563   2.782 -0.1651 -0.3455 -0.1055
18265OCT     C136529  22.228   2.726   8.311  0.4930  0.0771  0.1145
18265OCT     C236530  22.654   2.779   8.039 -0.3623 -0.1968 -0.0690
18266OCT     C136531  14.225  12.603  22.704 -0.1334  0.3375  0.1586
18266OCT     C236532  14.035  12.172  22.572 -0.1747 -0.0245 -0.2320
18267OCT     C136533  16.033   5.742   6.916  0.6878  0.0913 -0.1521
18267OCT     C236534  15.655   5.528   7.086  0.1104 -0.1116  0.0716
18268OCT     C136535  22.979  12.696  16.510  0.2992 -0.1163 -0.0411
18268OCT     C236536  22.759  12.332  16.315 -0.1374  0.0730 -0.2723
18269OCT     C136537   9.534  22.715   7.747 -0.0822 -0.0795  0.2277
18269OCT     C236538   9.811  23.065   7.567 -0.3493 -0.0234  0.3192
18270OCT     C136539   6.035  18.968   5.612 -0.1864  0.2275 -0.0511
18270OCT     C236540   5.915  18.545   5.779  0.2791  0.3378 -0.0004
18271OCT     C136541   3.346   0.533   2.731  0.0469  0.1790 -0.0067
18271OCT     C236542   2.992   0.431   2.979  0.4103 -0.0467 -0.0218
18272OCT     C136543  21.134  22.753  15.416 -0.0890  0.1540 -0.0289
18272OCT     C236544  20.818  23.043  15.267  0.1329  0.2484 -0.1767
18273OCT     C136545   4.743  11.002   1.351 -0.0464 -0.1237 -0.2122
18273OCT     C236546   4.886  10.951   0.899 -0.3248 -0.0668  0.2300
18274OCT     C136547  23.215  12.340  15.906  0.4024 -0.6614  0.0555
18274OCT     C236548  23.012  12.839  16.019  0.2453  0.0790  0.0874
18275OCT     C136549  13.825  14.496  21.825  0.1760  0.2290 -0.1927
18275OCT     C236550  13.601  14.087  21.698  0.4807  0.4984 -0.0723
18276OCT     C136551  12.412   2.716  13.395 -0.0601  0.1200 -0.2614
18276OCT     C236552  12.440   3.043  13.708  0.0888  0.4493  0.2353
18277OCT     C136553  22.791  20.027  17.166 -0.4319  0.2998  0.0124
18277OCT     C236554  22.720  20.314  16.747 -0.0376 -0.1390 -0.2579
18278OCT     C136555  12.933  16.532  18.913  0.2862  0.1497  0.2130
18278OCT     C236556  12.626  16.518  19.286  0.3475  0.2307 -0.0473
18279OCT     C136557  11.926   3.499  12.113 -0.2226 -0.0754 -0.0167
18279OCT     C236558  11.805   3.720  11.757 -0.0473 -0.0743  0.1191
18280OCT     C136559   4.822  10.595  12.766  0.1181  0.0377  0.1653
18280OCT     C236560   5.191  10.286  12.800 -0.4602  0.1532  0.1399
18281OCT     C136561  23.122   5.656   3.797  0.1194 -0.0577 -0.0024
18281OCT     C236562  22.936   5.252   3.675  0.0478 -0.2538 -0.0122
18282OCT     C136563   7.615  19.998  14.168  0.1165 -0.3385  0.2514
18282OCT     C236564   7.749  20.289  13.750 -0.0311 -0.2675 -0.0330
18283OCT     C136565   8.616   5.777   3.550 -0.0784 -0.2728  0.0443
18283OCT     C236566   8.586   6.208   3.665  0.3549 -0.3752  0.1011
18284OCT     C136567   3.445   8.949  14.706  0.2080  0.1297  0.0730
18284OCT     C236568   3.436   9.161  15.117  0.0513  0.0500  0.1091
18285OCT     C136569   8.743   4.204  23.665  0.3368 -0.1463 -0.0271
18285OCT     C236570   8.228   4.252  23.692 -0.3374  0.4097  0.2011
18286OCT     C136571   8.360   1.644  18.256  0.0867 -0.2330  0.1397
18286OCT     C236572   8.549   1.817  18.602 -0.0335 -0.0051 -0.0190
18287OCT     C136573   4.685  21.592  18.646 -0.1589  0.1308 -0.3557
18287OCT     C236574   4.292  21.774  18.860 -0.3639  0.3953  0.1636
18288OCT     C136575  21.942   4.903  19.580 -0.0909  0.2176  0.2098
18288OCT     C236576  21.700   5.259  19.561  0.2749  0.1695  0.1247
18289OCT     C136577   8.255  10.933  22.247  0.2295 -0.1414 -0.0978
18289OCT     C236578   7.961  10.839  22.586 -0.0864  0.1463 -0.0250
18290OCT     C136579  11.251  17.217   3.825 -0.0181 -0.0919 -0.1081
18290OCT     C236580  11.300  16.729   3.697 -0.5241  0.1357 -0.1076
18291OCT     C136581  13.976   3.293   8.656 -0.3436  0.1335  0.0244
18291OCT     C236582  13.941   3.615   8.960  0.1588 -0.0679 -0.0885
18292OCT     C136583   3.552  19.514  15.078  0.2237 -0.2327  0.1606
18292OCT     C236584   3.735  19.859  14.823  0.2875  0.2040  0.4060
18293OCT     C136585  16.038  20.639  18.569 -0.0971  0.2633  0.1728
18293OCT     C236586  15.812  20.798  18.197  0.4391 -0.1558  0.1985
18294OCT     C136587  13.132   9.413   3.622  0.4008 -0.0436  0.0026
18294OCT     C236588  13.254   9.856   3.671  0.1683 -0.2922 -0.0948
18295OCT     C136589  10.046  23.045  14.944  0.0613  0.2610  0.0582
18295OCT     C236590   9.985  22.673  14.591  0.2326  0.0340  0.3216
18296OCT     C136591  12.904  13.001  19.829  0.0347 -0.3954 -0.1430
18296OCT     C236592  12.995  13.001  19.396  0.1815  0.0501  0.2461
18297OCT     C136593  13.363   2.521   4.808  0.2338  0.3455 -0.3380
18297OCT     C236594  13.538   2.280   5.164  0.3250  0.1197 -0.0971
18298OCT     C136595  20.095  23.537   9.001 -0.0379 -0.3777 -0.2588
18298OCT     C236596  19.841  23.263   9.289  0.3730 -0.2421 -0.1559
18299OCT     C136597  17.575  22.974   4.406  0.0566  0.2860 -0.0065
18299OCT     C236598  17.841  22.998   4.847  0.0112  0.1908 -0.3283
18300OCT     C136599   5.724   7.751  22.015  0.1399 -0.2459  0.1794
18300OCT     C236600   5.295   7.691  22.112  0.2171 -0.2388  0.2081
18301OCT     C136601  12.916  10.731  11.713 -0.2360 -0.0214 -0.2615
18301OCT     C236602  13.141  10.850  12.102  0.4328 -0.0248 -0.0707
18302OCT     C136603   2.350  23.433  12.450 -0.0071  0.0966 -0.0203
18302OCT     C236604   2.499   0.059  12.178 -0.0353 -0.2187 -0.1306
18303OCT     C136605  10.774  23.467   7.627  0.0661 -0.2570 -0.2754
18303OCT     C236606  10.761  23.028   7.453  0.2507 -0.3153 -0.0685
18304OCT     C136607  23.249   9.516   2.021 -0.2713 -0.1710  0.0188
18304OCT     C236608  23.340   9.094   1.872 -0.0958  0.0797 -0.2707
18305OCT     C136609  18.921  20.212  13.314 -0.0624  0.1831  0.0589
18305OCT     C236610  18.642  20.497  13.023  0.2813 -0.2632  0.0297
18306OCT     C136611  20.845  16.288  15.007 -0.1046 -0.0949  0.1920
18306OCT     C236612  20.725  16.630  14.732  0.0338 -0.3509  0.0116
18307OCT     C136613  16.212  14.731  20.830  0.4883  0.2993 -0.2236
18307OCT     C236614  16.312  14.580  20.445  0.0503  0.2296 -0.1074
18308OCT     C136615  11.139   4.596  12.679 -0.1132 -0.1438  0.2786
18308OCT     C236616  11.229   4.855  13.077 -0.2647 -0.5236 -0.0355
18309OCT     C136617  13.536  22.309   1.057 -0.3930 -0.1664  0.0975
18309OCT     C236618  13.465  22.476   0.634 -0.1383 -0.2705 -0.0694
18310OCT     C136619   2.613   0.122   0.985  0.0649 -0.3482  0.2217
18310OCT     C236620   2.142  23.633   0.934 -0.0735  0.2166 -0.0128
18311OCT     C136621  18.931  10.055  16.660  0.4942 -0.0320 -0.1790
18311OCT     C236622  18.941   9.595  16.781  0.1326 -0.3348  0.2347
18312OCT     C136623   5.786  13.178  18.863 -0.3093 -0.1306 -0.1044
18312OCT     C236624   6.224  13.122  19.022 -0.2896  0.1640 -0.0172
18313OCT     C136625   2.509  10.744   1.076 -0.0113  0.1293  0.1223
18313OCT     C236626   2.713  11.141   1.256  0.2956 -0.4800  0.0717
18314OCT     C136627  13.804  22.517  11.202  0.0994  0.0540  0.1660
18314OCT     C236628  14.115  22.825  11.188  0.0273  0.0521  0.1110
18315OCT     C136629  12.054   2.326  13.330 -0.2872 -0.0244  0.3073
18315OCT     C236630  11.612   2.394  13.459 -0.3448 -0.0975  0.0493
18316OCT     C136631   4.251  18.965   7.596 -0.2303 -0.2811  0.0818
18316OCT     C236632   3.989  19.144   7.278  0.1906 -0.0025  0.2408
18317OCT     C136633  19.266  17.644   9.980 -0.2112 -0.4178 -0.1162
18317OCT     C236634  19.335  17.501  10.432  0.2539  0.1611  0.3403
18318OCT     C136635   9.084  13.346   2.877  0.4888 -0.2328 -0.1795
18318OCT     C236636   8.724  13.114   2.786 -0.1777  0.1120  0.1120
18319OCT     C136637  20.570  16.029  21.521 -0.1934  0.0516 -0.1414
18319OCT     C236638  20.294  16.065  21.089 -0.0201 -0.0089 -0.2162
18320OCT     C136639   4.069   9.796   8.837 -0.3435 -0.1820 -0.0752
18320OCT     C236640   4.231   9.350   8.820  0.3805 -0.2776 -0.4010
18321OCT     C136641   2.002  22.920  17.079  0.1115 -0.0382 -0.0807
18321OCT     C236642   2.171  23.235  17.419  0.3678  0.1483  0.0855
18322OCT     C136643   2.442  21.692  17.166  0.2422 -0.1348 -0.1250
18322OCT     C236644   2.245  21.474  17.553 -0.2928 -0.0142 -0.0721
18323OCT     C136645   7.182   3.414   8.980  0.3070 -0.1814  0.0683
18323OCT     C236646   6.779   3.456   8.863  0.4683  0.5517 -0.1035
18324OCT     C136647  20.513  17.975  18.109 -0.0866 -0.3322  0.2004
18324OCT     C236648  20.552  17.507  17.989  0.1391 -0.1131  0.0677
18325OCT     C136649  19.476  23.226  23.469 -0.0479  0.1110  0.1783
18325OCT     C236650  19.473  23.699  23.504  0.2678  0.0304 -0.1689
18326OCT     C136651   9.934  21.668   1.016 -0.1261 -0.1775 -0.3580
18326OCT     C236652   9.593  21.572   0.713  0.0443  0.2629 -0.0650
18327OCT     C136653   9.364  17.077  18.926  0.1664 -0.2711  0.1468
18327OCT     C236654   9.425  17.182  19.394  0.1574 -0.2895  0.0558
18328OCT     C136655  18.421  22.176  11.891 -0.4107 -0.1791  0.2095
18328OCT     C236656  18.418  21.709  12.014 -0.4029  0.1112 -0.1521
18329OCT     C136657  13.998  10.960  13.180  0.4477  0.2863  0.2630
18329OCT     C236658  13.736  11.105  12.788 -0.0524 -0.0670 -0.1876
18330OCT     C136659  18.895  18.303   9.190 -0.2191 -0.3608 -0.1588
18330OCT     C236660  18.448  18.202   9.083  0.1104  0.2449  0.0383
18331OCT     C136661  19.150  15.422  22.541  0.0478 -0.2040 -0.0023
18331OCT     C236662  19.233  15.335  23.000 -0.0707  0.0232 -0.3162
18332OCT     C136663  18.099   9.067  21.171  0.1661  0.0752  0.1076
18332OCT     C236664  18.269   9.356  21.447 -0.0204 -0.2714 -0.2478
18333OCT     C136665  10.014  22.129  21.059 -0.1373 -0.1003  0.4415
18333OCT     C236666   9.635  21.846  21.177  0.1606 -0.1398  0.1933
18334OCT     C136667   3.855  18.439  14.089 -0.1066 -0.0116  0.1938
18334OCT     C236668   3.868  17.976  13.845 -0.2668 -0.3333 -0.1174
18335OCT     C136669   6.732  12.117   5.587 -0.1679 -0.1036 -0.1331
18335OCT     C236670   7.092  12.463   5.631  0.0064  0.2576  0.2842
18336OCT     C136671   2.863  21.893  14.147 -0.0303 -0.0189 -0.2663
18336OCT     C236672   2.916  22.372  14.117 -0.0395  0.0413 -0.1628
18337OCT     C136673  10.921  14.222  18.114  0.0494  0.0468  0.0923
18337OCT     C236674  10.514  14.254  18.332  0.0248  0.1178  0.0702
18338OCT     C136675  21.474   5.789   0.613 -0.0597  0.0304 -0.0401
18338OCT     C236676  21.039   5.638   0.762 -0.1689  0.0892  0.2279
18339OCT     C136677   2.650  15.436  15.614  0.0129 -0.2735 -0.3800
18339OCT     C236678   2.622  15.029  15.387 -0.0192  0.0358  0.1675
18340OCT     C136679  10.991  20.151   3.675  0.0339  0.3662 -0.0809
18340OCT     C236680  11.076  19.710   3.803 -0.3320 -0.1149 -0.1700
18341OCT     C136681   9.100   8.147   1.054 -0.3289 -0.1533 -0.0439
18341OCT     C236682   9.243   7.875   1.419  0.0030  0.0159 -0.2086
18342OCT     C136683   7.194  18.455   2.327  0.0382  0.0991 -0.0505
18342OCT     C236684   6.864  18.348   2.010  0.0986 -0.3479 -0.3505
18343OCT     C136685   6.513  23.640  17.370  0.2523  0.2056 -0.1194
18343OCT     C236686   6.569   0.065  16.910  0.0702  0.3046  0.0793
18344OCT     C136687   1.005  12.141  23.133  0.1227 -0.0871  0.0143
18344OCT     C236688   1.212  11.727  23.268  0.2094  0.3290 -0.2108
18345OCT     C136689   8.183   1.273  19.579  0.0968  0.6487  0.2735
18345OCT     C236690   8.474   1.553  19.805  0.1181  0.1572  0.1901
18346OCT     C136691   3.738  21.946   5.097  0.0711  0.1777  0.0638
18346OCT     C236692   3.983  21.805   4.746 -0.1382  0.1416 -0.1885
18347OCT     C136693  11.331  21.938   3.549 -0.1273  0.0592 -0.3024
18347OCT     C236694  11.009  22.303   3.697 -0.3759  0.1501  0.0623
18348OCT     C136695   1.960  22.026   4.321 -0.2710 -0.3325 -0.3186
18348OCT     C236696   1.891  22.516   4.296 -0.1562 -0.1397  0.0766
18349OCT     C136697  23.645   9.990  10.008 -0.4816 -0.0156  0.1068
18349OCT     C236698   0.210  10.175  10.250 -0.1887 -0.1543  0.2314
18350OCT     C136699  17.895  22.007   8.659 -0.0239  0.0426  0.1152
18350OCT     C236700  17.692  22.291   8.982  0.3229 -0.1415 -0.0531
18351OCT     C136701   7.489   8.048  13.733 -0.1009 -0.2755 -0.1984
18351OCT     C236702   7.814   7.793  13.426  0.1085 -0.3271  0.2270
18352OCT     C136703   6.085   5.270   6.714  0.0920  0.0734 -0.1564
18352OCT     C236704   5.909   5.223   7.213 -0.1112  0.0979  0.0060
18353OCT     C136705   5.236  22.884  13.337 -0.1383 -0.1927  0.0515
18353OCT     C236706   5.217  23.041  12.922  0.1584 -0.0390 -0.0972
18354OCT     C136707  10.492  15.197  20.484  0.3368 -0.2014  0.2392
18354OCT     C236708  10.761  14.912  20.731 -0.0771  0.3385 -0.0268
18355OCT     C136709   7.334  17.736  12.091 -0.1167  0.2533 -0.3057
18355OCT     C236710   7.359  17.918  12.526  0.3388 -0.1223  0.2622
18356OCT     C136711  20.368   7.127  23.517 -0.0352 -0.1058 -0.2410
18356OCT     C236712  20.199   6.700  23.688  0.0128 -0.2835 -0.1293
18357OCT     C136713   0.056  20.538  23.674 -0.0741  0.1411 -0.0456
18357OCT     C236714  23.496  20.780   0.222 -0.0398 -0.2686  0.0351
18358OCT     C136715  15.922  16.508   5.458  0.1910 -0.1761 -0.1617
18358OCT     C236716  16.002  16.274   5.840  0.1542  0.2017 -0.2518
18359OCT     C136717   0.822  10.726  14.673 -0.1101  0.2403  0.0398
18359OCT     C236718   0.910  10.776  15.140 -0.3247  0.4066 -0.2138
18360OCT     C136719   1.451  12.877   9.758  0.1322 -0.3813 -0.1095
18360OCT     C236720   1.797  13.064   9.996  0.1656 -0.0606  0.1000
18361OCT     C136721   9.311   5.045   7.968 -0.4431 -0.0416 -0.2728
18361OCT     C236722   9.526   4.756   8.256 -0.2779 -0.0647 -0.1551
18362OCT     C136723  17.310  16.097  20.171 -0.2749 -0.1856 -0.0361
18362OCT     C236724  17.004  15.950  20.490 -0.2046 -0.0699 -0.3780
18363OCT     C136725  11.786   2.010  19.538 -0.0590 -0.3256 -0.2146
18363OCT     C236726  12.074   2.061  19.208 -0.4417 -0.0215 -0.1549
18364OCT     C136727   4.154  15.457  15.599  0.2391 -0.2492  0.2376
18364OCT     C236728   3.832  15.808  15.368  0.1138  0.0709 -0.4048
18365OCT     C136729   1.827   0.284  20.082  0.2360 -0.1334 -0.0094
18365OCT     C236730   1.501   0.505  19.784  0.2741  0.0240 -0.0309
18366OCT     C136731  22.587  15.765  13.119  0.4548  0.0078 -0.0616
18366OCT     C236732  22.610  16.113  12.841  0.0806 -0.0353 -0.1654
18367OCT     C136733  13.903  10.092  17.736 -0.4433  0.1598  0.2459
18367OCT     C236734  13.890   9.717  18.023  0.0218  0.2006 -0.2322
18368OCT     C136735   1.030  18.800   7.168 -0.1883 -0.0610 -0.1605
18368OCT     C236736   1.057  18.471   7.489  0.3341  0.2242  0.1621
18369OCT     C136737  18.514   7.253   4.830  0.1375 -0.2866 -0.0566
18369OCT     C236738  18.755   7.444   5.240  0.3286 -0.1851 -0.2194
18370OCT     C136739  21.747  19.113  23.220 -0.2003  0.1917 -0.3584
18370OCT     C236740  21.646  19.592  23.326  0.2699 -0.1536 -0.0830
18371OCT     C136741  19.095   0.385   9.204  0.1862  0.5062  0.0688
18371OCT     C236742  18.869   0.625   8.847 -0.4840  0.2024  0.0684
18372OCT     C136743  20.090   4.717  10.557 -0.1637 -0.0761  0.2998
18372OCT     C236744  19.633   4.743  10.511 -0.0652 -0.0479 -0.1122
18373OCT     C136745  11.238  16.712  18.331 -0.2908 -0.0806  0.3849
18373OCT     C236746  10.828  16.965  18.396  0.0818 -0.1553  0.1036
18374OCT     C136747   2.949  15.956   6.780 -0.3371 -0.1099  0.2367
18374OCT     C236748   2.722  16.091   7.157  0.0012 -0.0037 -0.0559
18375OCT     C136749   5.977   3.616   7.662  0.0504 -0.1138 -0.1029
18375OCT     C236750   5.842   3.877   7.282 -0.0302 -0.2155 -0.0089
18376OCT     C136751  10.548  22.116  20.069  0.0316 -0.1007 -0.0698
18376OCT     C236752  10.518  22.540  20.320 -0.0672 -0.0983 -0.3224
18377OCT     C136753  20.551   5.106   4.683 -0.0800 -0.1513 -0.3032
18377OCT     C236754  20.622   5.284   5.099 -0.2452 -0.0256  0.1190
18378OCT     C136755   1.814  19.883   0.973  0.1094  0.0077 -0.2723
18378OCT     C236756   1.576  19.915   0.568  0.0557  0.2627 -0.1828
18379OCT     C136757  19.888  11.630   3.830 -0.2249 -0.0865  0.2007
18379OCT     C236758  19.485  11.639   3.623 -0.1222 -0.4588  0.3042
18380OCT     C136759  21.377   6.945  13.716  0.1933 -0.3376  0.2785
18380OCT     C236760  21.113   6.583  13.700  0.3132 -0.2847 -0.1465
18381OCT     C136761  19.675   0.175  17.315 -0.1614  0.1912 -0.1056
18381OCT     C236762  19.411   0.356  16.940  0.0573  0.0748 -0.3434
18382OCT     C136763  22.615  12.764   3.963  0.2975  0.0155 -0.1104
18382OCT     C236764  22.558  12.458   3.592  0.1657  0.1161 -0.0011
18383OCT     C136765  15.033   2.070   5.034  0.1307  0.2615 -0.2354
18383OCT     C236766  15.217   2.414   4.900  0.1867  0.1512  0.1169
18384OCT     C136767  18.076   9.598  19.972  0.3243 -0.0533 -0.1480
18384OCT     C236768  17.725   9.880  20.068  0.0994 -0.1239  0.4760
18385OCT     C136769  16.837   1.843   6.528  0.0684 -0.3128  0.1848
18385OCT     C236770  16.611   1.456   6.592 -0.2454  0.0416  0.1564
18386OCT     C136771  22.241  22.760  13.135 -0.0196  0.1989 -0.0912
18386OCT     C236772  22.742  22.836  12.998 -0.0611 -0.1441 -0.0228
18387OCT     C136773  10.071  13.343   5.070 -0.1942  0.2801  0.3072
18387OCT     C236774   9.840  12.921   5.118 -0.2352 -0.0885  0.0296
18388OCT     C136775  17.011  16.025  16.687  0.0191  0.2340  0.0364
18388OCT     C236776  17.481  16.031  16.854 -0.2134  0.0019  0.1576
18389OCT     C136777   1.834  13.140  19.041  0.0384  0.0461 -0.0067
18389OCT     C236778   2.060  13.027  18.639 -0.3871 -0.2399  0.4930
18390OCT     C136779  21.717   8.127  19.819  0.1559  0.0478  0.1426
18390OCT     C236780  21.413   7.862  20.001  0.1976 -0.2730 -0.0939
18391OCT     C136781  13.864  23.296  13.506 -0.1494  0.0503  0.1880
18391OCT     C236782  14.276  23.151  13.446 -0.1269 -0.1114  0.2141
18392OCT     C136783  11.960  11.903  15.292  0.0150  0.0888 -0.3749
18392OCT     C236784  11.489  11.798  15.217  0.1654  0.0932  0.0570
18393OCT     C136785   3.068   0.745   1.514  0.0032  0.0134  0.0436
18393OCT     C236786   2.916   1.073   1.217  0.2081  0.0059 -0.0631
18394OCT     C136787  18.378  14.601   7.718  0.0280 -0.1802 -0.1444
18394OCT     C236788  18.691  14.475   8.069 -0.1321 -0.2874  0.1245
18395OCT     C136789  21.023   6.100   7.125  0.0614 -0.3859  0.0847
18395OCT     C236790  21.005   6.126   7.632  0.1060  0.0810 -0.0137
18396OCT     C136791   9.410  12.459  12.614  0.3394 -0.3276 -0.1514
18396OCT     C236792   9.755  12.508  12.881 -0.0623 -0.3509 -0.0407
18397OCT     C136793  23.462   8.462   7.610 -0.1772  0.2280  0.0584
18397OCT     C236794  23.377   8.768   7.974 -0.1099 -0.1500  0.3082
18398OCT     C136795  18.573  12.971  21.445  0.2506  0.0876 -0.1075
18398OCT     C236796  18.931  12.756  21.282  0.4991  0.2610  0.1693
18399OCT     C136797  23.022   2.220   3.873  0.1667  0.2401  0.1467
18399OCT     C236798  23.435   2.299   3.735 -0.4166  0.2123 -0.2296
18400OCT     C136799  23.312  12.811  21.381  0.1759  0.5848 -0.4144
18400OCT     C236800   0.003  12.742  21.185  0.2967 -0.1947 -0.0363
18401OCT     C136801   6.372  10.556  14.264  0.1222  0.1226  0.2556
18401OCT     C236802   6.666  10.941  14.273  0.1776 -0.2268 -0.1715
18402OCT     C136803  11.455  20.044  10.896  0.0964  0.0011 -0.2000
18402OCT     C236804  11.703  20.064  10.510 -0.3348 -0.0138  0.1750
18403OCT     C136805  13.604   6.052  12.771  0.0173  0.0453 -0.1262
18403OCT     C236806  13.421   5.913  13.170 -0.0648 -0.1600  0.2642
18404OCT     C136807  21.775  11.943   4.846  0.0417  0.4035  0.4736
18404OCT     C236808  22.061  12.201   4.620 -0.2039  0.0269  0.6274
18405OCT     C136809  15.501  16.344  23.231 -0.1812  0.4466  0.2605
18405OCT     C236810  15.416  15.966  22.957  0.1100  0.2695 -0.0840
18406OCT     C136811   8.278   5.968  18.792  0.0834  0.0297  0.1123
18406OCT     C236812   7.861   5.827  18.648  0.4382  0.0896  0.1485
18407OCT     C136813   2.996   7.298  18.507 -0.1398  0.1365  0.1078
18407OCT     C236814   3.191   6.928  18.386 -0.0597 -0.1409 -0.1223
18408OCT     C136815   6.861  17.996   0.976  0.1567 -0.1766  0.1211
18408OCT     C236816   7.114  17.880   1.361  0.1219  0.0088  0.1116
18409OCT     C136817  23.338   6.379   0.628 -0.3074  0.1181  0.0932
18409OCT     C236818   0.023   6.295   0.845 -0.0092  0.0490 -0.2245
18410OCT     C136819   2.671  10.244   6.178 -0.3332 -0.2520 -0.0319
18410OCT     C236820   2.464  10.658   6.187 -0.1920 -0.1366 -0.1089
18411OCT     C136821   7.526   4.555   1.501  0.1769  0.1492  0.2455
18411OCT     C236822   7.743   4.196   1.713  0.2382  0.1614  0.0300
18412OCT     C136823  15.510   5.327  16.632  0.2217 -0.1301 -0.1718
18412OCT     C236824  15.483   5.002  16.994 -0.0245  0.0243  0.1847
18413OCT     C136825  18.772   5.018   2.706 -0.3171 -0.1746  0.3152
18413OCT     C236826  18.799   5.162   3.144  0.0770  0.2248  0.1562
18414OCT     C136827  12.163  23.681  22.901 -0.1111 -0.1550  0.1791
18414OCT     C236828  12.567  23.725  23.037 -0.0793  0.1476  0.0247
18415OCT     C136829  17.120   6.794  14.385 -0.1417 -0.0318  0.1966
18415OCT     C236830  16.688   6.896  14.287  0.0049  0.1209  0.5692
18416OCT     C136831   7.009  12.427   1.788 -0.1535  0.0805  0.0933
18416OCT     C236832   7.234  12.754   1.566  0.1908  0.2335  0.1048
18417OCT     C136833  12.756   5.203  16.049 -0.0683 -0.1152  0.0692
18417OCT     C236834  12.934   5.520  16.298 -0.4700 -0.1608 -0.1176
18418OCT     C136835  10.902  11.076   2.262 -0.0506 -0.0023  0.2509
18418OCT     C236836  11.040  10.672   2.509  0.0878 -0.0184  0.0759
18419OCT     C136837  18.793  16.853  13.822  0.1267 -0.0428 -0.1318
18419OCT     C236838  18.496  16.965  14.205  0.0723  0.2677  0.2461
18420OCT     C136839  11.058  21.785   8.402  0.3821 -0.1604  0.2852
18420OCT     C236840  11.366  21.602   8.007 -0.1743 -0.0887  0.0237
18421OCT     C136841  18.994  11.704  23.360  0.0427 -0.3808 -0.0492
18421OCT     C236842  18.960  12.131  23.617 -0.2597 -0.1101  0.0236
18422OCT     C136843  21.741  20.314  18.671  0.0758 -0.0768 -0.0754
18422OCT     C236844  21.381  19.984  18.557 -0.2025 -0.3769 -0.1936
18423OCT     C136845   8.052  14.912   4.392  0.0235 -0.2404 -0.0203
18423OCT     C236846   7.795  14.869   4.745  0.0106 -0.1668 -0.3077
18424OCT     C136847   9.726   7.095  17.599 -0.2192 -0.4170 -0.0034
18424OCT     C236848  10.047   7.438  17.528  0.1095 -0.1158 -0.1661
18425OCT     C136849   6.585  15.914   1.574  0.0786 -0.2400 -0.0760
18425OCT     C236850   6.499  15.550   1.283 -0.0131  0.0067 -0.0458
18426OCT     C136851   2.798   5.409   9.134  0.1652 -0.2903 -0.1737
18426OCT     C236852   2.415   5.398   9.325 -0.0641  0.2107  0.4238
18427OCT     C136853  11.538   1.215  16.763  0.0088 -0.3282  0.1640
18427OCT     C236854  11.142   1.347  17.001 -0.0962 -0.1190 -0.4566
18428OCT     C136855   5.744   6.403  22.048  0.0376  0.0161 -0.1798
18428OCT     C236856   5.335   6.556  22.146  0.0362 -0.0047  0.2023
18429OCT     C136857  20.265   8.671   9.342  0.4522 -0.4371 -0.0299
18429OCT     C236858  20.627   8.409   9.411  0.3757  0.0028  0.0181
18430OCT     C136859  18.734  15.036   6.961  0.1878 -0.0987 -0.4073
18430OCT     C236860  18.633  14.616   6.809  0.0391  0.0523 -0.1435
18431OCT     C136861   5.924   7.337  20.070  0.3005 -0.2815 -0.2154
18431OCT     C236862   5.853   6.992  20.378  0.1194  0.0888 -0.2335
18432OCT     C136863   3.196   4.005  12.956  0.3024  0.0907  0.1208
18432OCT     C236864   3.450   4.065  13.295 -0.2340 -0.3609 -0.4349
18433OCT     C136865   6.964   1.396   8.297 -0.1469 -0.1864  0.0518
18433OCT     C236866   6.678   1.579   8.593  0.2489  0.1268 -0.0495
18434OCT     C136867   9.465  21.974  10.781 -0.0382 -0.1625 -0.0349
18434OCT     C236868   9.810  21.865  10.500  0.3310 -0.0552  0.0013
18435OCT     C136869   5.677  11.782  12.396  0.1304  0.1182 -0.1876
18435OCT     C236870   5.235  11.760  12.448  0.0300  0.3016 -0.2157
18436OCT     C136871   0.485   8.556  11.373  0.1841  0.2012 -0.2198
18436OCT     C236872   0.881   8.470  11.094  0.1560  0.0912  0.2784
18437OCT     C136873   0.458   8.829   8.740 -0.1149  0.1514 -0.0602
18437OCT     C236874   0.775   8.570   8.992  0.1383 -0.1049  0.0332
18438OCT     C136875   3.184   1.177  10.171  0.0965 -0.0886  0.2866
18438OCT     C236876   3.090   1.633  10.048 -0.3490  0.1145 -0.5570
18439OCT     C136877   3.281  20.023  10.435 -0.0502  0.0154 -0.1496
18439OCT     C236878   3.659  20.296  10.404 -0.2672 -0.1723  0.0121
18440OCT     C136879  18.503  10.688   2.275  0.2319 -0.1347  0.0850
18440OCT     C236880  18.261  11.065   2.437 -0.0703  0.2491  0.2297
18441OCT     C136881   6.007  19.638  10.227 -0.4110  0.0412 -0.0215
18441OCT     C236882   5.971  19.740  10.652  0.0738  0.0452 -0.1464
18442OCT     C136883   5.025  19.346   6.370 -0.2768  0.3994 -0.0830
18442OCT     C236884   4.567  19.469   6.496 -0.0237 -0.2686  0.1084
18443OCT     C136885  11.871   2.923   2.678 -0.0034  0.1416 -0.1306
18443OCT     C236886  11.818   2.684   2.331  0.1973 -0.0304  0.0071
18444OCT     C136887  15.625  22.585   9.380  0.3048 -0.5844  0.0587
18444OCT     C236888  16.085  22.447   9.447 -0.2252  0.3437 -0.2364
18445OCT     C136889  17.294  15.704   2.616  0.0316  0.0742  0.0418
18445OCT     C236890  16.915  15.477   2.386  0.1175  0.4614  0.0778
18446OCT     C136891  14.685  17.132   6.595  0.0732  0.3727  0.3451
18446OCT     C236892  14.393  17.072   7.000 -0.2663 -0.0956  0.2161
18447OCT     C136893   3.266   2.982   2.980  0.1539 -0.1820 -0.2585
18447OCT     C236894   3.426   3.385   3.192 -0.0434  0.1489 -0.2839
18448OCT     C136895   3.214  14.735   9.152 -0.0361  0.2951  0.2995
18448OCT     C236896   2.860  15.028   9.215  0.2390  0.1727  0.4222
18449OCT     C136897  20.352  10.491  21.290  0.0321 -0.0582  0.2883
18449OCT     C236898  20.191  10.018  21.275  0.2505  0.2477  0.1419
18450OCT     C136899  20.312   0.470  19.657 -0.2908 -0.1964  0.3064
18450OCT     C236900  20.456   0.421  20.075 -0.3997 -0.0905 -0.1109
18451OCT     C136901   3.887   5.363   1.670  0.5294  0.1354 -0.0675
18451OCT     C236902   3.873   5.684   2.030 -0.3625  0.1651  0.3163
18452OCT     C136903  11.443   1.527   0.707  0.2249  0.0847 -0.2780
18452OCT     C236904  11.078   1.359   0.474  0.2360 -0.1689 -0.2291
18453OCT     C136905  12.875  20.276   5.353  0.0303  0.3005  0.0180
18453OCT     C236906  12.458  20.481   5.491 -0.1230  0.0460  0.2243
18454OCT     C136907   0.382  19.916  10.778  0.2504  0.0758 -0.1186
18454OCT     C236908   0.324  19.488  10.973 -0.0159  0.1375  0.2086
18455OCT     C136909   5.711  16.558   2.807  0.1438 -0.2888  0.0909
18455OCT     C236910   6.049  16.470   2.531  0.4564  0.2094 -0.2551
18456OCT     C136911   4.747  23.014  15.093  0.2813  0.1778 -0.1343
18456OCT     C236912   4.819  22.601  15.230 -0.1901  0.0661 -0.0472
18457OCT     C136913   5.504  17.444  19.718  0.1746 -0.3069  0.0803
18457OCT     C236914   5.218  17.452  20.079 -0.0860 -0.1128  0.2980
18458OCT     C136915  20.047   6.500  18.227  0.3320 -0.0037  0.0169
18458OCT     C236916  19.946   6.709  18.640  0.1289  0.5281  0.0706
18459OCT     C136917  13.128  20.589   7.265  0.3152  0.1640  0.0129
18459OCT     C236918  13.225  20.248   7.051 -0.3777  0.0053 -0.2987
18460OCT     C136919  20.956   4.633   0.871 -0.1308 -0.4044  0.0996
18460OCT     C236920  20.932   5.101   0.725  0.2484  0.1651  0.1019
18461OCT     C136921  11.520  21.666  14.561  0.0328  0.1071  0.0992
18461OCT     C236922  11.756  21.706  14.073  0.2492 -0.0351  0.1640
18462OCT     C136923  22.258  20.696  19.210 -0.0528  0.2506 -0.0822
18462OCT     C236924  21.799  20.651  19.028 -0.2255 -0.2537  0.4883
18463OCT     C136925  13.760  15.347  22.046  0.2054 -0.2082  0.0426
18463OCT     C236926  14.229  15.201  21.930  0.1996  0.0295 -0.3502
18464OCT     C136927  21.696  17.164  18.194  0.1852  0.0381  0.0303
18464OCT     C236928  21.434  17.272  18.532 -0.4267  0.0979 -0.2564
18465OCT     C136929  15.609   4.249  23.154  0.4954 -0.3106 -0.0565
18465OCT     C236930  15.762   4.439  23.561  0.2129 -0.3418  0.2570
18466OCT     C136931  21.618   1.768   0.128 -0.0888 -0.1272  0.4463
18466OCT     C236932  21.502   1.575   0.557 -0.0997  0.2768  0.0528
18467OCT     C136933   6.440  22.403   4.747  0.1864 -0.0245 -0.0813
18467OCT     C236934   6.033  22.667   4.839 -0.1153  0.3428 -0.1247
18468OCT     C136935  17.072  14.667   3.637 -0.0078 -0.1959 -0.7063
18468OCT     C236936  17.177  14.260   3.663 -0.3307  0.2961 -0.0662
18469OCT     C136937  16.215  18.366   0.889 -0.0502  0.1547 -0.0224
18469OCT     C236938  16.342  18.270   0.480 -0.1682  0.2064  0.1692
18470OCT     C136939  12.376   1.280  23.587 -0.1229 -0.1688 -0.0018
18470OCT     C236940  12.209   1.695  23.737 -0.0099  0.2868 -0.3527
18471OCT     C136941  21.348  22.164  18.734 -0.5624  0.2829 -0.1157
18471OCT     C236942  21.216  21.814  18.476 -0.0402  0.4732  0.2154
18472OCT     C136943  21.999   7.429  22.746  0.1634  0.0923  0.2814
18472OCT     C236944  22.015   7.929  22.746  0.3660 -0.1255  0.0419
18473OCT     C136945  21.096   1.396  14.790 -0.2743  0.0272  0.0302
18473OCT     C236946  20.669   1.538  14.689 -0.2539  0.0298  0.1025
18474OCT     C136947  19.203   0.426  23.135 -0.1418  0.3097 -0.0340
18474OCT     C236948  19.084   0.223  23.508  0.1071 -0.0432  0.0319
18475OCT     C136949  18.800   5.203  22.914 -0.1286  0.0159  0.0173
18475OCT     C236950  18.753   4.796  22.596  0.0779  0.0454  0.1848
18476OCT     C136951  17.845   0.043   9.375  0.1757  0.0802  0.3557
18476OCT     C236952  17.596   0.407   9.221  0.1191  0.1137 -0.2003
18477OCT     C136953   8.996   7.353   3.247 -0.0641  0.4187  0.2610
18477OCT     C236954   9.026   7.776   2.925 -0.5675  0.0879  0.2165
18478OCT     C136955  12.337  13.703   9.595  0.3259  0.2531 -0.1587
18478OCT     C236956  12.418  13.895   9.198  0.1698 -0.1723  0.2717
18479OCT     C136957   8.860   9.442   1.959 -0.2318  0.0929 -0.0187
18479OCT     C236958   8.791   9.838   1.805  0.1307  0.2161  0.1149
18480OCT     C136959   3.848   6.283   2.277  0.1164 -0.0439  0.0320
18480OCT     C236960   3.909   5.877   2.485  0.0022  0.1792 -0.3721
18481OCT     C136961  19.161  22.919  13.149 -0.2605 -0.0869  0.1270
18481OCT     C236962  19.175  22.493  13.046 -0.1315 -0.3476  0.0861
18482OCT     C136963  14.884  12.836   5.819  0.2404  0.2734  0.0980
18482OCT     C236964  15.266  13.151   5.696  0.3189 -0.0124 -0.1773
18483OCT     C136965  11.934  13.048   4.757 -0.0635 -0.1123 -0.1522
18483OCT     C236966  11.812  12.662   4.538  0.1790  0.1447 -0.0655
18484OCT     C136967   2.439  16.789  14.285  0.0319 -0.3209 -0.2505
18484OCT     C236968   2.435  16.954  13.823  0.1708 -0.1553 -0.1163
18485OCT     C136969   3.155  22.458  12.464  0.0899 -0.3971  0.3306
18485OCT     C236970   3.068  22.919  12.275  0.0912  0.0989  0.1248
18486OCT     C136971  17.415   5.409  16.349 -0.2104 -0.5419  0.0637
18486OCT     C236972  17.509   5.181  15.956 -0.2976 -0.1912 -0.3074
18487OCT     C136973   5.637  23.457  14.209  0.0241 -0.3277  0.0983
18487OCT     C236974   6.062  23.210  14.113 -0.2068 -0.0900 -0.3716
18488OCT     C136975   6.901  19.008   4.300  0.1854  0.0275 -0.2138
18488OCT     C236976   6.629  19.220   3.968 -0.1405  0.0134  0.0428
18489OCT     C136977  18.422  15.011  14.046 -0.2237  0.0730 -0.1259
18489OCT     C236978  18.260  15.196  14.410 -0.1397  0.1061  0.4446
18490OCT     C136979  19.463  17.324  23.377 -0.2899 -0.1390 -0.1999
18490OCT     C236980  19.653  16.979  23.672 -0.2551  0.1151  0.1064
18491OCT     C136981  13.816  15.610  14.550  0.1037 -0.1479  0.0579
18491OCT     C236982  14.160  15.374  14.281 -0.0330  0.1807  0.1308
18492OCT     C136983  22.122  19.808  22.505 -0.4748  0.0997 -0.2073
18492OCT     C236984  21.955  19.494  22.827 -0.1843 -0.1043  0.1866
18493OCT     C136985   2.221  12.891  13.211  0.1650 -0.3364  0.0247
18493OCT     C236986   2.045  13.337  13.274 -0.5800  0.3809  0.3028
18494OCT     C136987  20.789   1.356  15.184  0.4309 -0.0790 -0.2446
18494OCT     C236988  20.629   1.711  15.458  0.0474 -0.3793  0.0654
18495OCT     C136989  13.527   6.364   0.115  0.1578 -0.1703 -0.0942
18495OCT     C236990  13.419   6.167   0.451  0.2896 -0.1584 -0.2045
18496OCT     C136991   0.334   7.730  13.109  0.0632  0.5008  0.2199
18496OCT     C236992   0.057   7.832  12.707  0.1124 -0.3725 -0.0958
18497OCT     C136993  12.677  17.026  14.682  0.2186  0.1725  0.0818
18497OCT     C236994  12.864  16.683  14.832 -0.1294 -0.0893  0.0142
18498OCT     C136995   2.488  17.676   9.063  0.2431 -0.1025 -0.3009
18498OCT     C236996   2.103  18.026   9.047  0.5040  0.3871 -0.1150
18499OCT     C136997  16.084   3.388  21.358 -0.1412  0.2331 -0.1314
18499OCT     C236998  16.100   3.490  20.873  0.0348  0.0119 -0.3932
18500OCT     C136999  17.586   4.917  10.770 -0.1399  0.0229 -0.0187
18500OCT     C237000  17.418   4.453  10.891  0.2321  0.3134  0.0069
18501OCT     C137001   6.709  14.141   2.575  0.1843 -0.0281 -0.0180
18501OCT     C237002   6.318  14.122   2.819 -0.0628  0.1449  0.2028
18502OCT     C137003   0.943  19.675   5.971 -0.3792 -0.0560  0.1531
18502OCT     C237004   1.115  19.235   5.968  0.2711 -0.0687 -0.1637
18503OCT     C137005  10.700  14.847  11.803 -0.2979 -0.0905  0.2479
18503OCT     C237006  10.744  15.242  11.529 -0.0167  0.4803  0.1713
18504OCT     C137007   8.878   6.469  23.349 -0.2496  0.1395 -0.1631
18504OCT     C237008   8.593   6.253  23.114 -0.0709  0.0472  0.0295
18505OCT     C137009   5.595   8.610  13.484 -0.2413  0.0642 -0.0917
18505OCT     C237010   5.615   8.875  13.115  0.1267  0.1588  0.2997
18506OCT     C137011  16.412  20.705  16.098  0.1621  0.2157 -0.0191
18506OCT     C237012  16.406  20.683  15.664  0.2430 -0.0497 -0.1065
18507OCT     C137013  23.023  18.959   5.591 -0.0900 -0.0081  0.0917
18507OCT     C237014  23.096  18.701   5.992 -0.0092 -0.0602  0.1310
18508OCT     C137015  22.787  11.863  20.873  0.3617  0.3466  0.1826
18508OCT     C237016  22.798  11.663  20.445  0.0748 -0.2740 -0.1078
18509OCT     C137017  17.763  23.014   2.822  0.2090  0.0106  0.2610
18509OCT     C237018  17.737  22.990   3.298  0.0871  0.1908 -0.1553
18510OCT     C137019  17.612   3.076   7.481 -0.2519  0.0641  0.0251
18510OCT     C237020  17.913   3.347   7.668  0.1325  0.0077  0.3498
18511OCT     C137021  19.540  14.274   0.516  0.2214 -0.0815  0.2104
18511OCT     C237022  19.689  14.591   0.812 -0.0506  0.0630 -0.2741
18512OCT     C137023  13.807   5.432  11.894  0.3815 -0.0825 -0.1558
18512OCT     C237024  13.770   5.780  11.621 -0.1845  0.3452 -0.2064
18513OCT     C137025  14.605   6.115  11.397 -0.0918 -0.0255  0.3058
18513OCT     C237026  14.917   5.938  11.123 -0.0804  0.2430  0.0511
18514OCT     C137027  19.677   6.231  17.713  0.1338  0.0320 -0.1469
18514OCT     C237028  19.293   6.303  17.798 -0.0900 -0.0578 -0.2218
18515OCT     C137029  13.849  18.745   3.235  0.2880 -0.1654  0.2398
18515OCT     C237030  13.482  18.673   2.951  0.0095  0.2020  0.1745
18516OCT     C137031  10.353   4.971   8.505 -0.2254  0.0507  0.2422
18516OCT     C237032  10.651   4.724   8.740 -0.0173  0.1702 -0.0783
18517OCT     C137033  18.932  20.397  15.494 -0.2407 -0.0774 -0.0935
18517OCT     C237034  19.324  20.217  15.656  0.3860  0.3585  0.1866
18518OCT     C137035   2.967  18.755   1.824 -0.0967  0.0597 -0.0470
18518OCT     C237036   2.540  18.520   1.876 -0.3212  0.3935 -0.0619
18519OCT     C137037   3.578  10.820  17.170 -0.2550  0.1457 -0.1091
18519OCT     C237038   3.813  10.413  17.107 -0.1345 -0.0731 -0.0885
18520OCT     C137039  10.919  15.885  15.937 -0.0345 -0.3922  0.2199
18520OCT     C237040  10.539  15.804  16.149 -0.0657  0.3348 -0.4106
18521OCT     C137041  10.511  23.549  17.686 -0.1658 -0.0134  0.1542
18521OCT     C237042  10.469  23.062  17.525  0.0359  0.0780  0.2791
18522OCT     C137043   5.645   2.443   9.087 -0.2301  0.2783  0.0416
18522OCT     C237044   5.173   2.521   9.012  0.2086  0.1957  0.1697
18523OCT     C137045   8.354   6.011  22.512 -0.1079 -0.0628  0.1106
18523OCT     C237046   8.618   6.381  22.554  0.1762  0.3170 -0.0563
18524OCT     C137047  21.304   4.870  15.168 -0.1139  0.3172  0.2851
18524OCT     C237048  21.063   5.257  15.033  0.1895  0.1233  0.0391
18525OCT     C137049   8.708   2.712   0.898 -0.0642 -0.0056 -0.3073
18525OCT     C237050   8.983   2.359   0.835  0.0954 -0.0352 -0.0695
18526OCT     C137051   2.091   6.076  16.193  0.1355  0.4203 -0.5268
18526OCT     C237052   1.713   5.972  16.415 -0.0691 -0.2088  0.1930
18527OCT     C137053  10.644  21.920   4.836  0.0920  0.1157 -0.0953
18527OCT     C237054  10.262  22.024   4.637  0.2912 -0.0229 -0.0327
18528OCT     C137055   4.852  17.011   0.931 -0.1407 -0.0870  0.0977
18528OCT     C237056   4.426  16.952   1.110  0.4925 -0.0488  0.0949
18529OCT     C137057   6.771  22.645   7.838  0.0989  0.4146  0.1207
18529OCT     C237058   7.140  22.896   8.018  0.1500  0.0067 -0.1933
18530OCT     C137059  16.260  11.455  14.165 -0.0936 -0.1655  0.0154
18530OCT     C237060  16.225  11.084  14.003  0.0389  0.0269 -0.0181
18531OCT     C137061   8.110  16.657  11.635 -0.2636  0.0168  0.1357
18531OCT     C237062   8.046  16.460  11.992 -0.1023  0.0712 -0.0091
18532OCT     C137063  12.983  16.975  16.328 -0.0196 -0.0457  0.0089
18532OCT     C237064  13.307  17.227  16.178 -0.1991 -0.3038 -0.0824
18533OCT     C137065   1.888  16.910  13.915 -0.0470  0.0324  0.0712
18533OCT     C237066   2.028  17.083  13.499 -0.1576  0.3522 -0.0617
18534OCT     C137067  15.434  20.158  18.656 -0.0024 -0.1188  0.0062
18534OCT     C237068  15.158  19.762  18.779 -0.0402  0.3535  0.2613
18535OCT     C137069  19.506   6.646  18.081  0.1611 -0.1587 -0.2344
18535OCT     C237070  19.405   6.827  17.633  0.0365 -0.5014 -0.3979
18536OCT     C137071   8.980  10.815  11.918  0.1551 -0.0555  0.0239
18536OCT     C237072   9.086  11.293  11.917 -0.0965  0.0729  0.0541
18537OCT     C137073  19.992  21.462  12.212  0.4772  0.0075  0.0804
18537OCT     C237074  20.186  21.569  12.641  0.1663 -0.1656 -0.5190
18538OCT     C137075  15.761   8.849  18.921 -0.1561  0.0449  0.2509
18538OCT     C237076  15.729   8.486  18.545  0.1141 -0.0403 -0.0473
18539OCT     C137077   3.946  12.225   3.480 -0.0611  0.2699  0.0164
18539OCT     C237078   3.612  11.885   3.539 -0.0943 -0.0262  0.0062
18540OCT     C137079  23.025   0.179  12.989  0.3489  0.3443  0.4935
18540OCT     C237080  22.577   0.372  12.733  0.5316 -0.1841  0.2305
18541OCT     C137081   6.603  14.159  18.043 -0.1203 -0.2378  0.0418
18541OCT     C237082   6.960  14.206  18.359 -0.0703  0.1866  0.0796
18542OCT     C137083   2.555   2.477  11.366  0.2765 -0.1607 -0.0986
18542OCT     C237084   2.222   2.101  11.337  0.1467  0.1724 -0.2525
18543OCT     C137085   9.263  23.182  15.052  0.2583  0.0439  0.4572
18543OCT     C237086   9.247  23.484  15.457  0.1292 -0.0017 -0.0224
18544OCT     C137087   9.784   6.709  13.335 -0.0433  0.0479 -0.1915
18544OCT     C237088  10.128   6.938  13.040 -0.4198  0.1188 -0.1749
18545OCT     C137089   5.709  16.017  11.795  0.3475  0.0658 -0.0088
18545OCT     C237090   5.791  16.257  11.417 -0.1090 -0.0101  0.0804
18546OCT     C137091  17.554   1.599  11.041  0.3503 -0.0244 -0.2220
18546OCT     C237092  17.824   1.158  11.075  0.1722 -0.1121  0.2784
18547OCT     C137093   7.839  22.369   2.192  0.0470  0.0153 -0.1447
18547OCT     C237094   8.046  22.010   2.013 -0.1316 -0.0904 -0.4456
18548OCT     C137095  21.444  17.550  12.720 -0.2008 -0.1706 -0.0855
18548OCT     C237096  21.815  17.489  12.937 -0.0213  0.2043  0.0627
18549OCT     C137097  13.969  22.322   9.948  0.4564 -0.4006  0.3279
18549OCT     C237098  14.374  22.163   9.918 -0.1878 -0.0155  0.3488
18550OCT     C137099  14.300   7.314  11.484 -0.5483  0.2743 -0.1665
18550OCT     C237100  14.094   6.895  11.350  0.0686 -0.0837  0.2268
18551OCT     C137101  13.942   9.926  11.938 -0.1689  0.0015  0.0555
18551OCT     C237102  14.345   9.921  12.099  0.1907  0.2616  0.0219
18552OCT     C137103  12.557   9.795   4.950  0.1116  0.1928 -0.1791
18552OCT     C237104  12.175   9.868   4.782  0.0042  0.3881 -0.0929
18553OCT     C137105  13.338  10.243  20.940 -0.4440  0.2852 -0.0213
18553OCT     C237106  13.662   9.965  21.024  0.1688 -0.0249  0.0682
18554OCT     C137107  13.687  18.190   3.145  0.2851 -0.2872 -0.0932
18554OCT     C237108  13.836  17.847   3.452 -0.2907 -0.1816 -0.2642
18555OCT     C137109  13.186  12.937  17.395 -0.5497  0.0695 -0.1273
18555OCT     C237110  13.449  12.581  17.596  0.1452 -0.0302 -0.0086
18556OCT     C137111   5.547   7.998  18.992 -0.1930 -0.3171 -0.1306
18556OCT     C237112   5.178   8.165  19.300 -0.4763 -0.2578 -0.0888
18557OCT     C137113  16.689  16.313  20.256  0.2351  0.1492 -0.3063
18557OCT     C237114  17.115  16.518  20.346  0.0670 -0.2742  0.2912
18558OCT     C137115  20.424  12.314  13.018  0.5217 -0.0109  0.1079
18558OCT     C237116  20.654  11.881  13.141  0.1532 -0.2994 -0.2849
18559OCT     C137117  20.042   2.882  11.147 -0.1867 -0.0687 -0.1765
18559OCT     C237118  19.853   2.542  11.409 -0.0912 -0.2751 -0.1608
18560OCT     C137119  18.599  14.019  17.683 -0.4351 -0.0770 -0.2429
18560OCT     C237120  18.478  14.444  17.801  0.2293 -0.1785 -0.0745
18561OCT     C137121   2.202   8.498   7.167  0.2309 -0.4099 -0.1083
18561OCT     C237122   1.884   8.683   7.467 -0.3382 -0.2831 -0.2850
18562OCT     C137123   3.893   0.319  14.214  0.0801 -0.1733  0.2175
18562OCT     C237124   3.614   0.109  13.932 -0.0693 -0.0842 -0.1885
18563OCT     C137125  10.852  18.703   0.884 -0.1382  0.5099  0.1458
18563OCT     C237126  11.045  18.270   0.938  0.0470  0.1798  0.0056
18564OCT     C137127   6.486   2.725   8.953  0.0052 -0.0606  0.2319
18564OCT     C237128   6.623   2.607   8.523  0.3758  0.0325  0.1436
18565OCT     C137129  22.929  19.401   8.154  0.0090 -0.0732 -0.4098
18565OCT     C237130  23.123  19.467   7.752  0.0841 -0.5004  0.0172
18566OCT     C137131   0.726   6.043   1.774  0.0938  0.3239 -0.0435
18566OCT     C237132   0.379   6.302   1.680 -0.1524 -0.0671 -0.3581
18567OCT     C137133  21.106  20.463  23.357  0.0984  0.0993  0.0064
18567OCT     C237134  21.471  20.151  23.326  0.3918 -0.0102  0.2643
18568OCT     C137135  20.941  14.414  18.085 -0.0400  0.1059  0.1526
18568OCT     C237136  21.124  14.558  17.704  0.0686 -0.1814  0.0877
18569OCT     C137137   7.307  12.361  18.412 -0.1775  0.0827  0.1975
18569OCT     C237138   7.014  12.532  18.120  0.0900  0.1289  0.1690
18570OCT     C137139   2.519  10.850  17.809  0.4596 -0.0499  0.1726
18570OCT     C237140   2.490  10.559  17.407  0.0118  0.0468  0.3887
18571OCT     C137141   4.173   7.290  20.839 -0.2022 -0.2118 -0.1489
18571OCT     C237142   4.249   6.810  20.896 -0.0867 -0.0793 -0.0092
18572OCT     C137143   7.396   8.687   6.238  0.0664 -0.3605  0.0718
18572OCT     C237144   6.953   8.593   6.117  0.0792 -0.1217  0.2239
18573OCT     C137145  23.497   9.902  11.048  0.3543  0.0424  0.1619
18573OCT     C237146  23.139   9.705  10.826 -0.1400  0.2843  0.0499
18574OCT     C137147   8.790  23.280   1.640 -0.2351  0.2563  0.2644
18574OCT     C237148   9.124  23.376   1.258  0.0099 -0.2833  0.0130
18575OCT     C137149  15.670  22.596  12.924  0.1817  0.1773 -0.0038
18575OCT     C237150  15.636  22.649  12.510 -0.4909 -0.0952 -0.2850
18576OCT     C137151   7.155  19.780  22.057  0.0896  0.0938 -0.1947
18576OCT     C237152   6.721  19.644  22.246 -0.2129 -0.1251 -0.1474
18577OCT     C137153   6.946  22.150   6.915 -0.4259  0.1581  0.4430
18577OCT     C237154   7.157  22.004   7.304 -0.1972 -0.0749 -0.0032
18578OCT     C137155  11.540  19.742  22.175 -0.1521  0.0417 -0.0265
18578OCT     C237156  11.148  19.947  22.038  0.2307 -0.3063  0.0541
18579OCT     C137157  15.813  20.665   6.113  0.1215  0.2414 -0.0243
18579OCT     C237158  16.304  20.612   5.985 -0.0244 -0.2666  0.1369
18580OCT     C137159   0.831   0.044  11.376 -0.3097 -0.2630  0.2979
18580OCT     C237160   0.989   0.318  11.037  0.3034  0.0608  0.0558
18581OCT     C137161   0.790   3.097   9.469 -0.0437  0.0576  0.2453
18581OCT     C237162   1.090   2.731   9.599  0.2605 -0.1643  0.2720
18582OCT     C137163  19.005  15.848  12.765  0.3195 -0.1272 -0.1445
18582OCT     C237164  19.329  15.847  13.107 -0.0912  0.1508 -0.0193
18583OCT     C137165   4.665   6.504  22.743  0.3836 -0.1454  0.0550
18583OCT     C237166   5.013   6.322  22.556  0.2613 -0.1899  0.1295
18584OCT     C137167   2.101  22.447   4.775  0.0500 -0.1252  0.0850
18584OCT     C237168   1.686  22.485   5.038  0.1683 -0.0699 -0.2935
18585OCT     C137169  18.497   6.788  10.659 -0.0834 -0.0119  0.5417
18585OCT     C237170  18.484   6.330  10.811 -0.2326  0.3400 -0.0562
18586OCT     C137171   4.939  21.077  12.294  0.0072  0.1694  0.1232
18586OCT     C237172   5.377  20.942  12.068 -0.2613  0.1501  0.4718
18587OCT     C137173   6.531  15.370  22.852 -0.3933 -0.0385 -0.1246
18587OCT     C237174   6.840  15.399  22.472 -0.1585 -0.1162  0.1345
18588OCT     C137175   3.893  15.253  12.040  0.1608 -0.1705  0.3935
18588OCT     C237176   3.505  14.971  11.892  0.2307 -0.2446 -0.0856
18589OCT     C137177  21.350  11.917   8.209  0.4878  0.2285  0.0931
18589OCT     C237178  21.591  12.224   8.004 -0.0436 -0.3213 -0.0976
18590OCT     C137179  10.531  14.729   5.855 -0.2986 -0.0319 -0.2574
18590OCT     C237180  10.665  14.648   6.260 -0.2646 -0.0643  0.0522
18591OCT     C137181   8.259  17.401   3.873 -0.0926 -0.2313  0.0064
18591OCT     C237182   8.187  17.337   4.359  0.2474  0.3186  0.2671
18592OCT     C137183  13.064  10.086   2.131 -0.0557 -0.0129 -0.0435
18592OCT     C237184  12.688  10.024   1.833  0.4796  0.1723  0.1435
18593OCT     C137185  16.721  14.902  19.633  0.0833 -0.2885  0.1717
18593OCT     C237186  16.878  14.851  20.083 -0.0089  0.0592 -0.0166
18594OCT     C137187  15.289   1.979  21.972 -0.1294 -0.1835  0.0451
18594OCT     C237188  15.174   2.326  21.652 -0.0225  0.1789  0.1224
18595OCT     C137189   2.953  17.482  14.705 -0.0851  0.3249  0.0127
18595OCT     C237190   3.382  17.672  14.713 -0.2902  0.0395 -0.0129
18596OCT     C137191  15.739  15.440  21.392  0.0258 -0.1035 -0.1289
18596OCT     C237192  16.084  15.164  21.536 -0.0687  0.1116 -0.0541
18597OCT     C137193   9.712   3.005  12.335 -0.0921 -0.1374  0.2527
18597OCT     C237194  10.207   2.991  12.436 -0.2419  0.1592  0.2816
18598OCT     C137195   7.368  16.737  22.331 -0.1311  0.1052 -0.0475
18598OCT     C237196   7.618  16.591  21.963 -0.3784 -0.0284  0.0322
18599OCT     C137197   2.269   0.891  16.434 -0.0138 -0.2630  0.1525
18599OCT     C237198   2.017   0.920  16.757 -0.1374 -0.1789  0.1517
18600OCT     C137199   4.148  11.278  13.969 -0.0554  0.0887  0.1087
18600OCT     C237200   3.885  10.922  14.128 -0.0368  0.5918 -0.2300
18601OCT     C137201  14.970  12.503  22.200 -0.0755 -0.2132 -0.0817
18601OCT     C237202  14.766  12.569  21.788 -0.1987  0.2982 -0.2662
18602OCT     C137203  18.643  22.635  11.308 -0.0374  0.0692 -0.3038
18602OCT     C237204  18.407  23.056  11.183 -0.0631  0.3132  0.3988
18603OCT     C137205   2.798  20.834  22.963  0.0368  0.1258  0.2505
18603OCT     C237206   2.803  20.397  23.053 -0.0457 -0.0108  0.0886
18604OCT     C137207   2.907  15.957   3.981 -0.2024  0.1312 -0.0095
18604OCT     C237208   3.324  15.870   3.933 -0.2119  0.0020 -0.0431
18605OCT     C137209   1.618  14.201   6.986  0.0717 -0.3232  0.2825
18605OCT     C237210   1.360  13.837   6.994  0.1122  0.1480 -0.2897
18606OCT     C137211   8.127  11.910  21.807 -0.1400 -0.0262 -0.2148
18606OCT     C237212   8.377  11.498  21.677 -0.0615  0.2787 -0.0053
18607OCT     C137213  22.618   6.347  19.464 -0.3605 -0.1368 -0.1832
18607OCT     C237214  22.356   6.579  19.133 -0.0663  0.0091 -0.0241
18608OCT     C137215  18.961  16.534  12.181  0.2126 -0.2878 -0.0776
18608OCT     C237216  19.253  16.907  12.307 -0.0660 -0.0934  0.0282
18609OCT     C137217  20.258  20.153  11.673  0.0134  0.0783 -0.0878
18609OCT     C237218  20.081  20.044  11.272  0.0090 -0.2631  0.4709
18610OCT     C137219  21.600  14.403   7.328  0.0778  0.0111 -0.2617
18610OCT     C237220  21.924  14.591   7.111 -0.3136  0.1155 -0.1761
18611OCT     C137221   7.485  19.609   0.915  0.0494 -0.1447 -0.2502
18611OCT     C237222   7.117  19.836   1.133 -0.1476 -0.1392 -0.0069
18612OCT     C137223  17.646  13.913   6.572 -0.1389 -0.0856 -0.1101
18612OCT     C237224  17.556  14.375   6.718 -0.1874 -0.4651  0.2106
18613OCT     C137225   0.759   4.515   2.410  0.0994 -0.1554  0.1978
18613OCT     C237226   0.676   4.882   2.135 -0.1352 -0.0220  0.2725
18614OCT     C137227  10.170   9.329   5.175  0.1622 -0.1994 -0.0519
18614OCT     C237228  10.588   9.303   4.962 -0.0363 -0.0219  0.3974
18615OCT     C137229  19.503   9.601   8.755  0.1194  0.2102  0.0527
18615OCT     C237230  19.526   9.527   9.178  0.5414 -0.3085 -0.1245
18616OCT     C137231  23.556  10.711  14.288  0.0016  0.0002 -0.4485
18616OCT     C237232  23.467  10.939  13.904  0.2339 -0.1884 -0.0838
18617OCT     C137233  15.438   5.354  15.674  0.0907  0.0724 -0.2978
18617OCT     C237234  15.025   5.277  15.806  0.0270 -0.2052  0.0235
18618OCT     C137235  19.182   1.103  18.914  0.4336  0.2163  0.2729
18618OCT     C237236  18.927   0.890  18.563  0.0682 -0.0917 -0.2287
18619OCT     C137237  11.981  15.388  18.887 -0.1385  0.2434  0.3581
18619OCT     C237238  11.843  15.246  19.376 -0.1206  0.1610 -0.1856
18620OCT     C137239   5.835  20.039  18.924  0.2675 -0.2410  0.2636
18620OCT     C237240   5.493  19.821  18.643  0.0315 -0.3195  0.0264
18621OCT     C137241  12.232  23.063   9.418 -0.3941 -0.2871  0.0707
18621OCT     C237242  11.919  23.363   9.238  0.0084 -0.2526  0.1010
18622OCT     C137243  15.322   9.759  22.531  0.4804  0.3090  0.0396
18622OCT     C237244  15.096   9.926  22.154  0.2060 -0.0112 -0.1458
18623OCT     C137245   0.854  18.444  15.564 -0.1636  0.1073  0.0024
18623OCT     C237246   0.996  18.541  15.157 -0.5016 -0.0215 -0.2247
18624OCT     C137247  12.316   5.111   1.576  0.3215 -0.2209  0.2722
18624OCT     C237248  12.607   4.749   1.595 -0.1544 -0.1615  0.0418
18625OCT     C137249  14.855  15.794  20.367  0.1041 -0.0192  0.0562
18625OCT     C237250  15.224  15.621  20.473 -0.0032 -0.2054 -0.3380
18626OCT     C137251   4.349   9.167  13.182  0.0700 -0.2136 -0.2893
18626OCT     C237252   4.714   9.129  13.454 -0.1028  0.0889  0.2292
18627OCT     C137253   2.848   7.940   1.565  0.2433 -0.1430  0.2726
18627OCT     C237254   3.088   7.842   1.952  0.1951  0.2681 -0.2900
18628OCT     C137255   3.681   3.721  15.919  0.0678 -0.0725 -0.0980
18628OCT     C237256   3.413   3.336  15.962  0.1539 -0.3252  0.1012
18629OCT     C137257  21.721  16.176   1.442  0.2770  0.1546 -0.0791
18629OCT     C237258  21.524  16.634   1.440  0.3133  0.1978  0.0769
18630OCT     C137259   6.060  21.304  23.358  0.0118  0.1282  0.0222
18630OCT     C237260   5.666  21.379  23.068  0.1598  0.2904  0.2382
18631OCT     C137261   0.909   0.230   2.546  0.3095 -0.2273 -0.1169
18631OCT     C237262   1.357   0.090   2.522  0.0514 -0.0919 -0.0429
18632OCT     C137263  22.471  20.544  12.130  0.1856 -0.3516  0.1654
18632OCT     C237264  22.729  20.223  12.030  0.0061  0.0618 -0.0465
18633OCT     C137265  19.876   5.036  12.343 -0.2596  0.2701  0.0483
18633OCT     C237266  19.485   4.996  12.610 -0.0358  0.2369  0.1737
18634OCT     C137267   7.907   1.481   9.480  0.0405  0.1507 -0.2596
18634OCT     C237268   7.910   0.997   9.619 -0.2612  0.2513  0.3047
18635OCT     C137269  10.785   9.243   9.186 -0.2335 -0.0254  0.2572
18635OCT     C237270  10.795   9.662   9.018  0.0149 -0.0162  0.1579
18636OCT     C137271  11.962  17.982   1.667 -0.4307 -0.1215 -0.1776
18636OCT     C237272  11.911  17.718   2.086  0.0322 -0.0851 -0.2646
18637OCT     C137273   2.044   5.092   2.963 -0.1208  0.1178 -0.0631
18637OCT     C237274   1.917   5.353   2.582  0.3746  0.3031 -0.2427
18638OCT     C137275  15.853   8.397   4.117  0.0884 -0.1928  0.0752
18638OCT     C237276  15.508   8.315   4.406  0.3167  0.3632 -0.0981
18639OCT     C137277  14.862  19.388   4.865  0.2199  0.1470  0.2776
18639OCT     C237278  14.687  19.802   4.864 -0.0445  0.0774 -0.4135
18640OCT     C137279  20.917  20.676  10.127  0.0396  0.1969  0.1933
18640OCT     C237280  20.854  21.118  10.086  0.1153 -0.1940 -0.1036
18641OCT     C137281  18.655  15.065   9.774  0.0616  0.3599 -0.0720
18641OCT     C237282  18.629  14.595   9.739  0.0232  0.2701  0.3140
18642OCT     C137283   5.198   4.306  11.171  0.1513  0.3196  0.1440
18642OCT     C237284   4.775   4.568  11.256 -0.0687 -0.0561  0.2023
18643OCT     C137285  13.518   2.094  20.375  0.0521  0.1479  0.2631
18643OCT     C237286  13.153   2.280  20.584  0.1455 -0.0232 -0.0642
18644OCT     C137287   5.087  13.856   5.193  0.0508  0.0397 -0.2438
18644OCT     C237288   5.247  13.920   5.626 -0.4388 -0.0438  0.0715
18645OCT     C137289   2.515   8.617  19.010 -0.2205  0.1736  0.2311
18645OCT     C237290   2.812   8.700  18.626 -0.0534  0.0890 -0.3268
18646OCT     C137291   4.032  14.547  13.637 -0.1424 -0.1596 -0.1305
18646OCT     C237292   4.060  14.696  13.138 -0.0096  0.1220  0.2097
18647OCT     C137293   7.071   6.477   0.315 -0.2805 -0.0750 -0.0488
18647OCT     C237294   6.856   6.563  23.671  0.5056 -0.0232  0.2939
18648OCT     C137295  10.314   4.227  14.968  0.0803  0.1932 -0.1842
18648OCT     C237296   9.917   4.325  15.128  0.0766 -0.1460  0.4132
18649OCT     C137297   9.189   0.602  11.351 -0.0582 -0.2237  0.1135
18649OCT     C237298   9.302   0.989  11.198  0.0335 -0.2133  0.3431
18650OCT     C137299  15.703   0.226  21.992  0.2321 -0.1402  0.1035
18650OCT     C237300  16.041   0.483  21.756  0.2196  0.1765 -0.3134
18651OCT     C137301  15.408   7.345  17.950  0.1262 -0.0444  0.2147
18651OCT     C237302  15.531   7.268  17.489  0.2193  0.1910  0.0490
18652OCT     C137303  16.230  16.995  12.276 -0.4007 -0.0988  0.2030
18652OCT     C237304  16.051  16.756  12.661  0.3963  0.1923 -0.1343
18653OCT     C137305  10.186  13.579  11.165 -0.0669 -0.0531  0.0551
18653OCT     C237306  10.375  13.767  11.554 -0.1872  0.2680  0.1474
18654OCT     C137307  15.638  11.490   1.543  0.1215  0.0924 -0.2590
18654OCT     C237308  15.414  11.197   1.204 -0.1137 -0.2018 -0.0383
18655OCT     C137309   5.512   3.830  14.981 -0.2541  0.2962  0.0697
18655OCT     C237310   5.778   3.877  14.608 -0.1011  0.2950  0.1192
18656OCT     C137311   3.431  17.404   1.033  0.5605 -0.0362 -0.1301
18656OCT     C237312   3.591  17.093   1.384 -0.3595 -0.2577 -0.4336
18657OCT     C137313   4.165   9.280   2.194  0.1318 -0.2387 -0.0488
18657OCT     C237314   4.324   9.236   2.634  0.0659 -0.2728  0.1615
18658OCT     C137315   7.660   6.751  23.733 -0.1313 -0.0213 -0.1320
18658OCT     C237316   7.660   6.455   0.333  0.0028  0.2812  0.0022
18659OCT     C137317  13.968  16.180  20.636  0.0325  0.1515 -0.5423
18659OCT     C237318  13.702  16.204  21.035 -0.3090 -0.0519  0.0670
18660OCT     C137319  17.676  11.944  17.124  0.0392 -0.2318 -0.1475
18660OCT     C237320  17.969  12.203  16.942  0.0078 -0.2259  0.1467
18661OCT     C137321  18.222  21.250  19.897  0.0643  0.0494  0.4882
18661OCT     C237322  17.931  21.083  19.559  0.0604 -0.2899 -0.1838
18662OCT     C137323   3.629   3.007  10.094 -0.4343  0.0970  0.2981
18662OCT     C237324   4.137   2.880   9.982  0.4347 -0.0633  0.2750
18663OCT     C137325   0.280  18.150   7.600 -0.0677 -0.1160  0.2975
18663OCT     C237326   0.100  18.304   7.276 -0.0814  0.0279  0.0990
18664OCT     C137327  17.184  15.634  19.244 -0.1069  0.0501 -0.1924
18664OCT     C237328  17.391  16.066  19.165 -0.2100 -0.6208  0.4107
18665OCT     C137329   2.081  21.477  12.590 -0.0207  0.0679 -0.2751
18665OCT     C237330   1.837  21.122  12.574 -0.0076 -0.5014 -0.4675
18666OCT     C137331  13.829   0.509  20.429  0.2064 -0.2064  0.0710
18666OCT     C237332  13.957   0.452  20.863 -0.1563  0.2751  0.2867
18667OCT     C137333  22.392  14.490   6.640 -0.1433 -0.0084  0.3038
18667OCT     C237334  22.286  14.646   6.215 -0.0268  0.0060  0.1715
18668OCT     C137335  21.343  17.347  15.290 -0.2074 -0.0257 -0.1418
18668OCT     C237336  21.460  16.920  15.155  0.0680 -0.2524  0.0606
18669OCT     C137337  10.378  16.919  12.850 -0.1993  0.0259  0.1407
18669OCT     C237338  10.656  16.650  12.600 -0.5617  0.4016 -0.4393
18670OCT     C137339   6.498   9.958  15.226 -0.4364  0.0703 -0.0851
18670OCT     C237340   6.930  10.101  15.061 -0.1532  0.1381 -0.2406
18671OCT     C137341  17.737   1.994  21.093  0.0995  0.0924  0.2372
18671OCT     C237342  17.611   1.727  20.760 -0.3539  0.1391  0.3058
18672OCT     C137343  12.046   5.750   5.483  0.5729  0.1537 -0.0529
18672OCT     C237344  12.157   5.821   5.031  0.1785 -0.1768  0.2794
18673OCT     C137345   8.380   6.176   8.962 -0.0027 -0.1116 -0.2066
18673OCT     C237346   8.402   5.694   8.920 -0.0932  0.0304 -0.0383
18674OCT     C137347  10.383   9.206   8.661 -0.2188  0.0865  0.3728
18674OCT     C237348  10.327   9.573   8.919 -0.0832  0.0108  0.1019
18675OCT     C137349  14.287  19.870  17.522  0.1690  0.1053  0.1201
18675OCT     C237350  14.631  19.860  17.213  0.2528 -0.2644  0.1215
18676OCT     C137351   7.153  10.345  21.548 -0.0570 -0.0608 -0.0646
18676OCT     C237352   7.517  10.266  21.245 -0.2244  0.3044  0.0244
18677OCT     C137353  10.136  19.939  18.205 -0.0731  0.1896 -0.0217
18677OCT     C237354   9.850  19.560  18.124  0.2989  0.1053  0.1955
18678OCT     C137355  20.114   1.648   1.813 -0.2877 -0.2319 -0.4723
18678OCT     C237356  20.450   1.474   2.033 -0.0013  0.0561 -0.1201
18679OCT     C137357  10.023   8.480   4.233  0.3521  0.1840 -0.1292
18679OCT     C237358   9.712   8.582   4.572 -0.0492  0.2999  0.1629
18680OCT     C137359  15.428   0.259   6.452  0.2114  0.0931 -0.2133
18680OCT     C237360  15.466  23.625   6.196 -0.1175 -0.3791  0.2152
18681OCT     C137361  22.388   1.317   0.635  0.4245 -0.1483 -0.1517
18681OCT     C237362  22.843   1.256   0.808 -0.0337 -0.1180  0.2424
18682OCT     C137363  16.177  17.706  17.808 -0.0473  0.4311  0.1775
18682OCT     C237364  15.798  17.624  17.592 -0.0835 -0.0881 -0.0724
18683OCT     C137365   4.650  16.048   1.394  0.0051 -0.1814 -0.3969
18683OCT     C237366   4.872  15.759   1.072  0.4543  0.1364 -0.4182
18684OCT     C137367  11.425   0.984  13.669  0.2567  0.0817 -0.0896
18684OCT     C237368  11.181   0.652  13.880 -0.0469  0.0578  0.2014
18685OCT     C137369  18.786  15.155   0.004 -0.0685 -0.0809 -0.3090
18685OCT     C237370  18.753  15.490   0.290 -0.1015  0.0033 -0.1205
18686OCT     C137371   3.153  22.429   0.382 -0.0020 -0.1953  0.1342
18686OCT     C237372   2.732  22.438   0.074 -0.6176  0.2325  0.3679
18687OCT     C137373   4.180  11.541  19.536 -0.0465  0.4492 -0.1774
18687OCT     C237374   4.544  11.266  19.546  0.1717 -0.2004  0.0522
18688OCT     C137375  20.902   5.288  23.376 -0.0602 -0.0853  0.0943
18688OCT     C237376  20.436   5.322  23.208 -0.1573  0.3233  0.0007
18689OCT     C137377  16.388  17.496  15.726 -0.3854  0.2299  0.0604
18689OCT     C237378  16.675  17.752  16.028 -0.3782  0.0509 -0.2116
18690OCT     C137379  23.311   0.272   6.608 -0.2409 -0.2387 -0.1452
18690OCT     C237380  23.307   0.404   7.073  0.2458  0.2861 -0.0544
18691OCT     C137381   4.832  23.348  15.483  0.1331 -0.0368  0.2173
18691OCT     C237382   4.710  23.454  15.919  0.1959  0.0291 -0.3552
18692OCT     C137383  18.075  16.503   1.328 -0.0964 -0.0913 -0.0105
18692OCT     C237384  17.608  16.460   1.286  0.2049 -0.2755 -0.3171
18693OCT     C137385  15.976  14.267  19.295  0.0716 -0.1255 -0.1996
18693OCT     C237386  15.811  14.657  19.037 -0.1413  0.0273  0.4059
18694OCT     C137387  17.191  22.557  18.802  0.1054 -0.0938  0.0641
18694OCT     C237388  17.587  22.644  18.600 -0.1702 -0.2862 -0.2058
18695OCT     C137389  17.167  15.332   8.426 -0.0575  0.2079  0.0666
18695OCT     C237390  17.292  14.969   8.697  0.0070 -0.0621 -0.1692
18696OCT     C137391  10.783   2.704  17.637 -0.0647 -0.2795  0.1075
18696OCT     C237392  10.762   2.788  17.150 -0.3179 -0.0988  0.2096
18697OCT     C137393   9.699   9.056   5.353  0.0976 -0.3377  0.3432
18697OCT     C237394  10.035   8.733   5.393 -0.0666  0.2658 -0.2031
18698OCT     C137395  17.324   7.703   8.367 -0.2300 -0.0085 -0.1256
18698OCT     C237396  17.191   7.283   8.274 -0.0745  0.0540 -0.0221
18699OCT     C137397   4.630  22.039  11.757  0.8568 -0.0587  0.3987
18699OCT     C237398   4.816  21.648  11.636  0.1899 -0.0672  0.1250
18700OCT     C137399   9.879  21.767  10.970  0.1683 -0.1097  0.0615
18700OCT     C237400   9.833  21.296  11.077 -0.2845 -0.2530  0.2444
18701OCT     C137401   0.793  23.733  16.545 -0.1602  0.2953 -0.0424
18701OCT     C237402   0.922  23.272  16.626 -0.0353 -0.2516 -0.0603
18702OCT     C137403  16.991  18.361  11.490  0.0018  0.2207 -0.2408
18702OCT     C237404  16.622  18.036  11.583  0.0520 -0.0438 -0.5187
18703OCT     C137405   1.919   5.231  18.650  0.0190 -0.1589  0.2202
18703OCT     C237406   1.840   5.543  19.087 -0.1834  0.0591 -0.0019
18704OCT     C137407  13.519  10.768  19.753 -0.1451  0.1872  0.2469
18704OCT     C237408  13.862  10.825  19.510 -0.0518 -0.2277 -0.0104
18705OCT     C137409   9.662   2.948  18.588 -0.2133 -0.4300 -0.4695
18705OCT     C237410   9.934   2.523  18.649 -0.2295  0.1446  0.2515
18706OCT     C137411  10.688  22.653  17.307  0.0427 -0.0359  0.3517
18706OCT     C237412  10.936  22.354  17.196 -0.0579 -0.1102  0.0089
18707OCT     C137413  21.834   8.096  11.069  0.2270 -0.0461 -0.2833
18707OCT     C237414  22.187   8.467  11.219 -0.0455  0.1979 -0.1692
18708OCT     C137415   2.504   0.854   2.605  0.3821 -0.0787  0.1321
18708OCT     C237416   2.178   1.131   2.866 -0.1593  0.1700  0.3142
18709OCT     C137417  12.261  20.461  20.584 -0.0701  0.1490 -0.1048
18709OCT     C237418  12.533  20.691  20.892 -0.0024 -0.1545  0.2174
18710OCT     C137419  17.119  20.379   9.692 -0.0718 -0.0536 -0.1034
18710OCT     C237420  17.103  20.109   9.326  0.2595  0.3093  0.1977
18711OCT     C137421  22.631  17.132   8.513 -0.0719 -0.0584 -0.1932
18711OCT     C237422  22.693  16.659   8.683  0.1115 -0.1496  0.2436
18712OCT     C137423  13.142  22.037  19.187  0.1555  0.2203  0.1601
18712OCT     C237424  13.040  22.330  18.805 -0.1335  0.0908  0.0322
18713OCT     C137425   8.315   9.773  23.713 -0.0500  0.1912 -0.1656
18713OCT     C237426   8.241   9.394  23.444  0.0376 -0.1487  0.0496
18714OCT     C137427   0.914   8.172   9.712  0.4212  0.0492 -0.0381
18714OCT     C237428   0.526   8.216   9.421 -0.0359  0.1457 -0.4013
18715OCT     C137429  20.978   0.282   0.773  0.1099 -0.1050  0.1660
18715OCT     C237430  20.778   0.565   1.059 -0.3093  0.0390 -0.1863
18716OCT     C137431   4.987  23.552  12.286  0.2021  0.1847 -0.4793
18716OCT     C237432   4.874  23.265  12.607  0.1067 -0.4408  0.2338
18717OCT     C137433   9.844  10.653  18.766  0.2555 -0.1392  0.2587
18717OCT     C237434   9.598  10.522  19.129  0.3432  0.0962  0.2193
18718OCT     C137435  19.350   4.306   3.963  0.0152  0.0176  0.3636
18718OCT     C237436  19.815   4.339   3.803 -0.0498  0.1329  0.2633
18719OCT     C137437  21.449  17.455  21.427 -0.2909  0.1815 -0.1562
18719OCT     C237438  21.468  17.322  21.838  0.3009  0.4333  0.1102
18720OCT     C137439  16.866  18.578   0.093 -0.0717 -0.3317 -0.2982
18720OCT     C237440  16.476  18.792   0.255 -0.1266 -0.3043 -0.0311
18721OCT     C137441   0.131   7.059  22.303  0.4717  0.0855 -0.0783
18721OCT     C237442  23.432   6.919  22.204  0.2407 -0.3378 -0.1418
18722OCT     C137443   2.742  16.147   6.354 -0.2762  0.1027  0.1661
18722OCT     C237444   2.604  16.651   6.292 -0.0539 -0.0108 -0.0673
18723OCT     C137445   2.214  14.080  15.484 -0.3035  0.2060 -0.1715
18723OCT     C237446   2.192  14.304  15.845  0.2983  0.4527  0.1319
18724OCT     C137447   7.928   7.529   7.578  0.1188  0.0455 -0.1525
18724OCT     C237448   7.667   7.618   7.235 -0.0597  0.0225 -0.2072
18725OCT     C137449  17.194  18.099  20.938  0.0538  0.1198 -0.0202
18725OCT     C237450  17.214  18.223  20.457 -0.0298 -0.1447 -0.0693
18726OCT     C137451   4.647  18.443   8.036 -0.1240  0.2179 -0.2365
18726OCT     C237452   4.968  18.764   8.029 -0.4383 -0.1650  0.0043
18727OCT     C137453   3.281  22.166  11.791 -0.3162 -0.0238 -0.2109
18727OCT     C237454   3.315  22.066  12.229  0.0021 -0.3060 -0.1956
18728OCT     C137455  18.169  13.215  21.720  0.0606 -0.2701  0.0604
18728OCT     C237456  18.450  13.450  21.417  0.2459  0.2199  0.0274
18729OCT     C137457   1.944   1.948   0.119  0.0564 -0.2494 -0.0346
18729OCT     C237458   1.787   1.511  23.717  0.0133 -0.0674  0.1379
18730OCT     C137459   5.668  16.373   8.733 -0.1442  0.1535 -0.1474
18730OCT     C237460   5.745  16.595   8.346 -0.2021 -0.1974 -0.9897
18731OCT     C137461  18.074  21.118   3.778  0.3381  0.2008  0.2707
18731OCT     C237462  17.854  20.892   4.077 -0.4248  0.0172  0.1646
18732OCT     C137463   9.388   2.051   9.729  0.1651  0.1507  0.0760
18732OCT     C237464   8.943   1.825   9.711  0.1432  0.0250 -0.1878
18733OCT     C137465   2.524   4.969  10.672  0.1229 -0.0284 -0.1386
18733OCT     C237466   2.450   4.790  10.248  0.2323 -0.0543  0.0267
18734OCT     C137467  18.764  16.846   0.170  0.0355 -0.1855 -0.1723
18734OCT     C237468  18.488  16.484   0.018 -0.0255  0.0281 -0.1038
18735OCT     C137469   0.943   8.607  12.816 -0.2219 -0.0119  0.1532
18735OCT     C237470   1.238   8.543  13.115  0.1381  0.1043 -0.1812
18736OCT     C137471   9.866  19.703   0.902 -0.0933  0.1481  0.3760
18736OCT     C237472   9.541  19.594   1.238 -0.1272 -0.1690  0.1807
18737OCT     C137473   2.350  20.405  14.952 -0.2106  0.4327 -0.4001
18737OCT     C237474   2.576  20.127  14.594 -0.2213 -0.0311 -0.0602
18738OCT     C137475   6.867   0.957  11.148  0.2452 -0.2377  0.3331
18738OCT     C237476   7.286   1.136  11.300 -0.0417  0.4039 -0.0735
18739OCT     C137477   5.725  19.069   8.705 -0.4170 -0.1972 -0.0225
18739OCT     C237478   5.464  18.792   8.448  0.1256 -0.1366  0.1456
18740OCT     C137479  19.994   1.892   7.643 -0.0092  0.3863 -0.0371
18740OCT     C237480  19.947   2.189   7.984  0.3189  0.0374 -0.0494
18741OCT     C137481  12.593   3.869  12.029 -0.0372  0.2683 -0.0933
18741OCT     C237482  12.619   4.129  12.396  0.0462  0.0176  0.1787
18742OCT     C137483  20.661  20.953  18.245  0.1251 -0.2984 -0.1851
18742OCT     C237484  21.109  21.027  18.107 -0.0657 -0.4049  0.1486
18743OCT     C137485  16.130  21.168  15.376 -0.1865 -0.1057  0.1651
18743OCT     C237486  15.989  20.742  15.408 -0.1264 -0.0255 -0.3081
18744OCT     C137487  10.798  23.131   0.928 -0.0409 -0.4036 -0.2058
18744OCT     C237488  10.906  22.894   1.287  0.0672  0.1043  0.2930
18745OCT     C137489  21.034   7.318  10.321 -0.2354  0.0278 -0.2510
18745OCT     C237490  20.865   7.053   9.939  0.1979  0.2616  0.2423
18746OCT     C137491  12.415   8.221  19.672  0.0280  0.0507  0.0959
18746OCT     C237492  12.205   8.669  19.731  0.1433  0.2180 -0.2284
18747OCT     C137493   0.525   2.641   5.745  0.2103 -0.2861  0.0658
18747OCT     C237494   0.460   2.254   5.971  0.2456  0.0672 -0.4405
18748OCT     C137495  14.606  20.341   4.000 -0.3847 -0.2944 -0.0034
18748OCT     C237496  14.344  20.743   4.194  0.2226 -0.1075  0.2243
18749OCT     C137497   8.593   0.764   7.456 -0.1839 -0.1326  0.1616
18749OCT     C237498   8.165   0.897   7.574 -0.0183 -0.3039  0.0487
18750OCT     C137499   7.922   4.141   2.167  0.0791 -0.0526 -0.2257
18750OCT     C237500   8.015   3.841   1.827 -0.1436  0.1673  0.2499
18751OCT     C137501  20.390  14.232   6.318 -0.3478  0.0859 -0.2257
18751OCT     C237502  20.611  13.944   6.119 -0.0330 -0.0650  0.6638
18752OCT     C137503   7.602  17.666   2.429  0.1064 -0.0756 -0.1911
18752OCT     C237504   7.585  17.810   2.842 -0.1316 -0.2744  0.3929
18753OCT     C137505  22.343  21.516   5.210  0.0745 -0.0458 -0.2823
18753OCT     C237506  22.113  21.151   5.385  0.3266  0.2546 -0.0866
18754OCT     C137507  15.651  10.713  19.006 -0.1139 -0.0472  0.1058
18754OCT     C237508  15.533  10.481  19.367  0.2650 -0.0946  0.0579
18755OCT     C137509  10.157  15.026   7.898  0.1651  0.3424 -0.1814
18755OCT     C237510   9.836  14.873   8.204  0.2847 -0.1431  0.0451
18756OCT     C137511   9.758  20.982   2.611  0.4084  0.0792 -0.1664
18756OCT     C237512   9.475  21.257   2.394 -0.1651 -0.0926 -0.0377
18757OCT     C137513  12.883   3.455   1.853  0.1346  0.1668  0.2345
18757OCT     C237514  12.534   3.306   2.093  0.3126 -0.0452 -0.0080
18758OCT     C137515   0.556  13.424  20.895  0.0480 -0.3866  0.5121
18758OCT     C237516   0.637  13.183  21.271 -0.1603 -0.0598 -0.0817
18759OCT     C137517   2.831  12.199   7.641  0.2127  0.0196 -0.3279
18759OCT     C237518   3.198  11.907   7.849  0.4314 -0.3676 -0.0315
18760OCT     C137519   5.295  15.745  22.277  0.0045  0.1691  0.2627
18760OCT     C237520   5.304  15.461  21.924 -0.1239  0.1853 -0.0831
18761OCT     C137521  12.467   7.655  20.869 -0.3581 -0.3301 -0.0571
18761OCT     C237522  12.861   7.513  20.652  0.0326 -0.2626  0.1355
18762OCT     C137523  19.916   7.623  19.794  0.2849  0.2024  0.2885
18762OCT     C237524  20.216   7.916  19.960  0.0293  0.0397  0.1090
18763OCT     C137525   4.189   5.529  17.898  0.1185 -0.0649  0.0389
18763OCT     C237526   4.071   5.139  17.932  0.2302  0.1174 -0.1124
18764OCT     C137527   4.803  10.979  21.230 -0.1611  0.2346 -0.0861
18764OCT     C237528   4.765  10.616  21.533  0.0967 -0.0156  0.1473
18765OCT     C137529  21.533   1.120  16.974  0.2911 -0.1220 -0.2284
18765OCT     C237530  21.172   0.879  16.752  0.0971 -0.0941  0.2728
18766OCT     C137531   1.981  13.781   5.647 -0.0142 -0.0381 -0.2282
18766OCT     C237532   2.227  14.131   5.521  0.1048 -0.1169 -0.0439
18767OCT     C137533   8.398  22.000   2.981 -0.3596 -0.1428 -0.1472
18767OCT     C237534   8.156  22.180   2.585  0.0074 -0.1158  0.1349
18768OCT     C137535  20.707   7.362   9.109 -0.2117 -0.0713 -0.1777
18768OCT     C237536  20.748   7.126   8.735 -0.1774  0.2854 -0.0880
18769OCT     C137537   6.984  23.029  22.063  0.2853  0.1636 -0.2227
18769OCT     C237538   7.206  23.264  22.413 -0.1186  0.1723 -0.2749
18770OCT     C137539  19.458  22.309   5.658 -0.1018 -0.0412 -0.4498
18770OCT     C237540  19.417  21.874   5.475 -0.1645 -0.0214  0.1143
18771OCT     C137541   3.905   4.715   2.280 -0.0143  0.0081 -0.3081
18771OCT     C237542   3.776   5.108   2.087 -0.3330  0.0076  0.6701
18772OCT     C137543   9.782  16.402   3.906  0.0647  0.2361  0.1078
18772OCT     C237544  10.112  16.186   3.625  0.2338 -0.4096 -0.1482
18773OCT     C137545  10.371  12.026  19.034  0.4003  0.3646 -0.0295
18773OCT     C237546  10.783  12.073  18.937 -0.1191  0.0761  0.1417
18774OCT     C137547   5.128   0.966   6.347  0.1774 -0.1097  0.3025
18774OCT     C237548   5.148   1.131   5.956 -0.0752  0.1190 -0.0230
18775OCT     C137549  22.623   7.044  11.615 -0.2279  0.2174  0.1521
18775OCT     C237550  23.101   7.057  11.617  0.1974 -0.0480  0.0359
18776OCT     C137551   7.772   8.256  22.684 -0.4845 -0.1628 -0.2596
18776OCT     C237552   7.839   8.218  23.172  0.1978  0.0693  0.3786
18777OCT     C137553  10.307  17.618   2.483 -0.0257 -0.2989 -0.2270
18777OCT     C237554  10.275  17.946   2.806 -0.0326 -0.2753  0.1083
18778OCT     C137555  13.687  16.219  11.713  0.0050  0.1401 -0.1398
18778OCT     C237556  13.330  16.528  11.740 -0.2572 -0.0699 -0.1641
18779OCT     C137557  21.829   7.967   4.727  0.0103 -0.1947  0.3785
18779OCT     C237558  21.636   7.538   4.796 -0.4674 -0.2971 -0.0119
18780OCT     C137559   7.441  16.364  18.181  0.1307 -0.1091 -0.0692
18780OCT     C237560   7.123  16.111  18.312  0.1163  0.3218 -0.0614
18781OCT     C137561   8.513  22.694   0.122 -0.0586 -0.1992  0.0415
18781OCT     C237562   8.285  22.863  23.564  0.3942  0.0071 -0.0712
18782OCT     C137563  22.441  21.980  15.022 -0.2538  0.0065 -0.0960
18782OCT     C237564  22.800  22.237  15.034  0.2283 -0.1198 -0.1533
18783OCT     C137565   4.747   3.582  14.798 -0.2720  0.3525 -0.1272
18783OCT     C237566   4.359   3.625  15.076 -0.3248 -0.4485  0.2248
18784OCT     C137567  21.098  14.147  13.102  0.2036 -0.0437 -0.3382
18784OCT     C237568  20.684  13.979  12.913  0.0128  0.0963 -0.1188
18785OCT     C137569  23.171  15.831  17.584  0.1557 -0.1608  0.7353
18785OCT     C237570  22.734  15.661  17.690 -0.4266  0.0738 -0.1228
18786OCT     C137571   4.048  10.072  13.084 -0.1480  0.1688 -0.1127
18786OCT     C237572   4.174  10.518  13.185  0.0565  0.2627  0.1992
18787OCT     C137573  22.820  13.860  19.076  0.0180  0.3276  0.0825
18787OCT     C237574  22.360  13.969  19.019  0.1151 -0.2635  0.2175
18788OCT     C137575  14.535  10.732   3.010  0.3811  0.1084 -0.1488
18788OCT     C237576  14.077  10.867   2.972 -0.4042  0.1802 -0.1172
18789OCT     C137577  19.989  12.413   6.534  0.0317 -0.2458  0.0139
18789OCT     C237578  19.800  12.515   6.882  0.0011  0.0232  0.2364
18790OCT     C137579  13.554  17.320  21.073  0.0271 -0.0124  0.0377
18790OCT     C237580  13.212  17.577  20.890  0.1233 -0.0730  0.0430
18791OCT     C137581   4.412   6.245  23.096 -0.3470  0.4285 -0.2147
18791OCT     C237582   4.349   5.831  22.989 -0.1016  0.1944 -0.1440
18792OCT     C137583  17.604   2.542  19.707  0.2008  0.2712 -0.0568
18792OCT     C237584  17.975   2.614  19.401 -0.1573 -0.0997  0.0775
18793OCT     C137585  14.011   1.139   7.298 -0.1715 -0.5048 -0.1431
18793OCT     C237586  14.339   1.151   6.940 -0.1023  0.2646 -0.1299
18794OCT     C137587  16.364   7.285   9.367  0.0092  0.0876  0.1802
18794OCT     C237588  16.449   7.474   9.784 -0.1714  0.2051 -0.2546
18795OCT     C137589  16.001   5.063   3.015  0.0253  0.0166 -0.1390
18795OCT     C237590  16.442   5.089   3.080 -0.2590  0.1422  0.2386
18796OCT     C137591  22.365  21.154   0.989 -0.0954  0.1317 -0.1457
18796OCT     C237592  22.537  21.590   0.799  0.0967  0.0467  0.3053
18797OCT     C137593  22.732  15.583  12.154 -0.0176 -0.0571  0.0235
18797OCT     C237594  23.138  15.339  12.343  0.2000  0.0975 -0.1506
18798OCT     C137595   0.793  19.745  17.001 -0.0520  0.1627  0.3059
18798OCT     C237596   1.037  20.033  16.765 -0.1434  0.1102 -0.4156
18799OCT     C137597  11.213   6.174  22.089 -0.1956  0.0784 -0.4267
18799OCT     C237598  11.267   5.712  21.994 -0.0547 -0.2208  0.3332
18800OCT     C137599   0.585   3.202   5.431  0.2820 -0.1509  0.0633
18800OCT     C237600   0.461   3.606   5.628 -0.1162 -0.2629  0.1544
18801OCT     C137601   1.946  14.303  18.433 -0.0260  0.0015 -0.0324
18801OCT     C237602   1.969  14.510  18.038 -0.2711  0.1028 -0.0757
18802OCT     C137603   6.287   4.999  19.032 -0.1224 -0.0345  0.0078
18802OCT     C237604   6.150   4.556  19.058 -0.4423  0.2749  0.2941
18803OCT     C137605  14.193   9.267  12.560  0.1057  0.2387 -0.1561
18803OCT     C237606  14.438   9.751  12.543  0.3794  0.3941  0.1911
18804OCT     C137607   7.502   9.299   8.151 -0.2152 -0.0048  0.1663
18804OCT     C237608   7.927   9.275   8.120 -0.1487 -0.2260  0.3069
18805OCT     C137609  16.944  11.491   6.641  0.6167  0.1119 -0.1275
18805OCT     C237610  16.686  11.729   6.923 -0.0588 -0.0171  0.1049
18806OCT     C137611   2.959   8.782   5.741  0.0850 -0.0591 -0.2737
18806OCT     C237612   2.913   8.435   6.000 -0.0271  0.2242  0.3668
18807OCT     C137613   8.217  19.199  15.150  0.1632  0.0388 -0.0814
18807OCT     C237614   7.721  19.277  15.100  0.2145 -0.1047 -0.0747
18808OCT     C137615  12.386  18.854   7.600 -0.1796  0.1887 -0.1427
18808OCT     C237616  12.661  19.136   7.816 -0.1900 -0.2064  0.1084
18809OCT     C137617  11.472  18.080   4.248 -0.1670 -0.2858  0.3835
18809OCT     C237618  11.514  18.237   3.765 -0.1690 -0.1231  0.0471
18810OCT     C137619  19.342  23.021  18.692  0.2396 -0.0492 -0.1190
18810OCT     C237620  19.600  22.635  18.747  0.1682 -0.0341  0.2099
18811OCT     C137621  18.924   2.236   5.936 -0.0387 -0.0003 -0.2522
18811OCT     C237622  19.037   2.388   6.353 -0.0593 -0.1817  0.3668
18812OCT     C137623   5.802  21.703  15.186 -0.1007 -0.0628  0.1801
18812OCT     C237624   5.732  21.868  15.574 -0.1894  0.3192  0.2072
18813OCT     C137625  20.317   6.784  11.505 -0.2556 -0.0086 -0.0475
18813OCT     C237626  20.655   6.950  11.785 -0.1011 -0.3317 -0.2550
18814OCT     C137627   8.077  22.031  22.826 -0.1780  0.1007  0.3545
18814OCT     C237628   8.049  22.522  22.908  0.1643  0.1784 -0.0843
18815OCT     C137629  12.205  16.593   5.663  0.1769 -0.1351 -0.2553
18815OCT     C237630  12.103  17.055   5.739  0.0839 -0.2162 -0.0854
18816OCT     C137631  18.433  14.018  21.929 -0.2162  0.0848  0.1681
18816OCT     C237632  18.209  13.892  21.550 -0.1285 -0.3493  0.1198
18817OCT     C137633  10.968   2.322   5.756 -0.1280  0.3236  0.3418
18817OCT     C237634  11.190   1.969   5.978  0.2611 -0.2212  0.3496
18818OCT     C137635  10.421  15.835  19.718 -0.0135  0.0120 -0.1669
18818OCT     C237636  10.354  16.087  19.359 -0.1160  0.4191 -0.0851
18819OCT     C137637   0.908  19.466   4.620 -0.0847  0.0413  0.0776
18819OCT     C237638   0.829  19.008   4.567 -0.2424 -0.0918 -0.2349
18820OCT     C137639  20.243   5.696   5.118 -0.0324  0.2865 -0.3298
18820OCT     C237640  20.164   5.311   5.395  0.0125 -0.0632  0.2235
18821OCT     C137641  14.272  21.005  17.787 -0.2842 -0.0352  0.0470
18821OCT     C237642  14.511  21.381  17.848  0.0120 -0.0689 -0.1613
18822OCT     C137643  19.358  17.827   1.158 -0.0088 -0.1696 -0.0498
18822OCT     C237644  19.605  18.082   1.470  0.2344 -0.1719  0.3663
18823OCT     C137645  21.409  10.428  18.132  0.0819  0.3223  0.0180
18823OCT     C237646  21.782  10.643  18.010 -0.0333  0.4505  0.3348
18824OCT     C137647  14.249   1.887  20.498 -0.2436  0.1856  0.0223
18824OCT     C237648  14.054   2.289  20.300  0.3701  0.0236 -0.1680
18825OCT     C137649  10.007  16.448  13.738 -0.1613  0.0355 -0.0456
18825OCT     C237650   9.837  16.125  13.423  0.0055 -0.0221 -0.1467
18826OCT     C137651   3.888   9.090   5.211 -0.1689  0.0475 -0.5865
18826OCT     C237652   3.715   9.201   5.647  0.0804  0.1591  0.2489
18827OCT     C137653  18.256   0.316  23.252  0.0782 -0.0015  0.1866
18827OCT     C237654  17.888   0.515  23.020  0.2017 -0.2137  0.0583
18828OCT     C137655   1.317   3.075   2.799 -0.2688 -0.2244 -0.1316
18828OCT     C237656   0.971   3.306   2.990  0.1055  0.1405  0.1012
18829OCT     C137657   0.567  12.377   7.643 -0.1085 -0.2421  0.4440
18829OCT     C237658   0.308  12.434   7.243  0.1496  0.2281 -0.1819
18830OCT     C137659  14.663  20.891  14.947  0.0008  0.2437  0.0676
18830OCT     C237660  14.686  20.425  14.844 -0.2995 -0.1198  0.3020
18831OCT     C137661   8.638  12.393  20.054  0.2326 -0.2844  0.0555
18831OCT     C237662   8.711  12.044  19.680 -0.3517 -0.1137 -0.2292
18832OCT     C137663   8.995  16.857   0.144 -0.0721  0.3110  0.1887
18832OCT     C237664   8.620  16.870   0.279  0.0678  0.4274 -0.1893
18833OCT     C137665   5.570  11.616   2.561 -0.1217  0.2730 -0.2519
18833OCT     C237666   5.697  11.755   2.131 -0.0016  0.2103  0.2522
18834OCT     C137667  20.794  17.430   9.354 -0.2162  0.3235 -0.5391
18834OCT     C237668  20.326  17.329   9.295  0.0607  0.2910  0.0506
18835OCT     C137669  21.562   9.141  14.630 -0.1437 -0.1938  0.2270
18835OCT     C237670  21.943   9.051  14.466  0.0299 -0.5871 -0.0014
18836OCT     C137671  19.811  19.793  10.885  0.1683 -0.0087  0.0956
18836OCT     C237672  19.857  19.742  10.440  0.2190 -0.0395 -0.3108
18837OCT     C137673  23.728  11.627   6.557  0.2130 -0.1153  0.0263
18837OCT     C237674  23.534  12.038   6.705 -0.3505 -0.0511 -0.0388
18838OCT     C137675  21.861  18.772   5.349  0.2633 -0.0103  0.0718
18838OCT     C237676  22.114  18.415   5.547  0.1002  0.1589  0.1454
18839OCT     C137677   9.385  17.792   6.956 -0.1795 -0.1464  0.0102
18839OCT     C237678   9.189  17.468   6.772  0.0158  0.2800  0.0276
18840OCT     C137679   1.890  17.050  16.749 -0.2367  0.1099  0.0872
18840OCT     C237680   2.064  17.176  17.115 -0.0743  0.8719 -0.1251
18841OCT     C137681   4.244  20.565  14.688  0.2937  0.1786  0.1776
18841OCT     C237682   4.142  20.996  14.550  0.2641  0.2676 -0.0332
18842OCT     C137683  13.915   4.464  23.027 -0.3800  0.1915  0.1431
18842OCT     C237684  13.566   4.149  23.248  0.1271 -0.1266  0.1438
18843OCT     C137685  21.501  16.081  22.869 -0.4305  0.1927  0.0366
18843OCT     C237686  21.063  16.182  22.896  0.2158  0.0152 -0.0028
18844OCT     C137687   0.306   3.786  17.489 -0.0256  0.1119 -0.2273
18844OCT     C237688  23.602   3.934  17.547 -0.1188  0.1785  0.0471
18845OCT     C137689  21.572  10.197   4.359  0.1227 -0.2410 -0.2385
18845OCT     C237690  21.364  10.039   4.762  0.2514 -0.0379 -0.1079
18846OCT     C137691   1.439   4.204  16.247  0.4312 -0.0286 -0.0431
18846OCT     C237692   1.387   3.738  16.159 -0.3587  0.3644 -0.0667
18847OCT     C137693  19.525   0.826   9.971  0.0359  0.2355 -0.1708
18847OCT     C237694  19.843   1.181   9.901 -0.0094 -0.3167 -0.0408
18848OCT     C137695   0.571  17.825  22.623 -0.3840 -0.4212 -0.0914
18848OCT     C237696   0.978  17.579  22.525 -0.0916  0.0438 -0.3583
18849OCT     C137697   7.020   1.066   8.645  0.4562 -0.2226  0.1431
18849OCT     C237698   6.895   0.644   8.797 -0.1957  0.4714 -0.1109
18850OCT     C137699   2.104  19.453  15.898  0.1058 -0.2257 -0.1230
18850OCT     C237700   2.022  19.887  15.749 -0.1465  0.0739 -0.0714
18851OCT     C137701  11.871   7.517  12.251 -0.3196 -0.1119  0.0302
18851OCT     C237702  12.359   7.403  12.144  0.2968  0.2785 -0.3945
18852OCT     C137703   1.416  22.427  19.250  0.1204  0.2025  0.0363
18852OCT     C237704   0.940  22.329  19.253  0.0535  0.3954 -0.5000
18853OCT     C137705  22.900  10.216  20.683 -0.2092 -0.3430 -0.4739
18853OCT     C237706  22.752  10.589  20.400 -0.3693  0.0020  0.1870
18854OCT     C137707   9.918   9.378  16.616 -0.1369  0.1098 -0.1337
18854OCT     C237708   9.856   9.463  16.182 -0.1868  0.1689  0.0362
18855OCT     C137709  15.459  12.885  18.966 -0.2416 -0.1989 -0.0528
18855OCT     C237710  15.207  12.500  19.019  0.2414  0.4022 -0.1246
18856OCT     C137711  22.836  18.452  14.924 -0.1872 -0.1672  0.0526
18856OCT     C237712  22.540  18.323  15.249 -0.0132  0.1688  0.3089
18857OCT     C137713  18.476   3.397  16.160  0.0675  0.1539 -0.0841
18857OCT     C237714  18.868   3.579  15.921 -0.1397  0.3414  0.0197
18858OCT     C137715  15.208   5.475   7.373  0.2895 -0.1868  0.0071
18858OCT     C237716  14.998   5.813   7.608 -0.3019 -0.0999  0.4030
18859OCT     C137717  17.023  15.433  23.567  0.2034 -0.2983 -0.0617
18859OCT     C237718  17.186  15.835  23.444  0.1240  0.2910  0.1903
18860OCT     C137719  23.356   8.290  15.740  0.1052 -0.1837 -0.2327
18860OCT     C237720  23.589   8.231  15.432 -0.4773  0.0363  0.1042
18861OCT     C137721  15.556  12.429  21.379  0.1236 -0.1474 -0.0480
18861OCT     C237722  15.895  12.282  21.643 -0.1412 -0.3831 -0.0804
18862OCT     C137723   9.051  15.800  14.673  0.1568 -0.1409  0.4095
18862OCT     C237724   9.464  15.886  14.780  0.0233  0.3768 -0.2333
18863OCT     C137725  20.726  18.432   5.893 -0.0495  0.2736 -0.1149
18863OCT     C237726  20.372  18.113   6.038 -0.2042  0.2578 -0.1589
18864OCT     C137727  10.219  20.053  11.558  0.0392  0.0998  0.3669
18864OCT     C237728  10.336  20.021  11.969  0.0462 -0.3768 -0.4710
18865OCT     C137729   6.305  15.922   7.320  0.4334 -0.1690  0.3583
18865OCT     C237730   6.104  15.705   7.688  0.0394 -0.1023 -0.1516
18866OCT     C137731   4.042  13.276  12.898  0.1720 -0.0288  0.5290
18866OCT     C237732   3.655  13.053  13.017  0.2581  0.1304 -0.0725
18867OCT     C137733  14.791   8.831   8.228 -0.0018 -0.2770 -0.2796
18867OCT     C237734  15.147   8.625   8.395  0.1176  0.1532  0.0769
18868OCT     C137735   3.136  19.792  16.554 -0.2474 -0.2958 -0.0691
18868OCT     C237736   2.668  19.858  16.678 -0.0634  0.0886 -0.1054
18869OCT     C137737  15.611   2.148  22.740  0.1030  0.3441 -0.0321
18869OCT     C237738  15.225   2.205  22.462 -0.1382 -0.1837 -0.2708
18870OCT     C137739   5.886  20.267   5.042 -0.1893 -0.1006  0.0893
18870OCT     C237740   6.106  19.823   4.891  0.0380  0.0967  0.2406
18871OCT     C137741  20.225   3.387  17.861  0.4473 -0.1275 -0.1706
18871OCT     C237742  19.923   3.767  17.728 -0.3918 -0.1746 -0.2237
18872OCT     C137743   5.853   0.170   7.722 -0.0736 -0.3045 -0.1651
18872OCT     C237744   5.484  23.674   7.836 -0.0563 -0.1040  0.2089
18873OCT     C137745  20.470  14.876   9.926 -0.0344 -0.0114 -0.0349
18873OCT     C237746  20.154  15.156  10.135 -0.0733  0.4530 -0.3047
18874OCT     C137747  16.046   8.532  15.243  0.0613  0.0157 -0.2602
18874OCT     C237748  16.026   8.748  14.840 -0.1613 -0.1036 -0.0974
18875OCT     C137749  12.316  10.335   3.133  0.0567  0.1938  0.5477
18875OCT     C237750  12.079  10.567   3.478  0.3013 -0.0677 -0.4254
18876OCT     C137751   2.516   2.996   1.773  0.3112 -0.1495 -0.1686
18876OCT     C237752   2.860   3.298   1.700  0.0756  0.1508  0.1819
18877OCT     C137753  21.586   3.666  14.468  0.1147 -0.0855  0.2430
18877OCT     C237754  21.587   3.863  14.042 -0.5215  0.0300  0.3614
18878OCT     C137755   9.083  10.526  14.350 -0.1050 -0.0756  0.0971
18878OCT     C237756   9.393  10.833  14.374  0.2049 -0.2584  0.0435
18879OCT     C137757   8.629  16.669   3.188 -0.3275  0.0281 -0.3951
18879OCT     C237758   8.179  16.756   3.301  0.4062 -0.0152 -0.1439
18880OCT     C137759   1.500   3.542   9.946  0.2169 -0.0558 -0.3601
18880OCT     C237760   1.552   3.398  10.440 -0.1172 -0.1372  0.3014
18881OCT     C137761   0.925   0.407   8.750 -0.0753  0.1766  0.3342
18881OCT     C237762   1.388   0.552   8.817  0.2679  0.0416 -0.1620
18882OCT     C137763  22.790  10.780  22.622  0.2090  0.1533 -0.0900
18882OCT     C237764  22.795  11.216  22.438 -0.0239 -0.0292  0.2527
18883OCT     C137765  19.883   7.621   5.985  0.4840 -0.2018  0.3103
18883OCT     C237766  20.308   7.739   6.177 -0.0155  0.4087  0.0996
18884OCT     C137767  22.503  22.424   2.045 -0.0216 -0.0126 -0.2621
18884OCT     C237768  22.162  22.180   1.842  0.1246 -0.5811 -0.1935
18885OCT     C137769  18.263  18.435  10.394 -0.3674 -0.0500 -0.2410
18885OCT     C237770  17.843  18.291  10.271 -0.1434  0.0500 -0.0256
18886OCT     C137771   9.173   5.033   5.648  0.1927 -0.2071 -0.2213
18886OCT     C237772   8.931   5.432   5.778 -0.0493  0.0697 -0.3160
18887OCT     C137773  18.400  13.506  18.545  0.1651 -0.0591 -0.1910
18887OCT     C237774  18.043  13.189  18.739  0.2847  0.2483  0.4613
18888OCT     C137775   2.956   8.126  15.911  0.4774  0.0873  0.0289
18888OCT     C237776   2.910   7.750  15.630  0.2341 -0.2684  0.0904
18889OCT     C137777   9.674   3.326   2.385 -0.0921  0.2871  0.1179
18889OCT     C237778   9.602   3.233   2.895 -0.0754  0.2947 -0.1080
18890OCT     C137779   6.865  20.658   3.031 -0.0020 -0.0453 -0.2086
18890OCT     C237780   7.307  20.652   3.191 -0.0549  0.0548 -0.0640
18891OCT     C137781  13.985   8.644   7.060 -0.2197  0.1475  0.1444
18891OCT     C237782  14.337   8.385   7.081 -0.1018 -0.0327  0.1706
18892OCT     C137783   4.395  11.119  17.390  0.1791 -0.3152  0.4010
18892OCT     C237784   4.293  11.344  17.758  0.1036  0.2628  0.4310
18893OCT     C137785  11.951  12.256   2.914 -0.0254 -0.2354 -0.3120
18893OCT     C237786  12.026  12.431   2.514  0.1329 -0.3078 -0.0070
18894OCT     C137787  17.516  20.113  15.764 -0.2400  0.0336  0.2385
18894OCT     C237788  17.378  20.313  16.141 -0.0337 -0.1915 -0.2941
18895OCT     C137789   8.970   2.506  21.950  0.0827  0.2001  0.0212
18895OCT     C237790   9.121   2.467  22.382  0.3111 -0.0571 -0.1952
18896OCT     C137791   8.451  20.609   4.199  0.2520  0.3426 -0.0732
18896OCT     C237792   8.638  20.971   4.276 -0.0300  0.1097  0.1943
18897OCT     C137793   5.124   9.972  14.755  0.2053 -0.3832  0.2074
18897OCT     C237794   5.337  10.407  14.693  0.0851  0.1554  0.1906
18898OCT     C137795  14.612  13.756   2.764 -0.0185 -0.0854  0.3056
18898OCT     C237796  14.714  14.137   2.429 -0.1241 -0.0628  0.2228
18899OCT     C137797  11.597  20.857  18.507  0.0621  0.2013  0.0407
18899OCT     C237798  11.902  20.524  18.407  0.3010  0.4206  0.0180
18900OCT     C137799  13.112  11.800  16.631  0.0646 -0.3271  0.0525
18900OCT     C237800  13.091  11.451  16.292 -0.0356  0.0275  0.4001
18901OCT     C137801   1.227  11.597   9.776  0.1003 -0.0142 -0.1771
18901OCT     C237802   0.984  11.994   9.651 -0.1488  0.2395 -0.1306
18902OCT     C137803   2.573  11.548  21.539 -0.1201 -0.0027 -0.1324
18902OCT     C237804   2.308  11.192  21.757 -0.4320 -0.2451 -0.2184
18903OCT     C137805   8.452  17.090  13.268  0.0116 -0.0730  0.2000
18903OCT     C237806   8.089  16.835  13.177  0.2473 -0.1415  0.0739
18904OCT     C137807  20.545  12.874   0.892 -0.1363 -0.3760  0.1442
18904OCT     C237808  20.264  12.844   1.291  0.3408  0.2206  0.0564
18905OCT     C137809  13.008  21.347  16.186 -0.0480 -0.4718 -0.0578
18905OCT     C237810  13.261  21.588  15.867  0.0346 -0.0884 -0.0179
18906OCT     C137811  21.338   0.255   4.152 -0.2896  0.0689 -0.3014
18906OCT     C237812  21.752   0.399   4.310 -0.1977  0.1917 -0.0736
18907OCT     C137813   4.364  12.097  20.344  0.1294 -0.4071 -0.3406
18907OCT     C237814   4.226  11.950  20.751 -0.0452  0.0042  0.0279
18908OCT     C137815  17.225  15.032  19.805  0.0589  0.1919  0.0566
18908OCT     C237816  16.919  15.428  19.724  0.3414  0.1454  0.2112
18909OCT     C137817  14.894  16.440   1.805  0.1893 -0.3435 -0.0535
18909OCT     C237818  15.181  16.647   1.521 -0.0862 -0.2195  0.2977
18910OCT     C137819  23.672   8.703  22.631  0.0905 -0.1933  0.1764
18910OCT     C237820  23.371   9.033  22.570 -0.1917  0.1013  0.2318
18911OCT     C137821  14.776   5.514  19.594 -0.3629  0.0194  0.1911
18911OCT     C237822  14.712   5.920  19.605  0.1056 -0.1999 -0.0687
18912OCT     C137823  17.371   0.391  12.427 -0.0746  0.0666  0.1589
18912OCT     C237824  17.197  23.676  12.430 -0.2412 -0.0377 -0.2191
18913OCT     C137825   8.039  22.863  16.318 -0.4449  0.0754 -0.4830
18913OCT     C237826   7.952  22.971  16.760  0.2846  0.2514  0.1244
18914OCT     C137827  16.584  10.489   6.388  0.0052  0.1200  0.0288
18914OCT     C237828  16.205  10.792   6.473  0.0353 -0.0876  0.1699
18915OCT     C137829   6.392  19.350   9.343  0.0491  0.1943 -0.2084
18915OCT     C237830   6.848  19.191   9.173  0.0869  0.1189 -0.1627
18916OCT     C137831   0.939   5.966  21.510  0.1275 -0.1248 -0.0600
18916OCT     C237832   0.912   5.981  21.071 -0.0188 -0.3416 -0.1601
18917OCT     C137833   0.053   4.318  14.531  0.0486 -0.2636 -0.1200
18917OCT     C237834   0.143   4.219  14.109  0.0989 -0.1763  0.0757
18918OCT     C137835  12.762   8.650   5.841  0.1474 -0.1099  0.1538
18918OCT     C237836  12.652   8.734   6.326 -0.1180 -0.1012 -0.1695
18919OCT     C137837  21.278   2.031   7.215  0.3540  0.1396 -0.0940
18919OCT     C237838  21.493   2.145   7.645 -0.1712 -0.0993  0.2626
18920OCT     C137839  16.855  16.080  14.803  0.0616  0.1284 -0.0384
18920OCT     C237840  16.476  16.323  14.586  0.0099  0.3640 -0.1466
18921OCT     C137841   3.904  18.266  22.163  0.0754  0.2033 -0.0532
18921OCT     C237842   4.115  18.546  22.446  0.4912  0.0654 -0.0764
18922OCT     C137843  13.227  18.333  17.593  0.0952  0.1144 -0.3443
18922OCT     C237844  13.208  18.614  18.006 -0.4032  0.4866  0.0531
18923OCT     C137845  20.845   4.163  17.578 -0.0101  0.0050  0.0132
18923OCT     C237846  20.672   4.245  17.187  0.0264 -0.1373  0.1121
18924OCT     C137847   6.683  13.916   5.676  0.0155  0.2395  0.0637
18924OCT     C237848   7.105  13.778   5.450 -0.1864 -0.2436  0.1740
18925OCT     C137849   1.395  17.195  16.753  0.2739 -0.2119  0.4990
18925OCT     C237850   1.413  17.650  16.879  0.0348 -0.4264  0.2032
18926OCT     C137851   9.936   2.340  15.690 -0.1847  0.1344 -0.2101
18926OCT     C237852   9.456   2.222  15.571 -0.5978  0.0935  0.0990
18927OCT     C137853  12.636   9.399  14.079 -0.1209 -0.0236 -0.3997
18927OCT     C237854  12.931   9.558  14.423 -0.1087  0.1341  0.3686
18928OCT     C137855  21.990   1.672   8.365 -0.0190  0.0089  0.0550
18928OCT     C237856  21.848   1.743   7.946  0.0169  0.0474  0.1555
18929OCT     C137857  15.009  21.091   8.805 -0.1580  0.0300 -0.0476
18929OCT     C237858  15.103  21.146   9.245 -0.1202  0.3962 -0.5139
18930OCT     C137859  21.878  22.891  14.903 -0.0169  0.0570  0.3630
18930OCT     C237860  21.647  22.892  15.324  0.3361 -0.0471 -0.3391
18931OCT     C137861  10.844  17.082   1.298  0.1605 -0.0507  0.1061
18931OCT     C237862  10.854  17.023   0.859 -0.1230  0.0115 -0.0104
18932OCT     C137863  20.509   3.322   6.022  0.0338 -0.3920 -0.2515
18932OCT     C237864  20.693   3.147   6.390  0.0737 -0.0768 -0.0807
18933OCT     C137865   2.471  18.955   5.227  0.0453 -0.1126 -0.1741
18933OCT     C237866   2.483  18.502   5.121  0.0844  0.4574 -0.2921
18934OCT     C137867   9.797  15.078   5.474 -0.1911  0.0439 -0.1239
18934OCT     C237868   9.347  15.204   5.431  0.0636 -0.2619  0.1388
18935OCT     C137869   9.397  18.174   1.122  0.0973  0.1582 -0.2182
18935OCT     C237870   9.547  17.743   0.970 -0.1181  0.0228 -0.0981
18936OCT     C137871   0.813  10.611   9.159 -0.2202 -0.1126 -0.0662
18936OCT     C237872   0.763  11.004   8.935 -0.1946  0.2462  0.0798
18937OCT     C137873  18.156   3.639   5.754 -0.0081  0.0636 -0.0518
18937OCT     C237874  18.371   3.260   5.741 -0.3557 -0.1675  0.3840
18938OCT     C137875   0.633   6.578   6.823  0.0747 -0.0673 -0.0517
18938OCT     C237876   0.193   6.360   6.787 -0.2161  0.3096 -0.1025
18939OCT     C137877   6.855  17.273  10.908 -0.1120  0.0338  0.0274
18939OCT     C237878   6.818  17.127  11.346  0.0031  0.2665  0.3272
18940OCT     C137879   1.813  13.760   7.252  0.0267 -0.4291 -0.0356
18940OCT     C237880   2.109  13.475   7.474  0.2274 -0.3633 -0.1042
18941OCT     C137881   0.131  20.803  20.063 -0.0457 -0.2822 -0.0721
18941OCT     C237882  23.643  21.122  20.260  0.0348 -0.0419  0.1401
18942OCT     C137883   7.016  15.124   6.254 -0.2197 -0.0749 -0.1271
18942OCT     C237884   6.787  14.884   5.929  0.6557  0.0308 -0.1821
18943OCT     C137885  12.575   4.219   8.404  0.1395 -0.2572  0.1238
18943OCT     C237886  12.324   4.572   8.187 -0.0606 -0.3382 -0.1817
18944OCT     C137887  20.050   1.890   4.587  0.2200  0.1128 -0.0308
18944OCT     C237888  20.033   1.797   4.127  0.0382  0.2297 -0.1916
18945OCT     C137889   0.033  20.014  16.632 -0.1190  0.2817  0.1806
18945OCT     C237890   0.351  19.580  16.626 -0.8494 -0.2059  0.0734
18946OCT     C137891   7.522   2.702  21.783 -0.0394 -0.1081 -0.2365
18946OCT     C237892   7.590   2.622  22.251 -0.5803  0.2064  0.3085
18947OCT     C137893  10.997  15.490   7.597  0.0504  0.4100  0.3067
18947OCT     C237894  10.930  15.001   7.533  0.4088  0.1145  0.0095
18948OCT     C137895  14.681   8.804   9.961 -0.0523  0.0594 -0.1962
18948OCT     C237896  14.995   8.535  10.208 -0.0018  0.3112 -0.2217
18949OCT     C137897  17.278   7.375   3.448 -0.0101 -0.1686  0.1356
18949OCT     C237898  17.642   7.122   3.375 -0.0982 -0.1991  0.2488
18950OCT     C137899  10.383   4.642   0.810  0.1444  0.0517 -0.2245
18950OCT     C237900   9.976   4.893   0.725  0.0029 -0.1395 -0.3495
18951OCT     C137901   3.988   2.703  14.513 -0.2484  0.2675 -0.3041
18951OCT     C237902   3.817   2.291  14.378  0.1755  0.3618  0.1596
18952OCT     C137903  11.180  22.780  18.777  0.1367  0.0196  0.2850
18952OCT     C237904  11.136  23.147  18.442  0.0931 -0.1654  0.1373
18953OCT     C137905   7.051   5.075   0.095  0.0065  0.2330  0.0720
18953OCT     C237906   7.289   5.258   0.482  0.1292 -0.1584  0.2688
18954OCT     C137907  17.215  22.669  13.804  0.2420 -0.3662 -0.0802
18954OCT     C237908  17.062  22.746  14.228  0.1085 -0.0266  0.3134
18955OCT     C137909  19.368   9.876   0.376  0.3624  0.0387  0.0278
18955OCT     C237910  19.694   9.957   0.023 -0.4090 -0.0752  0.2602
18956OCT     C137911  23.230   4.862  13.365 -0.0345 -0.0643 -0.1725
18956OCT     C237912  22.817   4.574  13.451  0.0225  0.0911 -0.4527
18957OCT     C137913  14.487   0.497   1.362 -0.1043  0.0215  0.2317
18957OCT     C237914  14.071   0.407   1.541  0.0462  0.2412 -0.0499
18958OCT     C137915  23.362  16.579   6.367 -0.2300  0.4613 -0.2476
18958OCT     C237916  23.565  16.191   6.187  0.0069  0.0696 -0.0504
18959OCT     C137917   1.284  19.684  12.459 -0.0313 -0.1365 -0.0091
18959OCT     C237918   1.234  19.209  12.644 -0.4754 -0.3562  0.2695
18960OCT     C137919  13.140   4.310   1.930 -0.3068  0.2839 -0.3534
18960OCT     C237920  12.877   3.952   1.933  0.0529  0.1755 -0.1212
18961OCT     C137921  10.688  17.830  17.474 -0.1096  0.1526 -0.0141
18961OCT     C237922  10.779  17.387  17.329 -0.1486  0.1403  0.0138
18962OCT     C137923  19.056   8.918  14.511  0.1591  0.0948 -0.0731
18962OCT     C237924  19.140   8.850  14.051  0.3906  0.2124 -0.1914
18963OCT     C137925  13.872  17.106  20.698  0.1319 -0.3252  0.2035
18963OCT     C237926  13.959  17.424  20.410 -0.3870  0.3107  0.0147
18964OCT     C137927   4.961   5.986   2.384  0.0019  0.0492 -0.0623
18964OCT     C237928   4.497   5.952   2.401 -0.2032 -0.2790 -0.4047
18965OCT     C137929  17.832  15.790  20.864  0.3957  0.1826 -0.2880
18965OCT     C237930  17.787  15.602  21.288 -0.1133  0.1320 -0.3161
18966OCT     C137931  12.407   6.967   4.433 -0.0477  0.0549 -0.1561
18966OCT     C237932  12.523   7.092   4.031  0.3120 -0.0284  0.1225
18967OCT     C137933   1.988   4.615   0.346 -0.0200 -0.0118  0.0427
18967OCT     C237934   2.129   5.040   0.084  0.1493  0.3774 -0.0637
18968OCT     C137935  15.923   1.294  18.433  0.1143 -0.0560 -0.1065
18968OCT     C237936  15.795   1.238  18.912 -0.2339 -0.0352 -0.0114
18969OCT     C137937  15.344  11.186   3.139 -0.1062  0.2359  0.4620
18969OCT     C237938  15.756  11.156   3.003  0.0577 -0.2824  0.0082
18970OCT     C137939  14.221  21.605  18.267  0.4022  0.0352  0.2165
18970OCT     C237940  14.033  21.995  18.193  0.2602 -0.3102  0.1145
18971OCT     C137941  17.890   1.671  13.359  0.1693  0.0665 -0.4205
18971OCT     C237942  17.605   1.328  13.364 -0.4609  0.2565 -0.0843
18972OCT     C137943   0.695  20.793   4.024  0.1867  0.0453 -0.3491
18972OCT     C237944   0.666  21.230   3.909 -0.1789  0.1536 -0.3427
18973OCT     C137945  10.864  11.605   8.629 -0.0465 -0.2703  0.0559
18973OCT     C237946  10.804  12.028   8.875  0.1247 -0.3175  0.1481
18974OCT     C137947  20.330   1.357  11.412 -0.5426  0.3707 -0.1811
18974OCT     C237948  20.592   0.966  11.209  0.2424  0.2221 -0.2068
18975OCT     C137949  20.893  11.797  21.770  0.1501 -0.1399 -0.0459
18975OCT     C237950  20.430  11.776  21.857  0.1618 -0.1057  0.0901
18976OCT     C137951  22.855  10.970   1.826  0.2960  0.1317  0.0578
18976OCT     C237952  23.059  10.789   2.222 -0.0457  0.1451  0.0395
18977OCT     C137953  11.402   2.275  15.097  0.1670  0.1121 -0.1428
18977OCT     C237954  11.716   1.957  15.246  0.0271  0.1022  0.0323
18978OCT     C137955  17.878   8.996  21.734  0.0034  0.0018  0.2609
18978OCT     C237956  18.180   9.290  21.938 -0.1611 -0.2917 -0.1714
18979OCT     C137957   7.323  11.307   0.102 -0.2737 -0.1006  0.1987
18979OCT     C237958   7.376  10.838   0.157 -0.0499 -0.1024  0.0711
18980OCT     C137959  14.015  13.675  13.201 -0.0914  0.1164 -0.1387
18980OCT     C237960  14.234  13.276  13.132 -0.0155 -0.4206  0.2757
18981OCT     C137961   0.102  17.070   3.073  0.1034  0.0386  0.1113
18981OCT     C237962  23.619  17.147   3.481 -0.1498  0.0743 -0.1256
18982OCT     C137963  15.840  23.073   3.256  0.1684  0.1419 -0.0416
18982OCT     C237964  16.189  23.358   3.428 -0.0028  0.0494 -0.4997
18983OCT     C137965  18.555  15.685  11.476  0.0066 -0.1578  0.2061
18983OCT     C237966  19.029  15.690  11.520 -0.1521  0.0479 -0.1354
18984OCT     C137967  13.205  12.526  19.545  0.2531  0.3445  0.3244
18984OCT     C237968  13.392  12.671  19.952 -0.3510 -0.3353 -0.4722
18985OCT     C137969  11.617   2.945   4.363  0.2435  0.0984 -0.4314
18985OCT     C237970  11.891   2.980   4.699 -0.0508  0.1271  0.6179
18986OCT     C137971  10.706  15.973  23.137 -0.2734 -0.1422 -0.0986
18986OCT     C237972  11.056  15.842  22.832  0.0885  0.1356 -0.1423
18987OCT     C137973   8.805   0.781  10.197  0.2160  0.0034 -0.0038
18987OCT     C237974   9.053   1.171  10.262  0.3106 -0.0906  0.1518
18988OCT     C137975   0.808  14.473  17.468  0.5466 -0.2904 -0.2062
18988OCT     C237976   0.666  14.141  17.229  0.4240 -0.1423  0.0624
18989OCT     C137977   3.376   9.687   2.533  0.3335  0.2634 -0.0595
18989OCT     C237978   3.597   9.792   2.958  0.1500 -0.0425 -0.2197
18990OCT     C137979  11.450  11.314   0.577  0.0179 -0.2751 -0.0814
18990OCT     C237980  11.172  11.466   0.225 -0.5298 -0.1139  0.0909
18991OCT     C137981   0.745  11.285   2.806 -0.3602 -0.2521 -0.0670
18991OCT     C237982   0.854  11.607   2.490 -0.1589  0.1438  0.1609
18992OCT     C137983  19.453  23.607  16.823 -0.0686  0.2903  0.0156
18992OCT     C237984  19.905  23.736  16.843 -0.3908 -0.1204  0.3406
18993OCT     C137985   8.689   1.354  21.159 -0.0228  0.2505 -0.0523
18993OCT     C237986   8.851   1.194  20.732  0.0757  0.2426 -0.0070
18994OCT     C137987   1.429   3.360  23.047 -0.1586 -0.3052 -0.2046
18994OCT     C237988   1.568   2.899  23.107 -0.0885 -0.0463 -0.3792
18995OCT     C137989  18.798   0.193  20.507 -0.3505  0.0694 -0.1228
18995OCT     C237990  18.714   0.546  20.742  0.0341 -0.0216  0.2062
18996OCT     C137991  13.283   6.705  18.637 -0.0051 -0.2904 -0.2603
18996OCT     C237992  13.652   6.496  18.457  0.2086 -0.2906 -0.0795
18997OCT     C137993  17.972  10.635  19.655  0.1077 -0.0651  0.0650
18997OCT     C237994  18.253  10.991  19.639 -0.0262 -0.1424 -0.1791
18998OCT     C137995  21.097   7.541   7.831 -0.1368  0.2245 -0.2064
18998OCT     C237996  21.483   7.781   7.903  0.3377 -0.1511  0.2137
18999OCT     C137997   1.927   0.415  13.919 -0.2152  0.3537 -0.0613
18999OCT     C237998   1.787  23.709  13.746 -0.2123 -0.2910 -0.0004
19000OCT     C137999  13.038  14.904  21.665 -0.1027  0.0953  0.2746
19000OCT     C238000  12.860  15.181  21.292  0.2035 -0.0784  0.1767
19001OCT     C138001  10.106   0.002  22.158  0.1088 -0.3030 -0.0222
19001OCT     C238002  10.437  23.732  21.815 -0.1160  0.1108  0.3981
19002OCT     C138003  14.466   9.984  10.970 -0.1192 -0.0527 -0.0018
19002OCT     C238004  14.226   9.605  11.009 -0.1639  0.0348  0.1279
19003OCT     C138005   6.156  19.766   1.522 -0.0709 -0.4657 -0.2221
19003OCT     C238006   6.295  19.827   1.977  0.1401 -0.3141  0.1038
19004OCT     C138007  12.370   9.116  21.251 -0.2164 -0.3129 -0.4704
19004OCT     C238008  12.310   8.770  21.547 -0.0171  0.1247  0.2632
19005OCT     C138009  18.875   6.528  17.230 -0.0985  0.0470  0.4592
19005OCT     C238010  18.949   6.971  17.303 -0.0351 -0.1704  0.1772
19006OCT     C138011   3.223  16.921   2.995 -0.0116 -0.1124 -0.1567
19006OCT     C238012   3.339  16.776   2.573 -0.1476 -0.1575  0.1764
19007OCT     C138013   4.123  21.832   1.481 -0.4968  0.1556 -0.0507
19007OCT     C238014   4.414  22.189   1.460 -0.2477  0.2582 -0.0012
19008OCT     C138015  16.781  22.299  14.260 -0.0114  0.2056  0.3148
19008OCT     C238016  16.946  22.138  13.808  0.0932  0.1122  0.0897
19009OCT     C138017  15.866  10.402  12.843  0.3124 -0.0583  0.1588
19009OCT     C238018  16.093  10.762  13.025 -0.0320 -0.0269 -0.0082
19010OCT     C138019  23.517  15.269  11.175 -0.2259 -0.0146 -0.1193
19010OCT     C238020  23.274  14.938  10.958 -0.1219  0.3163 -0.0634
19011OCT     C138021  17.003   5.097   0.071  0.1601 -0.0824  0.0963
19011OCT     C238022  17.288   4.979   0.402 -0.4586  0.4734 -0.5013
19012OCT     C138023  10.495   3.422  12.419  0.0026 -0.1135 -0.0457
19012OCT     C238024  10.747   3.800  12.355  0.0921  0.1515  0.1017
19013OCT     C138025  19.696  14.545   2.309  0.2088 -0.1429 -0.1649
19013OCT     C238026  19.349  14.858   2.236  0.0360  0.0384 -0.2733
19014OCT     C138027  13.621   7.067  18.454  0.3426  0.0013  0.2692
19014OCT     C238028  13.755   6.835  18.042 -0.3480  0.2027 -0.2195
19015OCT     C138029  22.275  12.212  12.033  0.0634  0.1643 -0.1764
19015OCT     C238030  21.901  12.523  11.945  0.2086 -0.0058 -0.1901
19016OCT     C138031   0.211   0.858  20.795 -0.1655 -0.2538 -0.1546
19016OCT     C238032   0.254   0.956  20.347  0.2734  0.0965  0.1335
19017OCT     C138033   5.435   9.318   6.540 -0.5352  0.0405 -0.0667
19017OCT     C238034   5.198   9.730   6.377  0.2217 -0.1194  0.1064
19018OCT     C138035  10.214  21.790  13.427 -0.0174 -0.0119  0.0556
19018OCT     C238036  10.383  21.384  13.102 -0.1007 -0.1909  0.2408
19019OCT     C138037  13.280  11.453  17.385 -0.2454  0.0957  0.2236
19019OCT     C238038  13.016  11.835  17.467  0.0161 -0.1750  0.0478
19020OCT     C138039   7.761   4.558  15.002  0.1534 -0.0800  0.0690
19020OCT     C238040   7.519   4.507  14.573  0.1725  0.0282  0.0206
19021OCT     C138041   1.680   0.794  18.800  0.1253  0.0217 -0.1337
19021OCT     C238042   1.383   0.529  18.993 -0.0085  0.4877  0.0459
19022OCT     C138043   9.506  17.301  16.843 -0.1593  0.1833 -0.0018
19022OCT     C238044   9.350  17.658  17.046 -0.1356 -0.2338  0.0147
19023OCT     C138045   8.210   4.335  11.534 -0.1361  0.0816  0.3162
19023OCT     C238046   8.532   4.701  11.694 -0.2571  0.1117  0.2102
19024OCT     C138047  10.286  16.367  14.732 -0.2529  0.0805 -0.0805
19024OCT     C238048  10.426  16.794  14.713 -0.0310  0.0218  0.0046
19025OCT     C138049  20.985  15.638   7.702 -0.2771  0.0403 -0.0172
19025OCT     C238050  20.694  15.457   7.387 -0.1260 -0.2982 -0.3880
19026OCT     C138051  15.056  23.641   8.186  0.2303 -0.1080  0.0110
19026OCT     C238052  15.324  23.614   8.590  0.1515 -0.0639 -0.1806
19027OCT     C138053  21.665  14.657   3.195 -0.1277  0.0360  0.0563
19027OCT     C238054  21.570  14.433   3.600  0.1996 -0.1583 -0.2185
19028OCT     C138055   0.505  13.274  19.422 -0.1295  0.2042 -0.2265
19028OCT     C238056   0.140  12.951  19.342 -0.2062 -0.3127  0.3422
19029OCT     C138057   0.553  21.461   3.366  0.2807  0.3759  0.3336
19029OCT     C238058   0.329  21.539   3.817  0.0955  0.2765  0.1594
19030OCT     C138059  13.517  17.077   6.324  0.1436  0.2388  0.2044
19030OCT     C238060  13.940  17.337   6.322  0.0559  0.1642 -0.0345
19031OCT     C138061   5.204  22.893  19.101 -0.2351 -0.0316 -0.4143
19031OCT     C238062   5.196  22.440  19.078  0.0106  0.3871 -0.2640
19032OCT     C138063  18.535  11.711   4.733 -0.0329  0.0947  0.0071
19032OCT     C238064  18.704  12.027   5.005 -0.0039 -0.0459 -0.2256
19033OCT     C138065  20.310  22.834   7.808 -0.0867 -0.0068 -0.1504
19033OCT     C238066  20.448  23.195   7.544  0.0913 -0.0436 -0.1147
19034OCT     C138067  19.627  21.993   1.819 -0.1459  0.3997 -0.0400
19034OCT     C238068  19.424  22.314   2.135  0.0037  0.3615 -0.0871
19035OCT     C138069  16.829   4.973   1.574  0.1954 -0.1927  0.1089
19035OCT     C238070  16.660   4.938   1.140 -0.5617 -0.0316 -0.1950
19036OCT     C138071  17.849  21.213   6.152 -0.0245  0.1068 -0.0173
19036OCT     C238072  17.556  21.082   6.486 -0.2664 -0.0570 -0.0576
19037OCT     C138073  21.142   7.890  16.127 -0.1000 -0.2295 -0.4084
19037OCT     C238074  21.438   7.665  16.446 -0.0606 -0.1529  0.1836
19038OCT     C138075  14.299  17.015  18.027 -0.2770 -0.1221  0.2179
19038OCT     C238076  14.313  16.724  17.685  0.3483  0.1843 -0.0354
19039OCT     C138077   3.245  17.412   3.189 -0.0633 -0.1764  0.0701
19039OCT     C238078   3.502  17.719   2.945  0.1136 -0.0903 -0.1644
19040OCT     C138079   5.264   6.198  10.450 -0.1919 -0.0203  0.5035
19040OCT     C238080   5.557   6.429  10.719  0.1142 -0.0307  0.1421
19041OCT     C138081  15.025   7.018  10.909  0.0214  0.1769 -0.2860
19041OCT     C238082  14.577   6.888  10.901  0.3463  0.2589 -0.0852
19042OCT     C138083   8.693   4.090  15.172 -0.2187 -0.1854  0.0459
19042OCT     C238084   8.915   4.342  14.778 -0.1675 -0.1234  0.0989
19043OCT     C138085   5.629   2.585   5.949  0.0085 -0.0205 -0.0718
19043OCT     C238086   5.422   2.210   6.107 -0.1581  0.2700  0.2472
19044OCT     C138087  20.266   4.955  15.842 -0.1163 -0.0496 -0.1733
19044OCT     C238088  19.940   4.584  15.780 -0.0834 -0.0143 -0.0833
19045OCT     C138089  16.089  12.017   2.229 -0.1303 -0.0831  0.4200
19045OCT     C238090  16.574  11.879   2.264  0.1543 -0.0347 -0.0625
19046OCT     C138091  17.847  23.076   5.791 -0.4038 -0.0092  0.4354
19046OCT     C238092  18.256  22.989   5.960 -0.1293  0.1370 -0.1811
19047OCT     C138093  19.593   7.361  15.107  0.0894  0.0717  0.0895
19047OCT     C238094  19.341   7.006  15.312  0.2850  0.0905 -0.1659
19048OCT     C138095   9.598  15.861  16.710 -0.0210 -0.1001  0.1662
19048OCT     C238096   9.346  15.511  16.792 -0.0515  0.2870  0.1078
19049OCT     C138097   8.849  20.753   0.528 -0.0110  0.1947  0.0267
19049OCT     C238098   9.009  21.031   0.861 -0.1058  0.0724  0.2998
19050OCT     C138099  20.402  16.313  10.594 -0.3349  0.1547  0.0240
19050OCT     C238100  20.558  15.887  10.651 -0.0188  0.0471 -0.0183
19051OCT     C138101   6.729   5.836   9.024  0.2341 -0.1016  0.0898
19051OCT     C238102   6.952   5.518   8.742 -0.1057  0.1120 -0.1235
19052OCT     C138103  14.916  20.995   5.739  0.1289 -0.2645  0.0418
19052OCT     C238104  15.045  20.700   6.125 -0.0004  0.0819 -0.0172
19053OCT     C138105  22.348   9.536   5.448  0.1392 -0.2643 -0.0619
19053OCT     C238106  22.745   9.477   5.686 -0.0695  0.3638 -0.2976
19054OCT     C138107   1.558  23.181  19.970  0.3429 -0.3891 -0.2814
19054OCT     C238108   1.385  23.149  20.359  0.0583  0.0824  0.2176
19055OCT     C138109  17.823  17.731  19.184 -0.0044 -0.0548 -0.2456
19055OCT     C238110  17.500  17.383  19.296  0.0575 -0.0238  0.0477
19056OCT     C138111   4.379  16.923  12.326  0.2407 -0.3953 -0.2018
19056OCT     C238112   4.306  16.672  11.906  0.1015 -0.3051 -0.1026
19057OCT     C138113  18.881  17.752   3.029 -0.1195 -0.0656  0.0452
19057OCT     C238114  19.207  17.886   2.737  0.0702 -0.1445  0.1123
19058OCT     C138115   2.924  10.509  17.115 -0.3925 -0.1484 -0.1513
19058OCT     C238116   3.313  10.359  16.870  0.1625 -0.3406 -0.0291
19059OCT     C138117   1.185  20.496  14.088 -0.0401 -0.1583  0.2380
19059OCT     C238118   0.920  20.819  14.220  0.0227  0.0307  0.0462
19060OCT     C138119   4.845  20.277  22.715  0.2550 -0.0820  0.3423
19060OCT     C238120   4.677  20.449  23.106  0.1812 -0.2769  0.1500
19061OCT     C138121  18.922  22.748  15.753 -0.0554  0.2352 -0.2631
19061OCT     C238122  19.339  22.966  15.801  0.0467 -0.3585 -0.0784
19062OCT     C138123  21.997  12.017   0.319 -0.1721 -0.2164 -0.0940
19062OCT     C238124  22.168  12.142  23.612 -0.0576  0.2116 -0.0994
19063OCT     C138125  17.295  12.627  14.696 -0.3975 -0.0809 -0.1131
19063OCT     C238126  17.602  12.644  15.056 -0.1389  0.2941 -0.0145
19064OCT     C138127   7.958  14.328   0.880 -0.1553  0.0495 -0.1634
19064OCT     C238128   7.807  14.783   0.958  0.1237  0.0573  0.0131
19065OCT     C138129   9.766  16.279   7.634  0.1903  0.1498  0.1497
19065OCT     C238130   9.354  16.320   7.743  0.1993  0.0665 -0.2694
19066OCT     C138131  15.806  21.020  18.661 -0.0372 -0.2210  0.2892
19066OCT     C238132  15.661  21.311  18.275  0.3009  0.0370 -0.0788
19067OCT     C138133  18.092  16.077  22.990  0.1676 -0.1325 -0.0489
19067OCT     C238134  17.730  16.382  22.882  0.3494 -0.0167 -0.1827
19068OCT     C138135  16.273  22.243   1.292 -0.1234  0.2753 -0.2440
19068OCT     C238136  16.688  22.006   1.526  0.1497 -0.0974 -0.0230
19069OCT     C138137   6.437  18.076  19.237  0.1172 -0.0830  0.1720
19069OCT     C238138   6.120  18.405  19.090  0.0129 -0.2529  0.2892
19070OCT     C138139  14.175  12.923  22.287 -0.0100 -0.0381  0.2104
19070OCT     C238140  14.413  12.523  22.275  0.0453  0.1034 -0.1386
19071OCT     C138141  17.459  10.930   0.008 -0.1275 -0.1075  0.0212
19071OCT     C238142  17.103  10.605  23.661  0.3381 -0.3101 -0.0482
19072OCT     C138143  16.886  18.933  11.227  0.0226  0.3001  0.4143
19072OCT     C238144  17.096  18.498  11.006 -0.0770 -0.0310 -0.0079
19073OCT     C138145  17.909  19.732  16.177  0.1808 -0.2182 -0.5392
19073OCT     C238146  18.325  19.602  16.244  0.2144 -0.2693 -0.1594
19074OCT     C138147   8.903  18.686  10.214 -0.4729  0.2495  0.0173
19074OCT     C238148   9.073  18.375  10.600  0.0472 -0.0865  0.0359
19075OCT     C138149   6.048  23.505  16.220  0.1711  0.2382 -0.2974
19075OCT     C238150   6.304  23.383  15.854 -0.1521 -0.0349  0.1376
19076OCT     C138151  22.476   5.293   9.106  0.0709  0.1257 -0.0194
19076OCT     C238152  22.774   5.160   8.767  0.2977 -0.2511 -0.0374
19077OCT     C138153   2.295   1.974   8.065 -0.4372 -0.2163  0.3904
19077OCT     C238154   2.157   2.052   7.575 -0.1223  0.0036  0.1046
19078OCT     C138155   7.882  14.078   5.307  0.0047  0.2667 -0.1144
19078OCT     C238156   8.221  14.257   5.043 -0.4963 -0.3937  0.0491
19079OCT     C138157  17.713   2.177  18.479  0.0434 -0.4817 -0.0164
19079OCT     C238158  17.654   2.614  18.384  0.0260 -0.1884 -0.2686
19080OCT     C138159  22.537  11.808  18.153 -0.2272 -0.0644  0.2104
19080OCT     C238160  22.565  11.369  18.123 -0.0684  0.0549  0.1627
19081OCT     C138161  15.885  20.716   3.937 -0.1156 -0.2568  0.5587
19081OCT     C238162  16.271  20.390   3.729 -0.0064 -0.3429  0.0847
19082OCT     C138163  10.622  10.362  23.217 -0.2693 -0.1577 -0.4303
19082OCT     C238164  10.297  10.670  23.064  0.1537 -0.2532  0.1203
19083OCT     C138165   9.734  23.275  15.243 -0.0178  0.2131  0.1612
19083OCT     C238166   9.869  23.302  15.701  0.0636 -0.1705 -0.2346
19084OCT     C138167   9.651  19.559  13.612 -0.0266 -0.2591 -0.2791
19084OCT     C238168  10.134  19.582  13.640 -0.1451 -0.1414 -0.1064
19085OCT     C138169  11.222  14.003   9.658  0.2854  0.5745  0.1800
19085OCT     C238170  11.642  13.826   9.473 -0.0437 -0.0118  0.0719
19086OCT     C138171  21.739   2.911  17.711 -0.1419 -0.0452 -0.1724
19086OCT     C238172  21.902   3.354  17.884  0.0570 -0.3475 -0.2169
19087OCT     C138173  16.403   1.704  13.820  0.0511 -0.5914  0.2517
19087OCT     C238174  16.668   1.368  13.753 -0.1899  0.0480 -0.1970
19088OCT     C138175  14.315  10.235  13.998  0.0542  0.5205  0.3550
19088OCT     C238176  14.480  10.008  14.409  0.0174  0.4797 -0.3101
19089OCT     C138177   0.434   5.825   3.803  0.1413 -0.3078 -0.4512
19089OCT     C238178  23.709   5.841   4.031  0.3394 -0.3682 -0.1630
19090OCT     C138179  18.987   9.960   2.363  0.5143  0.2827 -0.2997
19090OCT     C238180  19.152   9.938   2.798  0.1601  0.0320  0.0820
19091OCT     C138181   6.289  20.916   6.060 -0.1020  0.2084  0.2402
19091OCT     C238182   5.916  20.773   6.307 -0.0449  0.0348 -0.1484
19092OCT     C138183  16.219  14.481   5.890 -0.0662  0.2160 -0.2748
19092OCT     C238184  15.926  14.230   6.204 -0.2367  0.0504  0.2449
19093OCT     C138185  14.316  19.553  20.653  0.3162  0.0618 -0.1588
19093OCT     C238186  14.498  19.152  20.476  0.0656 -0.0133  0.0140
19094OCT     C138187  13.316   9.343   0.999 -0.1627 -0.1442  0.0128
19094OCT     C238188  12.890   9.410   1.004  0.2154  0.0493  0.3475
19095OCT     C138189  14.173   2.048  11.351 -0.1169  0.1606  0.1074
19095OCT     C238190  14.443   2.394  11.580  0.4439  0.0647 -0.0684
19096OCT     C138191   2.231   3.108   0.847 -0.1655 -0.1081  0.1573
19096OCT     C238192   2.316   2.936   0.438 -0.2194  0.1162  0.0168
19097OCT     C138193  18.664   5.090   0.210 -0.4548 -0.3091 -0.2661
19097OCT     C238194  18.323   5.162   0.503  0.2582 -0.0536  0.3929
19098OCT     C138195   9.899   6.643  11.263 -0.0563 -0.0621 -0.0489
19098OCT     C238196   9.636   6.791  10.920 -0.0943 -0.0404 -0.1449
19099OCT     C138197  14.356   6.521  11.220  0.0182  0.0273  0.1885
19099OCT     C238198  14.330   6.463  10.787 -0.1620  0.0442  0.0019
19100OCT     C138199   8.257  21.472  11.585 -0.0636  0.1764  0.1478
19100OCT     C238200   8.589  21.126  11.610  0.0623  0.0324 -0.2022
19101OCT     C138201  15.030  14.114   1.715 -0.3871  0.0342  0.1639
19101OCT     C238202  15.366  14.049   2.058 -0.0677 -0.1466  0.1428
19102OCT     C138203  17.988  22.103   5.512 -0.0324 -0.0434 -0.0774
19102OCT     C238204  18.124  22.575   5.588  0.1095  0.0967 -0.1149
19103OCT     C138205   5.507  22.242   2.660 -0.0868  0.3268 -0.2257
19103OCT     C238206   5.682  21.805   2.725  0.1508  0.0029  0.0590
19104OCT     C138207  22.760  14.194  19.463 -0.3675  0.0278  0.1657
19104OCT     C238208  22.945  13.766  19.633  0.2088 -0.4771 -0.0362
19105OCT     C138209   2.610   7.655   6.787 -0.0896 -0.1931  0.0274
19105OCT     C238210   2.445   7.263   6.947 -0.2212  0.2981  0.0271
19106OCT     C138211  16.669   3.510   0.039  0.1945 -0.3843 -0.0065
19106OCT     C238212  16.971   3.703   0.341 -0.1303  0.1525  0.1406
19107OCT     C138213   3.471   3.962  12.121  0.3495  0.0789 -0.2048
19107OCT     C238214   2.994   4.006  12.257  0.1241  0.0263 -0.3231
19108OCT     C138215   6.980   4.861  21.089  0.4054 -0.0515  0.0794
19108OCT     C238216   7.416   5.139  21.132  0.0022 -0.1659 -0.0474
19109OCT     C138217  17.054   7.253  22.249 -0.0152  0.0783 -0.2157
19109OCT     C238218  17.299   7.152  22.552 -0.0577  0.0259 -0.1130
19110OCT     C138219  17.123  15.686  14.766  0.1855 -0.2778  0.1068
19110OCT     C238220  17.568  15.812  14.763  0.2820  0.0959  0.0581
19111OCT     C138221  13.214  18.169   1.255 -0.1547 -0.1433  0.1656
19111OCT     C238222  12.771  18.022   1.153  0.2881 -0.1634  0.1390
19112OCT     C138223   2.865  18.598   3.821  0.2559 -0.3037 -0.1882
19112OCT     C238224   2.419  18.408   3.632 -0.8019 -0.2800 -0.0352
19113OCT     C138225  14.071   3.481  20.188 -0.0610 -0.0489 -0.2754
19113OCT     C238226  13.863   3.308  19.827  0.0671  0.2406  0.1195
19114OCT     C138227  10.704  12.056   1.140 -0.0461  0.1990  0.0798
19114OCT     C238228  11.117  12.029   0.981 -0.0958 -0.1246 -0.1357
19115OCT     C138229  16.771   1.929  19.318 -0.2642 -0.3619  0.1329
19115OCT     C238230  16.967   2.234  19.059 -0.1420  0.3502 -0.1165
19116OCT     C138231  20.682  14.589   3.082  0.2035 -0.3481 -0.0023
19116OCT     C238232  20.646  14.880   3.409 -0.1849 -0.1436  0.2302
19117OCT     C138233   4.369  13.106  22.581 -0.4542  0.0166 -0.0061
19117OCT     C238234   4.321  13.562  22.423  0.0772  0.1158  0.3838
19118OCT     C138235  21.174   4.737  11.037 -0.3754 -0.1035  0.0865
19118OCT     C238236  20.843   5.065  11.078  0.1876  0.2667  0.0024
19119OCT     C138237   8.540   4.325   8.140  0.0351  0.3509  0.2124
19119OCT     C238238   8.210   3.974   8.210 -0.0540  0.0409  0.0191
19120OCT     C138239   3.315  21.613  19.160 -0.0779 -0.2023  0.0146
19120OCT     C238240   2.867  21.547  18.954  0.0195  0.0014  0.0575
19121OCT     C138241  23.701   0.970  16.563  0.1200 -0.5489  0.1038
19121OCT     C238242  23.695   0.701  16.175  0.1904  0.1227 -0.0912
19122OCT     C138243   3.867  11.818   2.555 -0.0232  0.0570 -0.1698
19122OCT     C238244   4.230  11.488   2.584 -0.2638  0.0306 -0.0879
19123OCT     C138245   4.642   5.924  15.385  0.1740 -0.2689  0.0802
19123OCT     C238246   4.586   5.597  15.045  0.0778  0.0188  0.0753
19124OCT     C138247   5.539   0.238  18.343  0.3622  0.1199  0.2479
19124OCT     C238248   5.725  23.710  18.680 -0.1502  0.0358 -0.3361
19125OCT     C138249   4.085   0.931  20.779 -0.1727 -0.0101 -0.1573
19125OCT     C238250   4.447   1.151  21.000 -0.1785 -0.4344  0.1182
19126OCT     C138251   4.533   1.640  14.518 -0.5558 -0.0143  0.1789
19126OCT     C238252   4.447   1.204  14.330  0.3009 -0.0388  0.0885
19127OCT     C138253  13.396   5.173  12.800 -0.2911 -0.0310 -0.2264
19127OCT     C238254  13.421   4.714  12.644  0.1667 -0.1001  0.3198
19128OCT     C138255   1.015   6.248  11.619 -0.2474  0.0641  0.1840
19128OCT     C238256   1.204   6.275  11.178 -0.0090  0.0316 -0.0552
19129OCT     C138257  10.286   1.214   5.548  0.3030  0.2688 -0.3107
19129OCT     C238258  10.294   1.684   5.436 -0.0548  0.0574  0.2032
19130OCT     C138259  20.532  17.466   5.253  0.3537  0.0543 -0.0411
19130OCT     C238260  20.937  17.561   5.346 -0.0742  0.1586 -0.1131
19131OCT     C138261   1.809  10.304   4.470  0.1019  0.0631  0.1084
19131OCT     C238262   1.361  10.104   4.543 -0.2978 -0.2871 -0.1532
19132OCT     C138263  12.266   6.335  23.259  0.1842 -0.1815  0.0062
19132OCT     C238264  11.876   6.145  23.086 -0.2968  0.1429 -0.2073
19133OCT     C138265  10.354   2.232   8.718 -0.1603 -0.1854  0.1718
19133OCT     C238266  10.597   2.235   8.364 -0.1267  0.0391  0.1259
19134OCT     C138267   5.042   6.072   9.162 -0.0208 -0.0186 -0.2188
19134OCT     C238268   4.899   5.819   8.766 -0.4201 -0.0618 -0.2644
19135OCT     C138269   9.379  10.658  23.369  0.0020 -0.0804  0.1460
19135OCT     C238270   8.919  10.532  23.493  0.0810 -0.2637  0.1776
19136OCT     C138271   7.983  15.704   0.789  0.0323 -0.2207 -0.2626
19136OCT     C238272   8.111  16.091   1.069 -0.1898  0.3914  0.0043
19137OCT     C138273   5.253  12.579   2.269  0.1985  0.1498  0.1763
19137OCT     C238274   5.558  12.804   1.994  0.0958  0.1577 -0.0988
19138OCT     C138275  18.922   8.931  10.196 -0.2919  0.0180  0.0123
19138OCT     C238276  19.139   9.291  10.443 -0.4470 -0.3191  0.2770
19139OCT     C138277  10.606   1.356  10.261 -0.3874 -0.1356 -0.1422
19139OCT     C238278  10.828   1.684  10.095  0.0491  0.2278 -0.1688
19140OCT     C138279  14.750  13.253   4.584  0.1930  0.0739 -0.1286
19140OCT     C238280  14.848  13.407   4.997 -0.1268 -0.0276 -0.2706
19141OCT     C138281  10.198   3.614  13.114  0.0363 -0.0513 -0.0478
19141OCT     C238282  10.223   3.273  12.813  0.0546 -0.0044 -0.2663
19142OCT     C138283  19.469   5.783   7.345  0.0973  0.1620  0.3458
19142OCT     C238284  19.394   5.920   6.882  0.0466 -0.0104 -0.3407
19143OCT     C138285   2.935   3.866  23.340  0.3338 -0.3251  0.0931
19143OCT     C238286   3.051   4.340  23.443 -0.2799  0.1607 -0.1506
19144OCT     C138287  11.363  22.207   9.793  0.2192 -0.1620  0.2584
19144OCT     C238288  11.605  22.369  10.102 -0.0299  0.0432  0.0346
19145OCT     C138289  17.134   4.933   8.366  0.0879  0.0695 -0.1051
19145OCT     C238290  17.269   4.467   8.432 -0.0372 -0.0201  0.0873
19146OCT     C138291   0.436   1.957   9.931 -0.2803 -0.2691  0.3595
19146OCT     C238292   0.741   1.847  10.218 -0.1960  0.3501  0.1239
19147OCT     C138293   7.123  16.985   3.537 -0.6123  0.1355  0.2165
19147OCT     C238294   7.563  17.151   3.623  0.0257 -0.1185 -0.4276
19148OCT     C138295  11.626   6.246   2.106  0.1457  0.0121 -0.3831
19148OCT     C238296  12.056   6.354   2.271 -0.1898  0.1817 -0.1825
19149OCT     C138297  19.825  14.019  17.774  0.0365  0.2686 -0.0943
19149OCT     C238298  19.705  13.634  17.945  0.3586  0.2609 -0.3752
19150OCT     C138299   0.964  20.882  10.848  0.2043  0.1120  0.0664
19150OCT     C238300   0.909  21.374  10.662  0.0274  0.0931 -0.1513
19151OCT     C138301   4.417   3.090  18.266 -0.2564  0.0988 -0.2667
19151OCT     C238302   4.501   3.584  18.233 -0.2079 -0.1367 -0.1985
19152OCT     C138303  12.532  11.715   4.865 -0.3433 -0.2263  0.0033
19152OCT     C238304  12.112  11.488   4.729  0.0542 -0.0232 -0.2365
19153OCT     C138305  11.464  21.359  12.108 -0.4483 -0.0566 -0.3573
19153OCT     C238306  11.722  20.985  11.929  0.0304  0.3444 -0.2211
19154OCT     C138307   6.329  19.404   8.164 -0.1331  0.3121 -0.3303
19154OCT     C238308   6.640  19.302   8.518 -0.2263  0.1600 -0.1582
19155OCT     C138309   4.086   7.461   2.197 -0.1647  0.0290 -0.2026
19155OCT     C238310   4.214   7.193   2.637  0.0874 -0.0564  0.0997
19156OCT     C138311  13.237  10.794  16.922 -0.2860 -0.1072 -0.0483
19156OCT     C238312  13.439  10.935  17.329  0.0247 -0.2876 -0.0065
19157OCT     C138313  14.361  13.642   1.020  0.0159 -0.3992  0.1568
19157OCT     C238314  14.073  13.306   1.169  0.0054 -0.2865  0.1142
19158OCT     C138315  12.018   8.473  13.411 -0.3484  0.4997 -0.0004
19158OCT     C238316  12.010   8.979  13.359  0.1318  0.2594 -0.1850
19159OCT     C138317  20.232   3.610  15.290 -0.3047  0.5181  0.0619
19159OCT     C238318  20.405   3.275  15.048  0.0650 -0.1461  0.1849
19160OCT     C138319  10.563  15.032  21.478 -0.1791 -0.1571 -0.2077
19160OCT     C238320  10.814  14.730  21.202  0.0782  0.2498  0.0485
19161OCT     C138321   8.066  11.679  18.215  0.0045 -0.1155  0.0523
19161OCT     C238322   8.487  11.568  18.064  0.0070  0.5732  0.1178
19162OCT     C138323   3.894  12.700  10.951 -0.0748 -0.2080  0.0885
19162OCT     C238324   3.501  12.546  11.008  0.0700 -0.0200  0.3659
19163OCT     C138325  10.240  14.876   5.472 -0.0164 -0.0834  0.1569
19163OCT     C238326  10.109  14.952   5.909  0.0651 -0.0590 -0.0395
19164OCT     C138327   8.555  14.848  22.372  0.2745  0.3337 -0.0611
19164OCT     C238328   8.746  15.189  22.513 -0.2095  0.3668 -0.2541
19165OCT     C138329   0.585   9.773  16.231  0.4434  0.2578 -0.0044
19165OCT     C238330   0.882   9.421  16.278 -0.1842  0.1176 -0.0645
19166OCT     C138331   9.410   8.330  18.370  0.1911  0.2091 -0.0922
19166OCT     C238332   9.845   8.517  18.271 -0.2937 -0.0429  0.1024
19167OCT     C138333   5.026  23.039  12.197 -0.4221 -0.0362  0.1390
19167OCT     C238334   5.357  23.259  12.406 -0.3005  0.0872  0.0629
19168OCT     C138335  12.097   2.902  14.949  0.0610 -0.3025  0.1640
19168OCT     C238336  11.812   2.889  14.611 -0.2490  0.1531 -0.0562
19169OCT     C138337  21.019  20.563  17.723 -0.1565  0.0150  0.0323
19169OCT     C238338  20.821  20.452  18.142  0.3733 -0.0728 -0.2514
19170OCT     C138339  12.149  19.497   5.733  0.1951  0.1867  0.0289
19170OCT     C238340  12.556  19.571   5.467  0.4105  0.2763 -0.0085
19171OCT     C138341   4.420   6.003  16.776 -0.3354  0.0576  0.0102
19171OCT     C238342   4.572   6.112  16.381  0.1388  0.1942  0.2966
19172OCT     C138343   5.179   8.266  11.500  0.4360  0.3090  0.0112
19172OCT     C238344   4.831   8.119  11.834  0.3174 -0.3357  0.2291
19173OCT     C138345   8.719  10.771   0.713  0.0585 -0.3896 -0.0789
19173OCT     C238346   8.579  10.810   0.232 -0.0574 -0.1583  0.2426
19174OCT     C138347   2.784   5.218   8.685 -0.0101 -0.1342 -0.0246
19174OCT     C238348   2.314   5.238   8.749  0.0999 -0.0260  0.3965
19175OCT     C138349  22.184   2.905   0.913  0.0217 -0.4971  0.2886
19175OCT     C238350  22.481   2.688   1.187 -0.0307 -0.3849  0.0120
19176OCT     C138351  17.089  14.615  17.660 -0.0553  0.0374 -0.1022
19176OCT     C238352  16.655  14.483  17.714  0.1304  0.1218  0.4305
19177OCT     C138353   4.791  23.445  20.441 -0.2375  0.2469  0.3029
19177OCT     C238354   4.926  23.008  20.301 -0.3689 -0.2780  0.0921
19178OCT     C138355  15.771  15.521   9.718 -0.3077 -0.2525 -0.2439
19178OCT     C238356  15.943  15.080   9.874  0.3236  0.0384  0.0201
19179OCT     C138357  16.356  17.279  16.174 -0.2778 -0.1241 -0.0833
19179OCT     C238358  16.701  17.089  16.315  0.0768 -0.0399  0.1022
19180OCT     C138359  18.799   8.368  23.085 -0.2231 -0.2002 -0.0345
19180OCT     C238360  19.201   8.690  23.177  0.4267 -0.1693 -0.6189
19181OCT     C138361  17.386   2.732   1.798  0.0716 -0.0756 -0.0863
19181OCT     C238362  16.941   2.900   1.767 -0.1408 -0.1007  0.1454
19182OCT     C138363  23.467  10.953   4.928 -0.2148 -0.1220 -0.2026
19182OCT     C238364  23.223  10.831   5.340  0.0800 -0.0801 -0.1875
19183OCT     C138365   7.102  14.292  17.058 -0.2169 -0.0841  0.1510
19183OCT     C238366   6.684  14.290  16.870 -0.0843 -0.3364 -0.0880
19184OCT     C138367  15.233  21.698  15.282 -0.2273 -0.0199 -0.0509
19184OCT     C238368  14.923  21.589  15.590  0.2830 -0.1517 -0.1198
19185OCT     C138369  19.296  21.350  19.288  0.4311 -0.2000  0.3641
19185OCT     C238370  19.408  20.954  19.474  0.1524 -0.3604  0.1971
19186OCT     C138371  15.981  14.797  19.737 -0.0230  0.1769 -0.1926
19186OCT     C238372  15.543  14.695  19.549  0.0581 -0.1646 -0.0527
19187OCT     C138373  14.371   5.364   4.861 -0.2624 -0.1680  0.0544
19187OCT     C238374  14.702   5.086   4.605 -0.1390  0.0932  0.3449
19188OCT     C138375   9.161  12.405   0.048 -0.0000 -0.0752  0.1389
19188OCT     C238376   8.719  12.165   0.091 -0.3186  0.2935  0.3200
19189OCT     C138377   6.170  10.264  17.493  0.1804  0.1214  0.1474
19189OCT     C238378   6.039   9.896  17.639  0.0264  0.5321  0.0588
19190OCT     C138379   9.736  19.997  17.425 -0.2163  0.0797  0.0713
19190OCT     C238380   9.684  20.253  17.059 -0.1675 -0.0460 -0.1382
19191OCT     C138381  18.280   8.935  19.225 -0.3197  0.0978 -0.0758
19191OCT     C238382  18.401   8.627  18.872 -0.1255 -0.2360 -0.1377
19192OCT     C138383   1.806  14.891  21.657  0.3273  0.0195 -0.1515
19192OCT     C238384   1.488  15.151  21.429 -0.3365 -0.2190 -0.2171
19193OCT     C138385   2.301   0.148   8.560 -0.3212 -0.1427 -0.2570
19193OCT     C238386   2.199  23.653   8.216 -0.0475 -0.1074 -0.2789
19194OCT     C138387   2.469  11.729  12.363  0.0340  0.0951  0.0984
19194OCT     C238388   2.613  11.410  11.998 -0.0934 -0.1241  0.1082
19195OCT     C138389   5.757  15.941   5.812  0.3403  0.1057 -0.0401
19195OCT     C238390   5.713  16.190   5.421  0.2790  0.1766  0.1199
19196OCT     C138391  23.308  20.189  13.171  0.2343  0.0806  0.0071
19196OCT     C238392  23.392  20.631  13.337  0.3669 -0.3826 -0.0242
19197OCT     C138393   4.699   4.645   7.287 -0.0526 -0.0952 -0.0106
19197OCT     C238394   4.831   4.686   7.766 -0.2240  0.1884 -0.0441
19198OCT     C138395   8.846  15.562   8.526 -0.1613 -0.0037  0.0178
19198OCT     C238396   8.396  15.687   8.600  0.0702 -0.0474  0.0270
19199OCT     C138397  20.844   4.525  20.763 -0.0605 -0.1862 -0.1077
19199OCT     C238398  20.958   4.800  20.475  0.0351  0.2888 -0.3158
19200OCT     C138399   3.781   1.911  16.302  0.1331  0.4326 -0.2137
19200OCT     C238400   3.878   2.353  16.239  0.5059 -0.2764 -0.1359
19201OCT     C138401  11.598  12.091  13.033 -0.2280 -0.0222 -0.5861
19201OCT     C238402  11.942  11.850  12.715  0.0232  0.2605  0.2201
19202OCT     C138403  17.717  12.234  11.388 -0.1278 -0.2173  0.0202
19202OCT     C238404  18.081  12.457  11.170  0.0082 -0.1279 -0.0129
19203OCT     C138405   8.117  15.424   8.938 -0.1144  0.3597 -0.2423
19203OCT     C238406   8.236  15.880   9.078 -0.1203 -0.0425 -0.1081
19204OCT     C138407  20.316   6.403  22.451 -0.2026 -0.2607  0.2285
19204OCT     C238408  20.564   6.682  22.775 -0.1007 -0.0156  0.1743
19205OCT     C138409  20.114   2.574   8.797  0.0007 -0.1425  0.1175
19205OCT     C238410  19.701   2.571   9.061 -0.1497 -0.2122 -0.0663
19206OCT     C138411  18.234   8.593   7.068 -0.0023  0.0182  0.1499
19206OCT     C238412  17.882   8.519   7.414  0.1174  0.0216  0.1522
19207OCT     C138413   5.517   0.669  13.083 -0.2213 -0.1082 -0.2951
19207OCT     C238414   5.077   0.760  13.088  0.0879  0.1100  0.3384
19208OCT     C138415   0.293  23.268  12.091  0.1535 -0.5552 -0.2371
19208OCT     C238416   0.199  23.497  12.499  0.1110  0.1660  0.0014
19209OCT     C138417   1.515  12.049   9.686 -0.0499  0.4613  0.1560
19209OCT     C238418   1.719  12.025   9.294 -0.0156 -0.0256  0.0182
19210OCT     C138419   8.168  19.489   1.941  0.1687  0.4968 -0.0520
19210OCT     C238420   8.203  19.484   1.431 -0.3174  0.4056 -0.0673
19211OCT     C138421  13.446   1.218   9.282 -0.2144 -0.0315 -0.0884
19211OCT     C238422  13.544   0.808   9.032 -0.0699 -0.0089  0.1137
19212OCT     C138423  19.442  15.892   3.865 -0.0827 -0.3021 -0.1231
19212OCT     C238424  19.128  15.556   4.043  0.1577 -0.0427 -0.1852
19213OCT     C138425  10.959  21.359  10.134 -0.1403  0.1892 -0.0426
19213OCT     C238426  11.006  21.348   9.723  0.1130  0.0004  0.1495
19214OCT     C138427   0.608   9.870  12.149  0.1452 -0.2711  0.3379
19214OCT     C238428   0.981   9.589  12.117  0.1536  0.2406 -0.0291
19215OCT     C138429  17.039  17.015  14.309  0.0008  0.1883  0.0293
19215OCT     C238430  17.362  17.040  13.929 -0.1639  0.0757 -0.0265
19216OCT     C138431  12.793   6.286   8.395 -0.1954  0.2451  0.0642
19216OCT     C238432  12.613   5.940   8.556 -0.0251  0.3005 -0.1464
19217OCT     C138433  18.580  10.066  10.581 -0.0256 -0.0160 -0.0153
19217OCT     C238434  18.973  10.126  10.839  0.1523 -0.0728 -0.3971
19218OCT     C138435  22.580   4.911   0.455  0.1371  0.1293  0.0726
19218OCT     C238436  22.735   5.338   0.352  0.3929  0.2177 -0.1852
19219OCT     C138437  20.593  15.285  23.712  0.1842 -0.0432  0.2381
19219OCT     C238438  21.038  15.374  23.689 -0.0208 -0.2508 -0.0511
19220OCT     C138439   1.339   2.519   2.697  0.1513  0.3060 -0.2909
19220OCT     C238440   0.936   2.749   2.514  0.0382 -0.2220 -0.0812
19221OCT     C138441  22.975  22.413  15.591 -0.0026 -0.2221 -0.1055
19221OCT     C238442  22.550  22.504  15.415  0.0597 -0.2221 -0.1050
19222OCT     C138443   5.183  13.485  13.041 -0.2420 -0.2049 -0.0836
19222OCT     C238444   4.874  13.287  13.438  0.0372  0.6262 -0.0927
19223OCT     C138445   6.621  21.679   0.915  0.2582  0.0278  0.0648
19223OCT     C238446   6.372  22.055   1.179 -0.0497 -0.0140 -0.0011
19224OCT     C138447   9.279  18.652  19.856 -0.0682 -0.0450  0.2100
19224OCT     C238448   8.838  18.649  20.008 -0.1438 -0.4021 -0.0734
19225OCT     C138449  11.777   4.262   4.678 -0.3331  0.0781  0.1897
19225OCT     C238450  11.357   4.265   4.558 -0.1945  0.1943 -0.1463
19226OCT     C138451  21.027  21.267   1.902 -0.0620 -0.0183  0.1880
19226OCT     C238452  21.021  20.821   1.916  0.2505 -0.0033  0.0798
19227OCT     C138453  12.248  17.277   0.709 -0.4254 -0.1324  0.0225
19227OCT     C238454  12.188  16.816   0.568  0.1205  0.0885  0.0574
19228OCT     C138455  11.570  19.810   6.789  0.3375 -0.2637  0.1287
19228OCT     C238456  11.639  20.220   6.518 -0.2556 -0.2476 -0.1528
19229OCT     C138457  18.619  10.678  21.698  0.0744 -0.2288  0.3067
19229OCT     C238458  18.438  10.255  21.506  0.1121  0.0241 -0.2246
19230OCT     C138459   5.354   3.765   8.903 -0.3313  0.0437  0.2771
19230OCT     C238460   5.373   3.422   8.648  0.2522  0.2601  0.0659
19231OCT     C138461  13.906  18.269   1.001 -0.2600 -0.0089  0.1305
19231OCT     C238462  14.084  18.446   0.551  0.0372 -0.1890  0.4983
19232OCT     C138463   1.484  10.835  12.559 -0.0849  0.1969 -0.0112
19232OCT     C238464   1.774  10.456  12.782  0.3588  0.0158  0.1948
19233OCT     C138465   9.045  21.974   9.558  0.0751  0.1038  0.0615
19233OCT     C238466   9.336  22.145   9.839 -0.4037 -0.2331 -0.1869
19234OCT     C138467   7.002   0.770   9.373  0.2143  0.0434  0.3381
19234OCT     C238468   7.348   0.789   9.711 -0.4138 -0.1143 -0.0647
19235OCT     C138469  10.469  19.928  23.359 -0.0625  0.0471 -0.2206
19235OCT     C238470  10.790  19.859  23.705  0.1309  0.0377 -0.2482
19236OCT     C138471  10.355   1.092   0.074  0.0495  0.3803 -0.0889
19236OCT     C238472  10.043   0.755  23.676  0.1768 -0.0646  0.1548
19237OCT     C138473  18.296   9.052  13.508  0.3470  0.1921  0.2611
19237OCT     C238474  18.695   8.957  13.803 -0.1340  0.1813 -0.0316
19238OCT     C138475  13.423  17.876  18.749 -0.1943 -0.0555  0.2176
19238OCT     C238476  13.011  18.136  18.724  0.1578 -0.0637  0.1484
19239OCT     C138477   8.587  20.967  13.959 -0.5041  0.0490 -0.0116
19239OCT     C238478   8.770  20.932  14.338  0.0179  0.1934  0.2181
19240OCT     C138479  10.572  16.600  10.821  0.5522 -0.1193  0.2312
19240OCT     C238480  10.425  16.530  11.221 -0.0720  0.0413 -0.0173
19241OCT     C138481  14.173  15.886   8.174  0.0064  0.0184 -0.6378
19241OCT     C238482  14.488  15.912   7.865  0.0293 -0.1382 -0.0341
19242OCT     C138483   2.279   7.308   7.785 -0.6109  0.1652  0.0579
19242OCT     C238484   2.164   7.129   7.355  0.0117 -0.0733  0.2268
19243OCT     C138485   7.782   9.069  10.875  0.1077 -0.0567 -0.2170
19243OCT     C238486   8.040   9.459  10.862  0.2437  0.2497  0.1112
19244OCT     C138487   3.364  18.880   3.791  0.2835 -0.0767 -0.0629
19244OCT     C238488   3.631  18.930   3.413 -0.0025  0.4357  0.0499
19245OCT     C138489  11.367  22.694  11.658  0.0901 -0.0953 -0.3176
19245OCT     C238490  11.168  22.929  11.309  0.3507  0.1109  0.0501
19246OCT     C138491  21.600   2.053  20.222  0.1520  0.3168  0.2396
19246OCT     C238492  21.928   1.671  20.345  0.1685  0.3279 -0.1827
19247OCT     C138493  19.698   8.110  16.720 -0.1242  0.0162 -0.2745
19247OCT     C238494  19.423   7.853  16.421 -0.1585  0.5283  0.0198
19248OCT     C138495   8.060  19.336   7.769 -0.2381 -0.0585  0.2683
19248OCT     C238496   8.533  19.369   7.632 -0.0944  0.0616 -0.0024
19249OCT     C138497  22.620   5.027  13.093 -0.0286  0.0343  0.1568
19249OCT     C238498  22.462   4.947  13.574 -0.0185 -0.0823  0.1480
19250OCT     C138499   8.573  20.097  19.268 -0.0172  0.1140  0.2611
19250OCT     C238500   8.808  20.334  19.561  0.2666 -0.0969  0.0801
19251OCT     C138501  19.598   3.164   0.853  0.0032 -0.1967  0.3166
19251OCT     C238502  20.006   2.973   0.973 -0.0996 -0.0880  0.1211
19252OCT     C138503   4.484  18.510  15.981  0.2753  0.1373  0.3946
19252OCT     C238504   4.206  18.487  16.316  0.2242 -0.1915 -0.2781
19253OCT     C138505  22.716  14.072  10.842  0.3134  0.2930 -0.0951
19253OCT     C238506  22.828  14.291  10.465  0.1295  0.3839 -0.3225
19254OCT     C138507  16.423  16.256  15.092 -0.1974  0.1314 -0.2269
19254OCT     C238508  16.560  15.744  14.988 -0.2359  0.0402  0.3321
19255OCT     C138509   1.987  21.844   5.631 -0.7710 -0.4652 -0.2669
19255OCT     C238510   2.433  21.818   5.802  0.1389 -0.2871 -0.0381
19256OCT     C138511  16.001   7.119   7.314 -0.2852 -0.0932 -0.2103
19256OCT     C238512  15.609   7.165   7.013 -0.1639 -0.2132 -0.0842
19257OCT     C138513  19.430   3.048  12.438  0.2386  0.0316  0.1281
19257OCT     C238514  19.351   3.327  12.765 -0.3279 -0.1496  0.0286
19258OCT     C138515  17.291   9.265  12.484  0.1044 -0.0628  0.1005
19258OCT     C238516  17.494   9.660  12.223  0.1380 -0.1834 -0.0913
19259OCT     C138517   8.797  10.448   8.958 -0.0452  0.3964  0.4090
19259OCT     C238518   8.415  10.571   8.649  0.0915 -0.0268 -0.2272
19260OCT     C138519   8.438  15.327   6.595  0.3433  0.2675  0.0646
19260OCT     C238520   8.947  15.258   6.609 -0.0338 -0.4729  0.1733
19261OCT     C138521  10.772  19.972  10.270 -0.1490 -0.3340 -0.2857
19261OCT     C238522  10.988  19.597  10.115  0.2572  0.0050 -0.1050
19262OCT     C138523   8.906   1.026  22.047 -0.2361  0.4406 -0.3797
19262OCT     C238524   9.049   1.466  22.263 -0.3066  0.0559  0.0774
19263OCT     C138525  16.116  14.422  15.552  0.1659  0.2563 -0.1436
19263OCT     C238526  16.347  14.013  15.731  0.3800 -0.2194  0.0071
19264OCT     C138527   4.035   2.753  19.937 -0.4251 -0.2458  0.1865
19264OCT     C238528   3.706   3.084  19.864  0.5941 -0.1367 -0.3061
19265OCT     C138529  19.540   2.731   6.256  0.2973 -0.1200 -0.0738
19265OCT     C238530  19.424   3.197   6.172 -0.2333  0.1588  0.1680
19266OCT     C138531   3.251   6.455   2.305 -0.2866 -0.0438 -0.0487
19266OCT     C238532   2.860   6.729   2.186  0.1699  0.1320 -0.3978
19267OCT     C138533  23.741  11.373  19.387  0.3694  0.0579  0.3788
19267OCT     C238534   0.161  11.141  19.764 -0.0585 -0.1080 -0.2305
19268OCT     C138535  17.589  10.239  12.190 -0.2512  0.3960 -0.2987
19268OCT     C238536  17.268  10.586  12.309 -0.2184  0.0877  0.1599
19269OCT     C138537  19.632   5.997  21.326  0.1021 -0.4875  0.3725
19269OCT     C238538  19.307   6.293  21.506 -0.2243  0.5028 -0.0255
19270OCT     C138539   6.076   2.952  11.555  0.1417 -0.2544 -0.0678
19270OCT     C238540   5.647   3.019  11.709 -0.1587 -0.1327 -0.2093
19271OCT     C138541   2.088  15.973   4.311  0.0654 -0.0579 -0.0720
19271OCT     C238542   2.463  15.828   4.003  0.2447  0.4209  0.1769
19272OCT     C138543   6.133  19.781  13.950  0.5371 -0.4119 -0.0126
19272OCT     C238544   6.434  20.114  13.888 -0.0730 -0.2013  0.0822
19273OCT     C138545   9.295   9.470  14.052 -0.2256  0.1304  0.1715
19273OCT     C238546   9.280   9.851  13.717 -0.0867  0.2350  0.0668
19274OCT     C138547   4.432   5.413  19.290  0.0014 -0.1870 -0.2632
19274OCT     C238548   4.183   5.690  19.646 -0.0457  0.0658 -0.0374
19275OCT     C138549   0.967   6.989   1.923  0.0953  0.4766  0.0853
19275OCT     C238550   0.868   7.247   2.220  0.1827 -0.2908  0.1327
19276OCT     C138551  23.602  17.846   0.215 -0.0159  0.1566  0.0502
19276OCT     C238552  23.413  18.118  23.611 -0.1262 -0.1302  0.0633
19277OCT     C138553  16.093  14.305  16.732  0.0974 -0.1938 -0.5530
19277OCT     C238554  16.442  14.590  16.980  0.2934  0.1007  0.3942
19278OCT     C138555   5.522   7.520  20.716 -0.1075 -0.1719  0.2428
19278OCT     C238556   5.080   7.377  20.725  0.3772  0.0417 -0.2007
19279OCT     C138557   4.521  22.034  17.939  0.4162  0.0564  0.0387
19279OCT     C238558   4.620  21.627  18.148 -0.0806 -0.1669 -0.0972
19280OCT     C138559   5.870  10.194  15.621  0.1843 -0.0625 -0.4154
19280OCT     C238560   5.657  10.206  15.172 -0.0663  0.0781  0.2399
19281OCT     C138561  12.476  10.470  17.794  0.2475  0.1258 -0.1106
19281OCT     C238562  12.763  10.687  18.135  0.4099 -0.0656  0.2402
19282OCT     C138563  10.025   8.801   0.751 -0.2982  0.0868  0.1897
19282OCT     C238564   9.939   8.354   0.792 -0.2083  0.0855  0.0561
19283OCT     C138565  14.690  21.764   0.999  0.1423 -0.1868 -0.1814
19283OCT     C238566  14.878  21.799   1.393  0.1102  0.1435  0.2539
19284OCT     C138567   5.189   4.647  17.159  0.0456 -0.0252  0.4146
19284OCT     C238568   5.137   4.694  16.683  0.0222 -0.1041 -0.1801
19285OCT     C138569   8.459  16.056  15.388  0.1751  0.2561 -0.0379
19285OCT     C238570   8.135  15.682  15.389 -0.0057 -0.0114 -0.6217
19286OCT     C138571   5.956  16.301   9.488 -0.0539 -0.0096 -0.1753
19286OCT     C238572   5.870  16.128   9.087 -0.0453 -0.0970  0.0964
19287OCT     C138573   4.839  12.958  14.418 -0.1131 -0.2702  0.2763
19287OCT     C238574   4.691  13.386  14.551 -0.0083 -0.0031 -0.0832
19288OCT     C138575  21.716   0.697   6.185 -0.1907 -0.0120  0.4690
19288OCT     C238576  21.594   1.122   6.183  0.3746 -0.1378  0.1933
19289OCT     C138577  15.427  19.113  18.274  0.0945  0.1543  0.5840
19289OCT     C238578  15.334  18.765  17.983  0.3540  0.5246  0.0172
19290OCT     C138579   1.250  14.441  15.594 -0.0267 -0.0066  0.0023
19290OCT     C238580   1.492  14.564  15.230 -0.2764  0.2881  0.0104
19291OCT     C138581   8.677  19.395   8.617  0.0734 -0.0857  0.2866
19291OCT     C238582   8.475  19.112   8.926  0.0550 -0.3622 -0.0302
19292OCT     C138583   7.364  16.383   7.905  0.0307  0.0723  0.3691
19292OCT     C238584   7.011  16.536   7.595  0.0470  0.0070 -0.0068
19293OCT     C138585  17.478  11.657  13.048 -0.0608 -0.2163 -0.1364
19293OCT     C238586  17.660  12.085  13.084  0.2020  0.0944 -0.1553
19294OCT     C138587   8.409  21.417  21.163 -0.1612 -0.1920  0.2352
19294OCT     C238588   8.388  21.005  21.203 -0.3405  0.1767  0.0121
19295OCT     C138589   2.634  17.768  23.412 -0.0607  0.1940 -0.1953
19295OCT     C238590   2.635  18.254  23.504  0.0433  0.2411  0.3558
19296OCT     C138591  18.503  12.130   5.911  0.1980  0.0141  0.0865
19296OCT     C238592  18.409  12.290   5.484  0.3683  0.2590 -0.0397
19297OCT     C138593   0.972   3.874  22.993  0.1299 -0.1494 -0.0262
19297OCT     C238594   0.897   4.191  23.346  0.1795  0.1214 -0.1641
19298OCT     C138595  20.303  13.563   5.305  0.3350 -0.0066 -0.0386
19298OCT     C238596  20.095  13.089   5.214  0.0527 -0.3255 -0.2989
19299OCT     C138597  12.254  12.699  12.882  0.1005  0.0062 -0.0191
19299OCT     C238598  12.065  12.311  12.704  0.1004 -0.2803 -0.3291
19300OCT     C138599  18.778   3.876  11.017 -0.0579 -0.0965  0.3295
19300OCT     C238600  19.049   3.689  10.707  0.0902 -0.1910 -0.0223
19301OCT     C138601   1.600  23.526   6.030 -0.1718 -0.1086 -0.2650
19301OCT     C238602   1.888  23.311   5.705  0.2105 -0.1008  0.0503
19302OCT     C138603  13.319   0.777  12.876  0.1206 -0.1183  0.2847
19302OCT     C238604  13.110   0.539  12.512  0.1578  0.2068 -0.2969
19303OCT     C138605  22.698   6.516   3.112 -0.1933 -0.1929  0.3492
19303OCT     C238606  22.389   6.397   2.809  0.2969 -0.1842 -0.2004
19304OCT     C138607  22.874   4.969   5.532  0.0647 -0.3272 -0.1253
19304OCT     C238608  23.026   5.365   5.708 -0.1027  0.3255 -0.1581
19305OCT     C138609  19.889   9.773  22.737  0.0653  0.2292  0.0761
19305OCT     C238610  19.852   9.529  22.344  0.1677  0.0018 -0.3905
19306OCT     C138611   1.042  13.428  20.818 -0.0528  0.0819 -0.0984
19306OCT     C238612   0.972  13.747  21.128 -0.1135  0.1312  0.1713
19307OCT     C138613  16.364   5.770  18.158 -0.0552  0.1195 -0.0061
19307OCT     C238614  16.516   5.674  18.603 -0.0362  0.4450  0.1331
19308OCT     C138615  19.850   8.055   7.301 -0.0306 -0.1034 -0.2320
19308OCT     C238616  19.987   7.760   6.991 -0.0106 -0.2528  0.4427
19309OCT     C138617  21.593   8.082   3.952 -0.1453 -0.0119 -0.1495
19309OCT     C238618  21.919   8.076   3.655  0.1282 -0.1593 -0.1128
19310OCT     C138619   2.995   5.422  10.368 -0.0177 -0.2635  0.1116
19310OCT     C238620   3.200   5.334  10.763  0.1312 -0.0451  0.1695
19311OCT     C138621   1.531   9.862  21.632  0.3380 -0.0433 -0.0591
19311OCT     C238622   2.020   9.783  21.699  0.2208  0.3840  0.0280
19312OCT     C138623  11.560   0.109   0.441 -0.1105  0.1663  0.0104
19312OCT     C238624  11.365  23.592   0.750  0.0047  0.0317 -0.0104
19313OCT     C138625  22.756   8.333  15.439  0.1356 -0.1620  0.1202
19313OCT     C238626  22.511   8.701  15.248 -0.1325 -0.2345  0.2920
19314OCT     C138627   4.922   1.378   3.011  0.0846 -0.1365  0.1772
19314OCT     C238628   4.892   1.312   3.469 -0.0112  0.3694 -0.0326
19315OCT     C138629  16.176   9.510  12.783 -0.1821  0.0743 -0.4003
19315OCT     C238630  16.201   9.964  12.657 -0.4122 -0.0416  0.1656
19316OCT     C138631  21.857  19.422   6.834 -0.0636 -0.5940  0.1003
19316OCT     C238632  21.805  19.862   6.931  0.1321  0.1770  0.4052
19317OCT     C138633  12.617   2.415   9.345  0.2515 -0.0351 -0.0931
19317OCT     C238634  12.754   2.407   8.871  0.2900  0.0681 -0.1708
19318OCT     C138635  19.312   8.131  13.743 -0.4172  0.0918 -0.0108
19318OCT     C238636  19.230   7.676  13.780  0.3498  0.0952 -0.1072
19319OCT     C138637  21.526  20.975  17.902 -0.0405  0.0077 -0.2499
19319OCT     C238638  21.609  21.263  18.245 -0.0108  0.0621 -0.0497
19320OCT     C138639   8.401  18.080  19.287 -0.0131  0.0163  0.1121
19320OCT     C238640   8.295  18.505  19.452  0.0342  0.2077 -0.3368
19321OCT     C138641   4.623   3.343  12.024 -0.1450 -0.0045  0.2962
19321OCT     C238642   4.342   2.994  11.757  0.0378 -0.0591 -0.0727
19322OCT     C138643  15.192   1.452  10.833  0.1809  0.1029 -0.0709
19322OCT     C238644  15.392   1.697  11.155 -0.0474  0.1449 -0.2585
19323OCT     C138645  20.881  15.058  11.393 -0.0070  0.2314 -0.4793
19323OCT     C238646  20.505  15.079  11.051  0.1120  0.4084  0.0602
19324OCT     C138647   4.414  15.535  14.605  0.1686  0.0667  0.0104
19324OCT     C238648   4.494  15.269  14.261 -0.0383 -0.2261  0.1750
19325OCT     C138649   9.695  15.499   8.058  0.1110 -0.0381 -0.0436
19325OCT     C238650   9.936  15.488   7.661  0.1637 -0.2640  0.1083
19326OCT     C138651   1.319  19.015   0.238 -0.4776 -0.0870 -0.4318
19326OCT     C238652   1.705  18.995   0.506 -0.2805  0.0844 -0.3705
19327OCT     C138653  14.322  18.655  19.554  0.0820  0.0359 -0.2657
19327OCT     C238654  14.260  18.201  19.707 -0.0863  0.0443  0.2364
19328OCT     C138655  15.484  14.752  20.863  0.0545  0.3047  0.2137
19328OCT     C238656  15.790  14.860  20.496 -0.2816 -0.1179  0.1124
19329OCT     C138657  20.422   6.404  10.521 -0.2165 -0.0482 -0.1825
19329OCT     C238658  20.397   6.280  10.083  0.1033 -0.2259 -0.3403
19330OCT     C138659   8.610   1.552  17.328 -0.5163  0.4122 -0.4678
19330OCT     C238660   8.891   1.890  17.477  0.1106  0.1170 -0.0633
19331OCT     C138661  23.437  11.363   5.387  0.1317  0.3365  0.2375
19331OCT     C238662  23.116  11.278   5.713 -0.1587  0.0289  0.1747
19332OCT     C138663  14.681  14.207   7.375  0.0321  0.1085 -0.2880
19332OCT     C238664  14.887  13.807   7.382  0.0462  0.0978  0.1867
19333OCT     C138665  16.833  18.934   2.794  0.0573 -0.0041 -0.1219
19333OCT     C238666  17.087  18.633   3.059 -0.0772 -0.0678  0.3308
19334OCT     C138667   1.401  14.084  18.638  0.0879  0.2920 -0.0690
19334OCT     C238668   1.439  14.267  18.217 -0.0714 -0.0666  0.0250
19335OCT     C138669   4.157  21.581  20.638  0.3245 -0.2498  0.4867
19335OCT     C238670   3.768  21.662  20.881 -0.3272  0.0822  0.0557
19336OCT     C138671  15.745  20.810   1.359 -0.1363 -0.3182  0.0679
19336OCT     C238672  16.136  20.601   1.233  0.2034  0.0364  0.1182
19337OCT     C138673  17.615  13.786   5.578 -0.0347  0.1043 -0.2420
19337OCT     C238674  17.806  14.052   5.929  0.2011  0.2012 -0.0824
19338OCT     C138675   8.763   1.370   8.736  0.4010 -0.1475  0.2561
19338OCT     C238676   8.484   1.362   9.081 -0.0751  0.2416 -0.1800
19339OCT     C138677  22.249  14.103  10.303  0.1283  0.0635  0.4375
19339OCT     C238678  22.501  13.815  10.112 -0.1574  0.3812 -0.0531
19340OCT     C138679  10.597  21.326   5.636 -0.4124 -0.0835 -0.0641
19340OCT     C238680  10.580  21.087   6.008 -0.1108 -0.0676  0.0267
19341OCT     C138681  15.115  16.078  18.404 -0.1196  0.0730 -0.2325
19341OCT     C238682  15.510  15.919  18.530 -0.2474 -0.3795  0.0810
19342OCT     C138683  21.202  14.000   9.099 -0.4804 -0.2419  0.1454
19342OCT     C238684  21.260  14.427   9.384  0.0283  0.0414 -0.0496
19343OCT     C138685  23.092  19.835   9.169  0.0520  0.2600 -0.1726
19343OCT     C238686  22.752  19.923   8.912 -0.1039 -0.2037 -0.1904
19344OCT     C138687  18.442  17.311  12.210  0.1868  0.0655  0.1170
19344OCT     C238688  18.652  17.634  11.976 -0.2854  0.1112 -0.0130
19345OCT     C138689   1.006   7.500   6.612  0.2389 -0.0242 -0.5461
19345OCT     C238690   1.220   7.064   6.584 -0.1318  0.0321 -0.0611
19346OCT     C138691  10.388  22.313   6.549  0.1225  0.3364  0.1970
19346OCT     C238692  10.071  22.475   6.193 -0.0906  0.0303  0.0812
19347OCT     C138693  23.163  13.741   1.309 -0.1106 -0.2173  0.2373
19347OCT     C238694  22.796  13.497   1.516  0.2239  0.3197  0.0147
19348OCT     C138695  19.703   0.678   5.327 -0.1124  0.1027 -0.0263
19348OCT     C238696  19.760   0.228   5.332  0.3598  0.3586 -0.1737
19349OCT     C138697  20.864   7.939  17.719  0.3264 -0.0901  0.2476
19349OCT     C238698  20.521   8.143  17.396 -0.1761  0.1314 -0.2129
19350OCT     C138699  23.187  23.366   8.491 -0.4934 -0.1146  0.2740
19350OCT     C238700  23.223  23.595   8.098 -0.2536  0.2803  0.1153
19351OCT     C138701  21.035  23.707   7.003  0.3502  0.2618 -0.0387
19351OCT     C238702  20.988  23.266   6.994  0.3616  0.3040 -0.1407
19352OCT     C138703  20.075  21.979   4.957 -0.1907  0.0815 -0.1330
19352OCT     C238704  20.483  22.131   4.871 -0.1514 -0.0072  0.1870
19353OCT     C138705  11.014  19.352  13.009  0.2244 -0.0957  0.0226
19353OCT     C238706  11.391  19.109  12.802  0.0887 -0.0747  0.1269
19354OCT     C138707   9.513  23.739   0.606 -0.1003 -0.2428  0.0589
19354OCT     C238708   9.799   0.362   0.775 -0.2949  0.2421  0.1265
19355OCT     C138709  14.805   4.539  11.749  0.4696  0.1526  0.1021
19355OCT     C238710  15.156   4.400  11.459  0.3052 -0.1537 -0.2284
19356OCT     C138711  14.881   5.218  22.689 -0.1840  0.4088  0.3786
19356OCT     C238712  15.145   5.560  22.909 -0.0539  0.0627 -0.0273
19357OCT     C138713  20.163   5.646   4.196 -0.4113 -0.0520 -0.0273
19357OCT     C238714  19.912   5.994   4.199 -0.2323  0.1623  0.0571
19358OCT     C138715   9.293   3.792   2.501 -0.2988 -0.0060  0.1939
19358OCT     C238716   9.501   4.229   2.384 -0.0495 -0.1539  0.1687
19359OCT     C138717  17.276   7.424   5.500 -0.0404 -0.1145 -0.2033
19359OCT     C238718  17.203   7.891   5.687  0.4173  0.2342  0.1442
19360OCT     C138719  21.270  21.180   6.772 -0.1310 -0.1956  0.1397
19360OCT     C238720  21.026  21.183   7.158 -0.0227 -0.0774 -0.2887
19361OCT     C138721   7.462   2.234   5.868 -0.1390  0.1934  0.4612
19361OCT     C238722   7.000   2.250   5.781  0.4371 -0.1746  0.0286
19362OCT     C138723  16.823   5.058   9.017  0.1177 -0.3439  0.2298
19362OCT     C238724  16.738   4.681   8.776 -0.3336  0.2324 -0.1081
19363OCT     C138725  12.222  15.940  19.440 -0.1429  0.0778 -0.4416
19363OCT     C238726  12.131  15.840  19.048 -0.2332  0.1407  0.0150
19364OCT     C138727  13.675  19.088   7.966 -0.1402 -0.1077  0.0720
19364OCT     C238728  13.993  19.274   7.754  0.1092  0.1249  0.4197
19365OCT     C138729  10.070  20.369  23.279 -0.2003  0.1812  0.0379
19365OCT     C238730   9.597  20.313  23.142 -0.0056  0.1046 -0.0776
19366OCT     C138731  22.114  16.316  11.639  0.0385  0.0295  0.1063
19366OCT     C238732  22.130  16.306  12.132 -0.0272  0.0870  0.5105
19367OCT     C138733   6.952  23.552  21.994 -0.0400 -0.0747  0.3193
19367OCT     C238734   6.611  23.326  21.786  0.0871 -0.2581 -0.1214
19368OCT     C138735   7.050  22.749  20.108 -0.0485 -0.0645  0.0246
19368OCT     C238736   7.036  22.592  20.542 -0.0267 -0.1083  0.0675
19369OCT     C138737  23.238   2.748   4.037 -0.2325  0.0554 -0.2557
19369OCT     C238738  22.807   2.807   4.183  0.0811  0.0562 -0.0120
19370OCT     C138739  18.570   8.971  14.735  0.1561 -0.1847 -0.2152
19370OCT     C238740  18.890   9.297  14.800 -0.1476  0.4472 -0.1697
19371OCT     C138741   1.955   6.030  15.239  0.3542 -0.1887  0.1851
19371OCT     C238742   2.399   5.860  15.272  0.0337 -0.0438 -0.1788
19372OCT     C138743  23.253   0.429  17.125 -0.1287  0.2396 -0.0516
19372OCT     C238744  23.536   0.676  17.351  0.0184  0.0164  0.0525
19373OCT     C138745   0.985   2.734   2.991 -0.5180 -0.0424 -0.0187
19373OCT     C238746   0.793   2.758   3.467  0.2351 -0.1768  0.2458
19374OCT     C138747  13.501  12.352  12.259  0.0787  0.1790 -0.4452
19374OCT     C238748  13.947  12.486  12.333 -0.3853  0.0534  0.0674
19375OCT     C138749   1.127   7.832   5.762  0.0438  0.0613 -0.1912
19375OCT     C238750   1.479   7.875   5.992  0.0282  0.2089  0.0854
19376OCT     C138751  18.303  14.864   7.055  0.5058  0.1915 -0.1955
19376OCT     C238752  18.219  15.292   6.824  0.0525 -0.0839  0.0505
19377OCT     C138753  21.811   0.174  14.315  0.4160 -0.0749  0.0940
19377OCT     C238754  21.807   0.427  14.654  0.1844  0.1917  0.4237
19378OCT     C138755   0.410  19.416  19.674 -0.1051  0.0763 -0.0214
19378OCT     C238756  23.708  19.263  19.723 -0.2105  0.2115 -0.3301
19379OCT     C138757   3.467   4.416   4.489 -0.1933 -0.3228 -0.0046
19379OCT     C238758   3.795   4.087   4.625  0.3293  0.3408 -0.3347
19380OCT     C138759  21.224  17.135  19.568  0.2233 -0.1922  0.1616
19380OCT     C238760  21.723  17.051  19.560 -0.4344  0.0388 -0.1623
19381OCT     C138761  15.755  22.033   4.764  0.0551  0.2250  0.0438
19381OCT     C238762  15.806  21.532   4.863 -0.2461 -0.2448  0.3379
19382OCT     C138763  10.902  12.922  11.062  0.0266  0.0689  0.0185
19382OCT     C238764  10.936  13.154  11.478 -0.2171  0.2870  0.1293
19383OCT     C138765  13.780  14.059  20.761 -0.2102  0.3159 -0.2221
19383OCT     C238766  13.853  13.643  20.572 -0.3173  0.4002 -0.1599
19384OCT     C138767  20.119  23.636   5.049  0.1668 -0.0724  0.1060
19384OCT     C238768  20.146   0.196   4.656 -0.1541 -0.1468  0.0234
19385OCT     C138769  18.824  14.379   9.087  0.0391 -0.0946 -0.0809
19385OCT     C238770  18.417  14.349   9.284 -0.2310  0.2102  0.2024
19386OCT     C138771  18.545  11.101  13.083  0.0034  0.1137  0.2175
19386OCT     C238772  18.250  11.354  12.761 -0.0612  0.4591  0.1616
19387OCT     C138773  23.242  20.088  20.054  0.0186 -0.2732  0.0259
19387OCT     C238774  23.028  20.484  19.876 -0.1886  0.0061  0.1430
19388OCT     C138775  18.002   9.716  13.953  0.0063  0.0572 -0.1232
19388OCT     C238776  17.768   9.417  14.297 -0.1771  0.0396 -0.0369
19389OCT     C138777   2.129   8.391  12.926  0.2951  0.1976 -0.0826
19389OCT     C238778   2.356   8.093  12.577 -0.1951  0.2244 -0.1564
19390OCT     C138779  10.868  22.765  14.981 -0.3485  0.1386  0.3789
19390OCT     C238780  10.437  22.827  14.782 -0.1991  0.0635 -0.0832
19391OCT     C138781   1.154   8.123   4.764  0.0151 -0.0216 -0.1378
19391OCT     C238782   0.662   8.253   4.809 -0.2006  0.0350  0.2531
19392OCT     C138783  21.064   8.087   1.575 -0.2823 -0.2483 -0.4265
19392OCT     C238784  21.037   8.177   2.054 -0.0446 -0.1513 -0.1689
19393OCT     C138785   0.787   9.169  18.520  0.1066  0.2222  0.1660
19393OCT     C238786   0.812   9.612  18.515  0.6532 -0.1269  0.4358
19394OCT     C138787  21.591   2.025  17.625  0.0490  0.1330 -0.1799
19394OCT     C238788  21.869   2.375  17.659 -0.1929  0.1163  0.1716
19395OCT     C138789  17.486  15.740  20.487  0.3116 -0.1096  0.1574
19395OCT     C238790  17.198  15.674  20.873  0.5294 -0.1258 -0.0781
19396OCT     C138791  23.741   0.361  17.996  0.1395  0.5178 -0.2706
19396OCT     C238792  23.408   0.741  17.916 -0.0622  0.2533 -0.1532
19397OCT     C138793  20.489  12.783  16.153 -0.0724  0.1917 -0.1361
19397OCT     C238794  20.672  13.106  16.494  0.1888 -0.0544  0.0555
19398OCT     C138795   2.911  18.919  23.397 -0.2268  0.2808  0.1104
19398OCT     C238796   2.712  19.031  23.006 -0.2279 -0.1869  0.1912
19399OCT     C138797   3.588   1.861  15.364 -0.1041  0.0296  0.1851
19399OCT     C238798   3.887   1.598  15.148  0.2468 -0.3149  0.1709
19400OCT     C138799   0.220  11.525  12.240 -0.2895  0.0510  0.4977
19400OCT     C238800  23.676  11.640  11.848 -0.0279 -0.1631  0.0249
19401OCT     C138801   8.187  18.314  22.563 -0.1477 -0.1277  0.4222
19401OCT     C238802   8.089  18.166  23.022  0.0389 -0.0047  0.4654
19402OCT     C138803   9.004   9.671   4.216  0.0629  0.0740  0.4105
19402OCT     C238804   9.092   9.226   4.327  0.1264 -0.3004  0.2797
19403OCT     C138805   5.275  12.503   7.010 -0.1705 -0.2254  0.0228
19403OCT     C238806   5.491  12.072   7.002  0.3658  0.0195  0.0345
19404OCT     C138807   2.632   4.934  16.531 -0.1163 -0.0099  0.3798
19404OCT     C238808   2.995   5.225  16.426  0.0548  0.1357 -0.4466
19405OCT     C138809   3.364  15.990   7.592  0.1799 -0.1265  0.2445
19405OCT     C238810   3.146  15.791   7.232  0.1727  0.0543  0.0637
19406OCT     C138811  16.424  19.605   7.363  0.2893  0.2377 -0.0759
19406OCT     C238812  16.453  19.912   7.704  0.0175 -0.0142 -0.2051
19407OCT     C138813   4.192  14.921   4.684  0.0137  0.0925  0.3300
19407OCT     C238814   4.189  15.013   5.107  0.1585  0.2519 -0.2390
19408OCT     C138815   8.502  16.611  18.865  0.1625  0.1162 -0.0406
19408OCT     C238816   8.350  17.007  19.083  0.2774 -0.3254  0.2789
19409OCT     C138817  18.178   9.190  16.356  0.0976  0.0842  0.1861
19409OCT     C238818  18.104   8.794  16.545 -0.1007  0.0045  0.0332
19410OCT     C138819  14.869   3.664  11.820  0.2422  0.4284 -0.2180
19410OCT     C238820  14.558   3.352  11.887  0.0249 -0.3265  0.3075
19411OCT     C138821  12.434  22.209  13.829 -0.0911 -0.0880  0.0934
19411OCT     C238822  12.200  22.618  13.848 -0.0220  0.0369 -0.1021
19412OCT     C138823  11.921   0.561  13.528 -0.2611 -0.3012 -0.3039
19412OCT     C238824  11.454   0.478  13.475 -0.0327  0.3481 -0.3853
19413OCT     C138825  13.342   4.232  18.801  0.0928  0.1533  0.1305
19413OCT     C238826  13.069   4.491  18.540  0.1866  0.1571  0.1389
19414OCT     C138827   2.847  10.001  20.149 -0.0467  0.1613  0.2389
19414OCT     C238828   3.149  10.048  20.557 -0.0087 -0.1461 -0.1770
19415OCT     C138829  10.622  17.003  15.098 -0.2245 -0.0387 -0.0853
19415OCT     C238830  10.519  17.345  14.794 -0.1332  0.1639  0.2421
19416OCT     C138831   3.179   6.040  14.337  0.0073  0.2790  0.1766
19416OCT     C238832   3.602   5.870  14.193 -0.3195  0.0894 -0.2479
19417OCT     C138833   7.540   6.517   9.965  0.0547 -0.0367  0.0128
19417OCT     C238834   7.348   6.927   9.929 -0.2712 -0.0166  0.3012
19418OCT     C138835   0.124   5.790  15.896 -0.0897 -0.0186 -0.1242
19418OCT     C238836   0.613   5.833  15.931 -0.1253 -0.3676 -0.3429
19419OCT     C138837   3.650  12.887  18.262 -0.1889 -0.0909 -0.3285
19419OCT     C238838   3.645  12.412  18.224 -0.2194  0.2604  0.4368
19420OCT     C138839  16.862   5.229  17.080 -0.0543 -0.1008  0.1534
19420OCT     C238840  16.569   5.523  16.874 -0.0061  0.4391  0.0254
19421OCT     C138841  13.949   0.451  12.293 -0.1460  0.3023 -0.0498
19421OCT     C238842  13.576   0.760  12.411 -0.0724 -0.1347 -0.2579
19422OCT     C138843  22.774   4.573   6.159 -0.2333 -0.0987  0.2972
19422OCT     C238844  23.218   4.485   6.277  0.0805  0.0481 -0.0039
19423OCT     C138845   5.157  20.684  18.342 -0.0112 -0.0750  0.1389
19423OCT     C238846   5.478  20.924  18.667 -0.2673  0.0837 -0.1379
19424OCT     C138847   7.334  12.627   7.692  0.1054  0.0580  0.4670
19424OCT     C238848   7.138  12.674   7.315  0.2332  0.1121  0.3629
19425OCT     C138849   7.522  15.638  11.940 -0.2496  0.2675 -0.2277
19425OCT     C238850   7.509  15.713  12.417 -0.2577  0.1471 -0.0709
19426OCT     C138851  15.941  12.348  14.441  0.0934  0.3217  0.1468
19426OCT     C238852  15.764  12.602  14.173  0.4303  0.0709  0.2902
19427OCT     C138853  22.872   1.686  14.676 -0.0184  0.1858 -0.0589
19427OCT     C238854  22.561   1.329  14.775 -0.0776 -0.2164 -0.1331
19428OCT     C138855   6.204  18.097   3.452 -0.4001  0.0913 -0.0364
19428OCT     C238856   5.925  18.469   3.515 -0.1411 -0.3339 -0.0770
19429OCT     C138857  12.382   3.341  13.279 -0.0767 -0.1763  0.2552
19429OCT     C238858  12.826   3.059  13.325  0.0691  0.0522  0.5610
19430OCT     C138859   9.572  14.968  11.557 -0.0773 -0.0104  0.0826
19430OCT     C238860   9.730  15.142  11.173 -0.2276 -0.1403  0.0793
19431OCT     C138861  19.074  22.236   5.398  0.2441 -0.1452 -0.0994
19431OCT     C238862  19.023  21.982   5.001 -0.2589 -0.0304  0.1873
19432OCT     C138863  18.876  10.559  11.756  0.2950  0.0293 -0.2155
19432OCT     C238864  18.408  10.509  11.591 -0.1995 -0.1230 -0.3334
19433OCT     C138865   3.781   9.996   9.906 -0.1330 -0.1458 -0.0527
19433OCT     C238866   4.119   9.881  10.245 -0.0182  0.3029 -0.0495
19434OCT     C138867  21.476  21.872   3.194  0.0457  0.1911  0.0638
19434OCT     C238868  21.263  22.262   3.350 -0.1875  0.2905  0.2013
19435OCT     C138869   9.743  19.210   4.994 -0.1237  0.0555  0.3620
19435OCT     C238870   9.539  19.558   4.814 -0.1702  0.1584 -0.0161
19436OCT     C138871  19.657  16.259   2.094 -0.0734  0.1198  0.1448
19436OCT     C238872  19.877  15.972   2.392  0.2832 -0.1044 -0.1916
19437OCT     C138873   1.172   1.120  23.084  0.3234  0.0187 -0.3573
19437OCT     C238874   1.347   1.353  23.373  0.1195 -0.2048 -0.2766
19438OCT     C138875  10.307  18.459  16.275 -0.2092  0.0921  0.1160
19438OCT     C238876   9.927  18.483  16.476  0.1122 -0.3464 -0.1565
19439OCT     C138877  22.000   1.931  19.256 -0.2031 -0.1097 -0.1176
19439OCT     C238878  22.359   2.231  19.355  0.0387  0.3660 -0.3160
19440OCT     C138879   5.498  14.711   8.641  0.0681  0.0986  0.2481
19440OCT     C238880   5.448  14.406   8.900 -0.2523 -0.1160 -0.2572
19441OCT     C138881  13.924  18.246  14.816 -0.3562 -0.1713 -0.1938
19441OCT     C238882  14.029  17.930  14.461 -0.0166 -0.0887  0.3321
19442OCT     C138883   3.152   4.857   4.460  0.1292  0.0337 -0.1181
19442OCT     C238884   2.790   5.102   4.375 -0.4115  0.0990  0.2153
19443OCT     C138885  17.150  16.353  11.365  0.0249 -0.3667  0.0595
19443OCT     C238886  17.399  16.223  11.692  0.0740  0.3314 -0.1633
19444OCT     C138887  14.372  22.738   4.246  0.2221  0.0369 -0.2513
19444OCT     C238888  14.691  22.440   4.366 -0.0049  0.1339 -0.0570
19445OCT     C138889  10.566  18.298   1.128 -0.0581 -0.6892 -0.0010
19445OCT     C238890  10.259  18.556   0.835  0.1087 -0.3869  0.1107
19446OCT     C138891   1.439   8.610  20.658  0.0633  0.1096 -0.4101
19446OCT     C238892   1.365   8.428  21.096  0.2684  0.1979  0.0595
19447OCT     C138893  16.580   7.394  18.938 -0.1048  0.0562 -0.2178
19447OCT     C238894  16.739   7.298  19.346 -0.3564  0.0043 -0.0136
19448OCT     C138895  16.991  13.829  19.941  0.1623  0.2246 -0.4682
19448OCT     C238896  16.515  13.759  19.864 -0.0271 -0.1373 -0.2145
19449OCT     C138897   5.021  22.573  21.522  0.1135  0.0817  0.1220
19449OCT     C238898   5.170  22.518  21.990 -0.1125 -0.2225 -0.3404
19450OCT     C138899   5.599  13.665  14.342  0.1942 -0.1246 -0.1862
19450OCT     C238900   5.624  13.157  14.318 -0.0461  0.1622  0.0578
19451OCT     C138901   4.835  19.711   1.955 -0.3603 -0.1268 -0.0838
19451OCT     C238902   5.071  19.568   2.343 -0.0929  0.2335 -0.0351
19452OCT     C138903  15.219   6.280  22.032 -0.1506 -0.2046  0.1497
19452OCT     C238904  14.882   5.952  21.847  0.1316  0.0096 -0.1042
19453OCT     C138905   0.735  11.244  15.253 -0.3586  0.1901 -0.3228
19453OCT     C238906   0.959  11.192  14.843 -0.2111  0.1455 -0.0524
19454OCT     C138907  16.011   0.840  19.142  0.0578  0.1091  0.0097
19454OCT     C238908  16.469   0.895  19.126  0.0466 -0.1578  0.1176
19455OCT     C138909   2.208   5.044   3.408  0.0670 -0.1958  0.0644
19455OCT     C238910   2.387   4.630   3.592  0.1974 -0.0907  0.6600
19456OCT     C138911   9.154  21.332   4.258 -0.0391 -0.0649 -0.2068
19456OCT     C238912   9.170  20.938   4.510 -0.1712 -0.2779 -0.3191
19457OCT     C138913  15.019  19.122  12.918  0.0285 -0.3712 -0.1371
19457OCT     C238914  14.794  19.255  13.283  0.1890 -0.0013  0.2093
19458OCT     C138915   5.136  18.695  15.540  0.2695 -0.1449  0.2710
19458OCT     C238916   5.076  18.687  15.065 -0.0886  0.0323 -0.1156
19459OCT     C138917  11.994  20.300  23.536 -0.1115  0.1836  0.0350
19459OCT     C238918  11.927  19.894  23.399 -0.1366  0.2019  0.0307
19460OCT     C138919  16.801  20.704   3.001  0.1781  0.1979  0.1204
19460OCT     C238920  16.712  21.016   3.315 -0.2058  0.0388  0.2520
19461OCT     C138921   4.276  10.019  22.726 -0.2983 -0.2252 -0.2034
19461OCT     C238922   4.262   9.669  23.011 -0.2896 -0.0254  0.4011
19462OCT     C138923   6.181  18.626  13.097 -0.0937  0.0379  0.0468
19462OCT     C238924   6.411  18.912  13.416  0.1167  0.2697  0.1749
19463OCT     C138925  23.534  19.176  23.591 -0.2991 -0.0253 -0.3596
19463OCT     C238926  23.532  18.731  23.633  0.0579  0.0734 -0.1704
19464OCT     C138927   4.923  12.936   3.963  0.1821  0.0421  0.1076
19464OCT     C238928   4.895  13.381   3.841 -0.0061 -0.1302  0.1109
19465OCT     C138929   2.419   6.202  11.566  0.2637 -0.0090  0.1505
19465OCT     C238930   2.010   6.137  11.424 -0.1947  0.0300  0.0095
19466OCT     C138931   4.094  12.703  18.530  0.1735  0.0743 -0.0254
19466OCT     C238932   4.466  12.462  18.573 -0.0858 -0.1299 -0.0333
19467OCT     C138933  21.654  17.278  19.097  0.0037 -0.1981 -0.2588
19467OCT     C238934  21.256  17.497  18.971  0.0465  0.0307 -0.4810
19468OCT     C138935  19.553  11.059   8.288 -0.2660 -0.0056 -0.2905
19468OCT     C238936  19.652  11.344   8.680 -0.6621 -0.0536 -0.1333
19469OCT     C138937  20.405   5.330   8.599  0.3497  0.4490 -0.1935
19469OCT     C238938  20.351   4.904   8.722  0.2214  0.3834 -0.0316
19470OCT     C138939  23.019   4.143  23.210  0.2502  0.0613 -0.5767
19470OCT     C238940  22.916   4.456  22.824 -0.1486 -0.1803 -0.1550
19471OCT     C138941   3.803  22.097  19.930  0.3312  0.0517  0.1968
19471OCT     C238942   4.027  22.244  19.597  0.2140 -0.0005 -0.1220
19472OCT     C138943  20.441   3.576   9.488  0.0160 -0.1515 -0.0408
19472OCT     C238944  20.880   3.467   9.575  0.2842  0.2513 -0.0411
19473OCT     C138945  17.401   1.838  19.796 -0.0456  0.1734  0.1754
19473OCT     C238946  17.185   2.207  19.590  0.3891 -0.0354 -0.0710
19474OCT     C138947  20.673   9.821  15.036  0.0886 -0.3512  0.1594
19474OCT     C238948  20.359   9.571  14.795 -0.2678  0.4466  0.0357
19475OCT     C138949  11.922  13.557  13.397 -0.0965  0.3010 -0.6637
19475OCT     C238950  12.006  13.610  12.929  0.1689 -0.2641  0.1230
19476OCT     C138951   9.660   6.508  15.053  0.1458  0.0104 -0.0629
19476OCT     C238952   9.490   6.888  14.999 -0.1317 -0.0468 -0.4300
19477OCT     C138953  14.061   3.108  18.769 -0.1504  0.0536 -0.5477
19477OCT     C238954  13.783   3.154  18.426  0.1852 -0.2690 -0.1177
19478OCT     C138955  18.996   4.593   6.937 -0.0357 -0.1602 -0.2268
19478OCT     C238956  18.582   4.578   7.109 -0.2800 -0.3598 -0.1187
19479OCT     C138957  18.822  10.302   9.292 -0.0407 -0.0679 -0.1708
19479OCT     C238958  19.087  10.117   9.622  0.2851  0.1716  0.1092
19480OCT     C138959  14.833  11.775  23.339  0.0389  0.2547  0.4777
19480OCT     C238960  15.122  12.080  23.217  0.0344 -0.3620  0.0010
19481OCT     C138961  14.005   9.947  19.530  0.3169 -0.1606 -0.0604
19481OCT     C238962  13.827  10.339  19.653  0.0187  0.1765 -0.2548
19482OCT     C138963  12.044   2.027   8.487 -0.0156  0.1323  0.0949
19482OCT     C238964  11.988   2.284   8.073 -0.0702 -0.1365 -0.0144
19483OCT     C138965   8.371   6.626   3.056  0.1731 -0.0294 -0.0917
19483OCT     C238966   8.308   6.939   2.743 -0.1333 -0.2063 -0.0763
19484OCT     C138967  23.023   7.228   0.168 -0.0100  0.0003  0.1835
19484OCT     C238968  23.261   7.306  23.528  0.1863 -0.0244  0.0210
19485OCT     C138969  11.647   0.961   6.870 -0.0453 -0.1872  0.0304
19485OCT     C238970  11.482   0.683   7.183  0.1117  0.1015  0.0651
19486OCT     C138971   9.241   5.441   8.740  0.3371 -0.1149  0.0568
19486OCT     C238972   9.091   5.883   8.581  0.0500 -0.0665  0.4688
19487OCT     C138973  10.473  18.862  14.213  0.1336 -0.0565  0.2392
19487OCT     C238974  10.697  18.948  14.587  0.0874  0.1804 -0.0469
19488OCT     C138975   4.153   5.018   8.323 -0.1647  0.2315  0.5048
19488OCT     C238976   4.001   5.127   7.903 -0.0967 -0.2917  0.2602
19489OCT     C138977  14.563  14.526  13.413  0.4145  0.0133  0.2233
19489OCT     C238978  14.987  14.558  13.620  0.0525 -0.5136  0.2068
19490OCT     C138979  16.081  23.025  12.576  0.3915 -0.0080  0.5112
19490OCT     C238980  16.026  22.966  12.987  0.3523 -0.0676  0.4603
19491OCT     C138981   2.016   3.003  12.140  0.0213 -0.0284 -0.2807
19491OCT     C238982   2.185   2.881  11.731  0.0118  0.4336  0.1347
19492OCT     C138983  20.984  11.383  16.478  0.3014 -0.0295  0.0639
19492OCT     C238984  20.650  11.079  16.250 -0.1365 -0.1919 -0.2365
19493OCT     C138985  13.868  11.043   2.480 -0.3093 -0.2130 -0.0901
19493OCT     C238986  13.669  11.122   2.015 -0.3026  0.2672 -0.1536
19494OCT     C138987  11.347   3.056  20.242 -0.1253  0.0215  0.2546
19494OCT     C238988  11.638   3.197  19.900 -0.1616 -0.0435 -0.2724
19495OCT     C138989  23.633  12.102  10.598  0.2579  0.1135 -0.2522
19495OCT     C238990   0.137  11.784  10.278  0.2657 -0.4998 -0.0068
19496OCT     C138991   9.082  23.195   2.785 -0.2639  0.1525 -0.0646
19496OCT     C238992   9.107  22.736   2.531  0.0133  0.0058 -0.0628
19497OCT     C138993   0.875  18.951  15.496 -0.0064  0.1997 -0.3515
19497OCT     C238994   0.783  19.261  15.805  0.1535  0.3220  0.0509
19498OCT     C138995   9.738   8.077  16.624  0.0415 -0.1615  0.0661
19498OCT     C238996   9.282   8.067  16.793 -0.1891 -0.0437  0.1448
19499OCT     C138997  15.960  16.921  16.156 -0.1716  0.0505 -0.1902
19499OCT     C238998  16.322  16.682  16.237 -0.2708  0.0232 -0.1009
19500OCT     C138999  22.123  13.175  13.504  0.2464  0.1050  0.2511
19500OCT     C239000  21.699  13.324  13.263 -0.0402  0.1521  0.1470
19501OCT     C139001  10.589   1.294  12.829 -0.3741 -0.1811  0.4507
19501OCT     C239002  10.206   1.462  13.020  0.0229  0.2079 -0.0647
19502OCT     C139003  18.621  21.710   5.113  0.0291 -0.2357 -0.0941
19502OCT     C239004  18.983  21.370   5.220  0.3088 -0.3212 -0.0312
19503OCT     C139005   8.042  21.173  15.794 -0.1687 -0.4135  0.0406
19503OCT     C239006   7.656  21.419  15.974  0.2282  0.1937  0.0052
19504OCT     C139007  16.199  18.398  21.161 -0.0756 -0.1909  0.1948
19504OCT     C239008  16.612  18.604  21.204 -0.0852 -0.1733 -0.2060
19505OCT     C139009  23.370  21.509   2.218  0.0716  0.0349  0.2932
19505OCT     C239010  23.505  21.572   2.692  0.2164  0.2118  0.2312
19506OCT     C139011   2.757  21.939  11.451 -0.0749 -0.0563 -0.0571
19506OCT     C239012   3.005  21.873  11.078  0.0486  0.2710 -0.0629
19507OCT     C139013   8.535  14.893  10.516 -0.0168 -0.0885 -0.0053
19507OCT     C239014   8.937  14.917  10.236 -0.1098  0.4971 -0.3048
19508OCT     C139015   6.922   7.173  10.128 -0.0595  0.2300  0.2600
19508OCT     C239016   6.650   7.381   9.849  0.1739 -0.0895 -0.1953
19509OCT     C139017   5.751   6.972   0.899  0.4776 -0.3291 -0.3447
19509OCT     C239018   5.692   6.921   1.339  0.2881  0.2126 -0.0836
19510OCT     C139019   9.674  21.029   8.221 -0.3130  0.1802 -0.0832
19510OCT     C239020   9.286  21.121   8.005 -0.4041 -0.1063 -0.0176
19511OCT     C139021  10.065  11.808  15.081 -0.0075  0.1530  0.2207
19511OCT     C239022  10.282  12.126  14.795  0.0762  0.0312  0.1836
19512OCT     C139023  10.945  19.860  12.845  0.1675 -0.0554  0.1356
19512OCT     C239024  10.962  19.937  12.359  0.1425  0.0420 -0.1616
19513OCT     C139025   6.932  16.139   8.045 -0.0345  0.1605 -0.2344
19513OCT     C239026   6.884  15.684   8.240  0.2532 -0.0250 -0.1557
19514OCT     C139027   4.395  12.101  22.240 -0.0725  0.1458  0.2528
19514OCT     C239028   4.338  11.853  22.627 -0.1291 -0.1074  0.0220
19515OCT     C139029  10.977   8.560   9.055  0.3759 -0.1921  0.4703
19515OCT     C239030  10.992   8.115   9.218  0.0528  0.5335  0.0224
19516OCT     C139031  14.379  16.547   1.841  0.0768  0.2132 -0.1058
19516OCT     C239032  13.934  16.458   1.888 -0.0848 -0.1893 -0.0407
19517OCT     C139033  18.433  19.381   2.511 -0.2077  0.1521  0.0646
19517OCT     C239034  18.409  18.935   2.716 -0.0926  0.0658  0.2342
19518OCT     C139035  20.878   4.633   6.352 -0.0942 -0.1190 -0.2087
19518OCT     C239036  21.324   4.751   6.354 -0.0411 -0.0352 -0.4781
19519OCT     C139037   8.050  12.532   3.760 -0.2887  0.0830 -0.3065
19519OCT     C239038   8.094  12.970   3.572  0.0959 -0.0633 -0.1802
19520OCT     C139039  12.709  22.322  23.361  0.2337  0.1538 -0.0127
19520OCT     C239040  13.172  22.426  23.483  0.3464  0.2581  0.1539
19521OCT     C139041   6.156   6.364  13.957 -0.1730  0.3883  0.2429
19521OCT     C239042   6.466   6.034  14.043  0.1556 -0.1428 -0.1757
19522OCT     C139043  18.881  21.895   7.020 -0.1236 -0.0119  0.0081
19522OCT     C239044  19.226  21.532   7.062 -0.1161 -0.0209 -0.4400
19523OCT     C139045  22.963  10.690  21.407 -0.1263  0.1493  0.0311
19523OCT     C239046  23.268  10.368  21.117 -0.0177 -0.2099  0.1140
19524OCT     C139047  21.287  21.882  20.464  0.1205 -0.1054 -0.0973
19524OCT     C239048  21.109  21.484  20.472 -0.3320  0.2815  0.0077
19525OCT     C139049   3.094  23.658  13.818  0.0101  0.0416  0.2435
19525OCT     C239050   3.062  23.528  13.374 -0.1873  0.3795 -0.2760
19526OCT     C139051  18.679  10.931   8.975  0.2249 -0.0955  0.1785
19526OCT     C239052  18.511  10.476   8.917  0.2169  0.2706 -0.0733
19527OCT     C139053   3.781  21.846  12.902 -0.1234 -0.3762  0.0914
19527OCT     C239054   3.623  22.189  12.631  0.0027 -0.5924  0.0102
19528OCT     C139055  18.286   1.210  17.820  0.2659  0.3119  0.1411
19528OCT     C239056  18.434   1.348  17.433 -0.1883 -0.1567  0.2679
19529OCT     C139057  11.807  10.346   7.858 -0.2512 -0.0281 -0.0672
19529OCT     C239058  12.223  10.279   7.870  0.0694  0.3415  0.0264
19530OCT     C139059   2.238  13.579  22.185 -0.0053 -0.2248 -0.0886
19530OCT     C239060   2.243  13.576  21.736  0.0950  0.3147 -0.1012
19531OCT     C139061   4.508  15.663  21.670  0.2454 -0.2082  0.6638
19531OCT     C239062   4.914  15.740  21.451 -0.1765  0.1416 -0.3461
19532OCT     C139063  15.209  12.151   6.500 -0.3902 -0.3200  0.0292
19532OCT     C239064  15.559  11.880   6.283 -0.0221 -0.0497  0.2432
19533OCT     C139065   9.909   2.884  17.688 -0.1163 -0.0873 -0.1207
19533OCT     C239066   9.981   2.612  17.307 -0.1144  0.2807  0.0717
19534OCT     C139067  11.214  21.290   7.077 -0.4978  0.2377  0.0919
19534OCT     C239068  11.282  20.868   7.240 -0.5201  0.0452  0.0345
19535OCT     C139069  13.181   7.548   4.292 -0.3436  0.0812 -0.2796
19535OCT     C239070  13.363   7.130   4.077 -0.1264 -0.2699  0.1207
19536OCT     C139071  18.328   0.375  20.400  0.4664  0.2313  0.0226
19536OCT     C239072  18.245   0.289  20.824  0.0665  0.4819 -0.1895
19537OCT     C139073  22.492  23.418   9.932  0.0066 -0.1849  0.0507
19537OCT     C239074  22.072  23.379   9.682  0.2820 -0.1554 -0.3657
19538OCT     C139075   3.773   4.654   3.148 -0.1190  0.1304 -0.2030
19538OCT     C239076   3.404   4.585   3.421  0.4817 -0.0131 -0.0274
19539OCT     C139077  18.298  21.008  18.024  0.2302  0.0158 -0.0527
19539OCT     C239078  18.471  20.927  17.542  0.0110  0.0979 -0.1975
19540OCT     C139079  15.058  20.752  16.892 -0.0057  0.0068  0.0289
19540OCT     C239080  14.977  21.188  16.890 -0.1820  0.2971  0.0336
19541OCT     C139081  17.865   1.474  14.734  0.1283  0.0582  0.0627
19541OCT     C239082  17.877   1.062  14.913 -0.0496 -0.2367  0.1120
19542OCT     C139083  17.544   8.076   4.385 -0.5831  0.1914 -0.2044
19542OCT     C239084  17.911   8.251   4.630 -0.2175 -0.0378  0.1301
19543OCT     C139085  18.154  18.235   5.978 -0.0639 -0.0529 -0.1193
19543OCT     C239086  17.959  18.346   5.568 -0.0548 -0.0855  0.1849
19544OCT     C139087  13.706   7.425   6.937 -0.0682  0.0233  0.3067
19544OCT     C239088  13.579   7.442   6.466  0.0211 -0.3335 -0.1856
19545OCT     C139089  21.557  15.696  21.472 -0.1599 -0.2180  0.1495
19545OCT     C239090  21.830  15.742  21.099 -0.0866  0.1291  0.0339
19546OCT     C139091  11.287   8.105  20.723 -0.0318 -0.5646  0.3817
19546OCT     C239092  11.707   8.246  20.874  0.0506  0.1582 -0.0968
19547OCT     C139093   8.165   7.747  15.475 -0.0239  0.0727 -0.0075
19547OCT     C239094   8.350   7.800  15.020 -0.1518  0.0033  0.2210
19548OCT     C139095   3.072  17.632  22.511 -0.1423 -0.1358 -0.1986
19548OCT     C239096   2.898  17.574  22.053  0.1329 -0.0632  0.4217
19549OCT     C139097  14.119  14.937   1.959  0.0281  0.0158 -0.1609
19549OCT     C239098  14.503  15.171   1.772  0.1670 -0.1958  0.3648
19550OCT     C139099  14.614  21.117  22.279  0.0098 -0.0615 -0.2514
19550OCT     C239100  14.747  20.717  22.220 -0.1387 -0.4351  0.2665
19551OCT     C139101  17.316  14.613  22.963 -0.0700 -0.1183  0.0814
19551OCT     C239102  16.962  14.302  23.054  0.2492  0.2134 -0.1353
19552OCT     C139103  12.387  12.493  18.007 -0.0058 -0.1723 -0.0584
19552OCT     C239104  12.337  12.280  18.426 -0.0500  0.1619 -0.2247
19553OCT     C139105   7.104  21.640  17.321 -0.2218  0.2317 -0.2845
19553OCT     C239106   7.506  21.548  17.428 -0.2858  0.1151  0.2294
19554OCT     C139107   5.666  10.661   2.518 -0.1471  0.0105  0.0445
19554OCT     C239108   5.899  10.412   2.220 -0.0981  0.1585  0.2990
19555OCT     C139109  20.702  17.515  23.327 -0.3245 -0.0484  0.1163
19555OCT     C239110  20.808  17.779   0.014 -0.0339 -0.1695  0.0934
19556OCT     C139111   5.789   2.417  13.640 -0.2868  0.1464 -0.1351
19556OCT     C239112   5.924   2.757  13.348 -0.2271 -0.3442 -0.3650
19557OCT     C139113   9.186  19.649  11.043  0.2089  0.0391 -0.0197
19557OCT     C239114   9.203  20.013  11.275 -0.1641 -0.1831 -0.0488
19558OCT     C139115   9.617   8.209   1.296  0.2731 -0.0547  0.1079
19558OCT     C239116   9.927   8.422   1.596 -0.1974  0.1543 -0.1092
19559OCT     C139117   9.331  20.001  23.395 -0.1184 -0.2291 -0.2863
19559OCT     C239118   9.664  20.234  23.620  0.0364  0.2384  0.0245
19560OCT     C139119  14.549  21.894  14.821  0.0306 -0.1775 -0.1031
19560OCT     C239120  14.882  22.250  14.799  0.4117  0.1119 -0.1262
19561OCT     C139121   8.003  22.575  20.387  0.0869 -0.0307  0.3094
19561OCT     C239122   8.294  22.854  20.663 -0.4186  0.2912  0.0846
19562OCT     C139123   7.010  11.140  10.757 -0.2901  0.3090 -0.0502
19562OCT     C239124   6.891  11.440  10.404 -0.1913 -0.1008  0.0088
19563OCT     C139125   5.393  14.018  19.557  0.0585 -0.1607  0.0223
19563OCT     C239126   5.712  13.732  19.639  0.3836  0.0680 -0.3164
19564OCT     C139127   4.044  10.107   0.751  0.2818 -0.1002 -0.3559
19564OCT     C239128   3.999  10.558   0.739  0.2752  0.0230  0.5498
19565OCT     C139129   5.668  19.316   2.862  0.2686  0.0078  0.0330
19565OCT     C239130   5.446  19.253   3.268  0.1958  0.0589 -0.2445
19566OCT     C139131   0.101  21.284  19.771  0.3092 -0.1762 -0.2568
19566OCT     C239132  23.659  20.878  19.627 -0.0890 -0.1778 -0.5150
19567OCT     C139133  16.283  12.870  15.519 -0.0142  0.0172 -0.1083
19567OCT     C239134  16.547  13.234  15.514 -0.1156  0.0852 -0.1052
19568OCT     C139135  16.372   8.226  13.454 -0.3071 -0.0776  0.0674
19568OCT     C239136  16.090   8.055  13.790 -0.3162 -0.0729  0.1754
19569OCT     C139137   5.466  23.567  16.976 -0.1500  0.1516  0.1216
19569OCT     C239138   5.665  23.426  16.588  0.0071  0.0759  0.1717
19570OCT     C139139  15.737  10.237  20.735  0.2782  0.3040  0.3801
19570OCT     C239140  15.304  10.083  20.630  0.0974 -0.0644  0.0830
19571OCT     C139141  16.032  19.875  21.427  0.1790  0.1309 -0.0919
19571OCT     C239142  16.127  20.342  21.535  0.2113  0.1475 -0.5240
19572OCT     C139143   3.010   1.469  20.415  0.2876  0.1668 -0.2150
19572OCT     C239144   3.323   1.462  20.779  0.0944  0.1752 -0.1129
19573OCT     C139145  15.742   2.258  11.264  0.2172  0.1186  0.0157
19573OCT     C239146  16.069   1.998  11.417  0.2185  0.1087  0.1259
19574OCT     C139147  14.510  13.890  20.043 -0.1591 -0.2254  0.2833
19574OCT     C239148  14.611  14.138  19.692  0.1274 -0.2088  0.0641
19575OCT     C139149  18.573  11.940  17.377 -0.0957 -0.0627 -0.0566
19575OCT     C239150  18.380  11.944  17.790 -0.0286 -0.1127  0.2821
19576OCT     C139151  10.516  14.882  15.355  0.0524  0.2842 -0.4905
19576OCT     C239152  10.501  15.340  15.567  0.0416  0.3237 -0.1042
19577OCT     C139153   0.757  21.754   4.765 -0.4885 -0.0236  0.1485
19577OCT     C239154   0.532  21.955   5.139  0.0608 -0.3075 -0.1614
19578OCT     C139155  11.933   8.972   4.983  0.0436 -0.1080 -0.4981
19578OCT     C239156  11.470   9.055   5.211 -0.1790  0.0512  0.0513
19579OCT     C139157  23.235   5.121   0.340 -0.1801  0.0976  0.4134
19579OCT     C239158  23.368   4.620   0.262  0.3093 -0.0984  0.0836
19580OCT     C139159   9.882  13.979  22.024 -0.0510 -0.2620 -0.1392
19580OCT     C239160  10.143  14.219  21.691  0.0841 -0.1742  0.0350
19581OCT     C139161  20.340   3.147   2.295  0.1681 -0.1957  0.3283
19581OCT     C239162  20.642   3.438   2.101 -0.0147 -0.2067 -0.0302
19582OCT     C139163  22.306  10.388   8.067  0.0243 -0.2228 -0.0747
19582OCT     C239164  21.982  10.718   8.177 -0.0029 -0.1789  0.2722
19583OCT     C139165   3.951   3.844  15.102  0.0042  0.0022  0.1364
19583OCT     C239166   4.066   4.061  15.510  0.3967 -0.1164 -0.1618
19584OCT     C139167   2.536   3.902   3.642 -0.0027  0.2427  0.0453
19584OCT     C239168   2.810   3.869   3.247  0.2935  0.3149  0.1749
19585OCT     C139169   4.215  17.705   4.240 -0.0351 -0.1116 -0.2083
19585OCT     C239170   4.596  17.762   4.358  0.0521 -0.0713  0.0504
19586OCT     C139171  14.930  11.895   3.784 -0.0612  0.0920 -0.1980
19586OCT     C239172  15.044  12.038   4.191  0.2452 -0.0840  0.1084
19587OCT     C139173   0.161   0.768   6.309 -0.1063  0.1406  0.0606
19587OCT     C239174   0.569   0.780   6.125  0.2371  0.3489  0.0689
19588OCT     C139175  14.589  17.367   2.608 -0.0354 -0.0014  0.1347
19588OCT     C239176  14.823  17.512   2.984 -0.0900 -0.0220 -0.0310
19589OCT     C139177  21.664   6.553   1.064 -0.0452 -0.0722 -0.1219
19589OCT     C239178  21.938   6.863   1.257  0.0312  0.1581  0.1181
19590OCT     C139179   6.759  23.138   3.227 -0.0858  0.0654  0.2019
19590OCT     C239180   6.354  23.064   3.095 -0.2016  0.6589 -0.2657
19591OCT     C139181  17.133  13.609   6.380 -0.3531  0.0250  0.1457
19591OCT     C239182  17.533  13.639   6.127  0.5661 -0.1119  0.1521
19592OCT     C139183  13.457  20.695  22.775  0.1100 -0.3030 -0.0340
19592OCT     C239184  13.265  20.498  23.190 -0.0512  0.0912  0.1632
19593OCT     C139185   6.754   4.607   5.301  0.0309 -0.0579 -0.4338
19593OCT     C239186   6.507   5.010   5.262 -0.0087  0.2384  0.0656
19594OCT     C139187   1.288   9.382   6.274 -0.1654 -0.1432  0.0116
19594OCT     C239188   1.162   9.320   5.829 -0.2135  0.1249 -0.2785
19595OCT     C139189   8.992  22.681  16.243  0.2438  0.0499 -0.1147
19595OCT     C239190   8.879  22.801  15.821  0.0177  0.2498  0.1929
19596OCT     C139191   2.415  19.430  11.200 -0.1633 -0.2075  0.0095
19596OCT     C239192   2.338  19.498  10.726 -0.0741  0.1173 -0.0433
19597OCT     C139193  17.664   4.499   0.423  0.2633  0.3421 -0.5890
19597OCT     C239194  17.758   4.935   0.681  0.1619  0.1553  0.2834
19598OCT     C139195   4.880  20.708   4.035 -0.2198  0.1320  0.2808
19598OCT     C239196   4.904  20.827   4.507  0.0486  0.0263 -0.0007
19599OCT     C139197   0.959  16.882  11.887  0.0987 -0.3075  0.0007
19599OCT     C239198   0.710  16.649  12.196 -0.2253 -0.0216 -0.1504
19600OCT     C139199  17.218  20.576  10.281 -0.0126 -0.3128  0.0668
19600OCT     C239200  16.817  20.638  10.044 -0.0872 -0.0769  0.0386
19601OCT     C139201   9.743   2.795   2.034  0.0632  0.2249 -0.1562
19601OCT     C239202   9.781   2.659   1.585 -0.3280  0.1183 -0.2681
19602OCT     C139203  19.873  12.502  22.995  0.2789  0.1472 -0.4048
19602OCT     C239204  20.106  12.721  23.345 -0.1260 -0.2327 -0.4068
19603OCT     C139205  19.994  23.627   1.036 -0.1019  0.0882 -0.4492
19603OCT     C239206  20.058   0.304   1.230 -0.1422  0.0417 -0.5352
19604OCT     C139207  23.180  19.998  15.914  0.1948  0.2577 -0.1658
19604OCT     C239208  23.137  19.570  16.126  0.1161  0.0803 -0.4284
19605OCT     C139209   2.556   9.070  22.236 -0.0255  0.4579 -0.4627
19605OCT     C239210   2.898   8.792  22.391 -0.2003 -0.3086 -0.1876
19606OCT     C139211   3.188  10.320   3.986 -0.4139 -0.0982  0.5282
19606OCT     C239212   3.141  10.331   3.545  0.1106  0.1631  0.2883
19607OCT     C139213   2.638   0.439   3.382  0.0199  0.0250 -0.1637
19607OCT     C239214   2.499   0.785   3.112  0.1292  0.0622  0.3023
19608OCT     C139215   6.155  19.079   4.139  0.0169  0.0070 -0.2896
19608OCT     C239216   6.158  19.020   4.653  0.3083  0.3186  0.0854
19609OCT     C139217   5.780   4.311  16.104  0.0684  0.1769 -0.1112
19609OCT     C239218   5.517   4.620  16.263  0.0898  0.0613 -0.0392
19610OCT     C139219  20.910  15.696   0.702 -0.0386  0.0274 -0.1076
19610OCT     C239220  21.012  15.830   0.286  0.1770  0.2751 -0.2589
19611OCT     C139221   3.013   2.863  20.364 -0.0644  0.1942  0.1252
19611OCT     C239222   2.716   2.813  20.018 -0.3432 -0.1257  0.0128
19612OCT     C139223   3.850   3.014   8.551 -0.1252  0.1688 -0.2270
19612OCT     C239224   3.874   3.098   8.092  0.1302  0.1985  0.0144
19613OCT     C139225   7.104  22.513   1.490  0.1129  0.0288  0.0012
19613OCT     C239226   6.842  22.698   1.149 -0.0699 -0.1765 -0.0314
19614OCT     C139227   7.496  16.680   6.798  0.5479 -0.0462  0.1844
19614OCT     C239228   7.111  16.958   6.654 -0.3514  0.1910 -0.1830
19615OCT     C139229  15.073  21.426  19.359  0.0126 -0.1877 -0.2835
19615OCT     C239230  14.615  21.365  19.207  0.1156 -0.2238  0.0645
19616OCT     C139231   8.568   5.213   0.677 -0.2930 -0.4588  0.0547
19616OCT     C239232   8.743   5.568   0.399 -0.0437  0.0270 -0.1798
19617OCT     C139233  17.906  19.533   5.781  0.2499 -0.0482  0.0243
19617OCT     C239234  18.252  19.669   5.540 -0.1861 -0.3921  0.2058
19618OCT     C139235  19.679   7.242  20.499 -0.3451 -0.1986 -0.0435
19618OCT     C239236  19.469   6.858  20.395  0.1767  0.1618 -0.0898
19619OCT     C139237  11.330  22.460   6.369 -0.0822 -0.1200 -0.3598
19619OCT     C239238  11.624  22.844   6.341  0.1519  0.2683  0.0465
19620OCT     C139239   5.926   8.123  18.051  0.1411 -0.0916 -0.2229
19620OCT     C239240   6.147   8.355  18.383  0.0818 -0.0566 -0.1313
19621OCT     C139241  14.284   0.346  19.390  0.0487  0.1472  0.2108
19621OCT     C239242  14.579   0.643  19.544 -0.1580  0.1440 -0.3636
19622OCT     C139243  10.826  19.139   9.200 -0.1854  0.0798  0.1480
19622OCT     C239244  10.741  18.660   9.165  0.0103 -0.1291  0.0519
19623OCT     C139245  16.425  13.854  23.267 -0.1705  0.2109  0.1984
19623OCT     C239246  16.577  13.383  23.340  0.0968 -0.4067  0.0191
19624OCT     C139247  18.003  18.137  13.969  0.2394  0.5445  0.3395
19624OCT     C239248  17.969  17.665  14.069  0.2899  0.4510 -0.0227
19625OCT     C139249   1.639  11.218   9.978  0.1930  0.0052  0.3330
19625OCT     C239250   1.335  11.136   9.622  0.4759  0.0653  0.1607
19626OCT     C139251  18.605   5.156  12.954  0.2810  0.0975  0.3259
19626OCT     C239252  18.995   4.956  12.679 -0.2221 -0.2267 -0.3022
19627OCT     C139253  19.168  18.043   7.917  0.2827  0.4202  0.0646
19627OCT     C239254  19.036  18.154   7.485 -0.1174  0.0741  0.2377
19628OCT     C139255  14.156   6.291  15.502  0.3075  0.0680  0.2162
19628OCT     C239256  14.337   5.865  15.696 -0.0446 -0.3179  0.0241
19629OCT     C139257   9.684   5.958  21.924  0.0906  0.0142  0.0500
19629OCT     C239258  10.034   5.742  22.128 -0.1361  0.2351  0.1934
19630OCT     C139259   9.658  21.029  10.217 -0.0686 -0.1054  0.1788
19630OCT     C239260   9.443  21.101   9.800 -0.0850  0.2155  0.0937
19631OCT     C139261  18.742  21.911  16.702 -0.1811 -0.0746 -0.2755
19631OCT     C239262  18.328  21.617  16.745 -0.0589 -0.0555 -0.4455
19632OCT     C139263  11.086   3.537   2.692 -0.2622  0.2529 -0.4143
19632OCT     C239264  11.552   3.490   2.756 -0.1004 -0.1864  0.0954
19633OCT     C139265   4.136  12.830  17.948  0.0654 -0.1083  0.0632
19633OCT     C239266   3.911  13.120  17.671  0.5669 -0.0201 -0.0901
19634OCT     C139267  19.982  14.235   8.211  0.0933 -0.1339 -0.2032
19634OCT     C239268  20.254  14.165   7.845  0.3065  0.0284 -0.1156
19635OCT     C139269  22.590  12.268  10.226 -0.0002 -0.2009 -0.1644
19635OCT     C239270  22.366  12.445  10.624  0.0684  0.1978 -0.3820
19636OCT     C139271  14.791   2.628  18.146 -0.0933  0.0023  0.3063
19636OCT     C239272  14.521   2.542  17.857  0.2559 -0.2145  0.4375
19637OCT     C139273  17.912   7.229  19.372  0.0332 -0.0702  0.0757
19637OCT     C239274  17.884   6.788  19.540 -0.0443 -0.0226 -0.0466
19638OCT     C139275  15.158  16.102  21.281 -0.0296 -0.0940 -0.0560
19638OCT     C239276  15.363  16.019  20.941 -0.1223  0.6181  0.2382
19639OCT     C139277  22.275   0.845  17.300 -0.2299 -0.2689  0.2059
19639OCT     C239278  22.457   0.553  17.612  0.1253  0.0459  0.1246
19640OCT     C139279   5.840  20.227  16.673 -0.0576 -0.0944  0.0536
19640OCT     C239280   6.290  20.355  16.667  0.1922 -0.0510  0.0042
19641OCT     C139281   5.236  22.055  15.318  0.2653 -0.1327 -0.2676
19641OCT     C239282   5.447  22.046  14.852 -0.1609 -0.3255 -0.2901
19642OCT     C139283  17.074   5.260   1.919  0.0395 -0.0127  0.1169
19642OCT     C239284  17.319   5.518   2.166 -0.0381  0.1566 -0.1005
19643OCT     C139285   1.959  11.311  14.161  0.1496 -0.3379  0.4052
19643OCT     C239286   1.633  11.228  14.503 -0.0574  0.2404 -0.2732
19644OCT     C139287   4.881  23.283  22.474 -0.1207 -0.0554 -0.0554
19644OCT     C239288   4.874  23.657  22.219  0.3537 -0.0124 -0.0363
19645OCT     C139289  19.590   9.390   2.274  0.2054 -0.1377  0.3757
19645OCT     C239290  19.244   9.074   2.238 -0.3860  0.3538  0.0958
19646OCT     C139291   8.761   3.778   5.266  0.3262  0.2235  0.3467
19646OCT     C239292   9.176   3.703   5.478 -0.1522  0.2114 -0.1634
19647OCT     C139293  20.607  21.567  22.260  0.1894  0.0147  0.0943
19647OCT     C239294  20.317  21.299  22.470 -0.0837 -0.2468 -0.1964
19648OCT     C139295  15.336  11.942  19.005 -0.2736 -0.1467  0.1055
19648OCT     C239296  15.465  12.222  19.373 -0.4436 -0.2485 -0.0332
19649OCT     C139297   8.132  18.181   3.390 -0.1520 -0.4668 -0.3942
19649OCT     C239298   7.913  18.565   3.426  0.0945  0.2089  0.1178
19650OCT     C139299  18.155  17.262   8.710  0.1812  0.2011 -0.4221
19650OCT     C239300  18.337  17.629   8.751 -0.2833  0.0855 -0.2224
19651OCT     C139301  13.672  16.736   8.318  0.0061  0.0127 -0.0691
19651OCT     C239302  13.348  16.945   8.086  0.0882  0.1968  0.4172
19652OCT     C139303  22.473   3.600   8.977 -0.1246  0.3349  0.0129
19652OCT     C239304  22.914   3.702   9.091  0.0359 -0.4253  0.1496
19653OCT     C139305  22.299  21.246  23.728  0.2193  0.3293  0.1896
19653OCT     C239306  21.858  21.237   0.166  0.1090  0.1485 -0.0060
19654OCT     C139307   4.460  14.793  20.617  0.3317 -0.2530  0.0169
19654OCT     C239308   4.046  14.933  20.913  0.1464  0.0267  0.1519
19655OCT     C139309   7.418   8.569   9.684  0.1165 -0.0786  0.0678
19655OCT     C239310   7.815   8.780   9.682  0.2212  0.3976  0.1745
19656OCT     C139311   0.137   9.497  12.826  0.4525  0.0218 -0.3112
19656OCT     C239312   0.080   9.032  12.867 -0.1767 -0.1170 -0.1485
19657OCT     C139313   2.919  21.187   9.710 -0.1672 -0.0277  0.0336
19657OCT     C239314   2.491  21.265   9.882 -0.4055 -0.0353  0.1273
19658OCT     C139315   7.655   2.910   2.478  0.0325  0.7051  0.0135
19658OCT     C239316   7.733   2.555   2.789  0.1152 -0.1224 -0.3546
19659OCT     C139317  19.274  22.286  20.935  0.1131 -0.3526  0.0082
19659OCT     C239318  19.296  22.589  20.551 -0.0856  0.2633  0.0446
19660OCT     C139319   3.997  11.228  10.792 -0.0500 -0.1389  0.1754
19660OCT     C239320   3.759  11.631  10.835 -0.3350  0.1180  0.0425
19661OCT     C139321   4.583  22.077  11.081 -0.0795  0.2094 -0.2762
19661OCT     C239322   4.882  22.394  11.031  0.1352 -0.0989  0.3185
19662OCT     C139323  17.725   1.062   0.208  0.3350  0.3156 -0.2403
19662OCT     C239324  17.333   1.302   0.088 -0.0789 -0.2353 -0.1463
19663OCT     C139325   6.511   8.026  21.810 -0.0777  0.1425 -0.2933
19663OCT     C239326   6.275   7.728  22.121  0.0911  0.1877  0.0548
19664OCT     C139327  10.367   3.171   2.492 -0.1098  0.0067 -0.3375
19664OCT     C239328  10.047   2.889   2.731 -0.0861 -0.1591  0.0408
19665OCT     C139329   4.574   4.487   4.039 -0.0687 -0.4153  0.0553
19665OCT     C239330   4.615   4.718   4.436 -0.1642 -0.0002 -0.1431
19666OCT     C139331  16.501   2.157   6.249  0.3220 -0.0514  0.1278
19666OCT     C239332  16.304   1.904   6.572 -0.1169 -0.0475 -0.2704
19667OCT     C139333   6.702  19.364  18.363  0.3537  0.1555  0.2067
19667OCT     C239334   6.399  19.624  18.599 -0.0388 -0.2065  0.2195
19668OCT     C139335  19.389   5.590  17.419 -0.4523 -0.1676  0.1452
19668OCT     C239336  19.107   5.920  17.622 -0.4602 -0.2644 -0.1328
19669OCT     C139337  16.312  14.110  17.861  0.1795 -0.0159 -0.3958
19669OCT     C239338  16.689  14.178  18.150  0.0748  0.1662 -0.2303
19670OCT     C139339  14.165   6.456  19.204 -0.3563 -0.0703  0.2538
19670OCT     C239340  14.503   6.612  18.896 -0.0017 -0.1213  0.0092
19671OCT     C139341  11.202  10.158  12.994 -0.1767 -0.1422 -0.0124
19671OCT     C239342  10.781  10.062  13.149  0.2006  0.0468  0.0663
19672OCT     C139343  16.283  12.302  10.815 -0.1168  0.3538  0.5269
19672OCT     C239344  16.305  12.224  11.236  0.1588 -0.1167  0.2481
19673OCT     C139345   1.426   0.481  14.393  0.0262  0.2228  0.2167
19673OCT     C239346   1.198   0.751  14.016 -0.3695 -0.2586 -0.0648
19674OCT     C139347   7.087   1.519  20.216  0.1743  0.1685 -0.2205
19674OCT     C239348   7.293   1.147  20.338  0.1420  0.1669 -0.1636
19675OCT     C139349  14.854  19.375   9.447 -0.1976  0.1835  0.0504
19675OCT     C239350  14.707  18.983   9.277  0.1921 -0.3312 -0.2781
19676OCT     C139351   3.912  16.669  11.226  0.2333 -0.0201  0.1187
19676OCT     C239352   3.586  16.908  11.525 -0.0978  0.3053 -0.0614
19677OCT     C139353   0.973   8.243   4.055  0.1865  0.2319 -0.4880
19677OCT     C239354   0.653   8.040   3.876  0.0098 -0.2924 -0.0972
19678OCT     C139355   3.416   1.981   2.138  0.0634  0.1195 -0.0208
19678OCT     C239356   3.254   2.379   2.152 -0.1946 -0.3804 -0.0017
19679OCT     C139357   1.947  23.301   0.222 -0.1780 -0.0149 -0.2498
19679OCT     C239358   1.822  22.832   0.308 -0.0812 -0.0649 -0.1187
19680OCT     C139359  11.932  20.942   0.287  0.2998 -0.0817  0.1160
19680OCT     C239360  12.229  21.325   0.487  0.0796  0.4805 -0.1475
19681OCT     C139361  23.267  19.863   3.920 -0.0459  0.0177 -0.1750
19681OCT     C239362  23.420  19.479   4.225  0.0342 -0.0392  0.0686
19682OCT     C139363   5.614  10.052  14.489 -0.0502  0.0147  0.0330
19682OCT     C239364   5.830  10.492  14.566 -0.1010 -0.0845 -0.3261
19683OCT     C139365   7.239  13.026  10.888  0.4283 -0.0713  0.2005
19683OCT     C239366   6.963  13.240  10.601 -0.2474  0.2212 -0.1288
19684OCT     C139367  15.746   5.478  17.958  0.2692  0.1620  0.0557
19684OCT     C239368  15.369   5.761  17.848  0.1969 -0.0630  0.1183
19685OCT     C139369   8.722   8.064  15.210  0.2607 -0.1654 -0.2649
19685OCT     C239370   8.990   8.417  15.203  0.2063 -0.3926  0.0358
19686OCT     C139371   0.460  10.826   9.305  0.1892 -0.2293  0.5100
19686OCT     C239372   0.273  11.046   9.647  0.3856  0.1977 -0.4016
19687OCT     C139373  19.632  21.132  11.501 -0.0976 -0.0625 -0.6142
19687OCT     C239374  19.426  20.828  11.789  0.1922  0.0372  0.0913
19688OCT     C139375  19.879  13.114  23.505  0.2803 -0.0783 -0.3175
19688OCT     C239376  19.494  13.334  23.321 -0.0930  0.0814  0.1569
19689OCT     C139377  12.746  21.531  13.929  0.2268  0.0662 -0.0361
19689OCT     C239378  12.583  21.126  13.839 -0.2677 -0.4691 -0.0393
19690OCT     C139379  20.514  18.042  12.316 -0.0375 -0.1145  0.2238
19690OCT     C239380  20.972  17.901  12.393 -0.2470  0.2288 -0.0810
19691OCT     C139381  12.300   4.710  17.958 -0.0215 -0.0413 -0.0298
19691OCT     C239382  12.617   4.549  18.204 -0.1422  0.0913  0.5661
19692OCT     C139383  16.014  11.872  18.184  0.0211 -0.0775 -0.1520
19692OCT     C239384  16.436  11.905  17.928 -0.0070 -0.6091 -0.0116
19693OCT     C139385   2.924   9.564  15.838  0.1356 -0.2052  0.1325
19693OCT     C239386   3.235   9.718  16.238  0.0310  0.1531  0.0861
19694OCT     C139387  17.990  16.720   0.047 -0.4965 -0.1087  0.2863
19694OCT     C239388  18.339  16.855  23.490 -0.0292 -0.1936  0.3393
19695OCT     C139389  16.339  14.067  16.371 -0.0388 -0.1596 -0.1953
19695OCT     C239390  15.923  14.132  16.063 -0.0508  0.0195 -0.0801
19696OCT     C139391  10.141  16.610   1.391  0.1745 -0.3517  0.2049
19696OCT     C239392  10.243  16.297   1.077 -0.1877 -0.5174  0.1247
19697OCT     C139393  13.233  15.898   9.051  0.1961 -0.1924  0.0070
19697OCT     C239394  13.128  16.352   8.895 -0.3443 -0.0803 -0.0748
19698OCT     C139395  21.586   5.222   3.427  0.0973 -0.3759 -0.0106
19698OCT     C239396  21.439   5.073   3.845 -0.0276  0.2591 -0.0342
19699OCT     C139397  20.569   2.961  18.081 -0.0595  0.0619  0.2314
19699OCT     C239398  20.909   2.631  18.060 -0.1674 -0.1154 -0.2736
19700OCT     C139399  20.802  14.835  19.630 -0.1084 -0.2790 -0.3576
19700OCT     C239400  20.843  15.117  19.256  0.1804  0.0338 -0.1337
19701OCT     C139401   4.949  10.640  21.997  0.0610 -0.1564  0.1538
19701OCT     C239402   4.750  10.419  22.363 -0.1021  0.0091  0.0400
19702OCT     C139403  14.240   7.616  16.138  0.0332 -0.1368 -0.1246
19702OCT     C239404  14.514   7.718  15.807 -0.0461 -0.0359 -0.0824
19703OCT     C139405  11.889   0.473   6.590  0.2923 -0.0207 -0.1681
19703OCT     C239406  11.852   0.372   6.083 -0.0893 -0.2272 -0.2615
19704OCT     C139407   2.469   6.571  20.094 -0.0399 -0.1440 -0.4754
19704OCT     C239408   2.726   6.892  20.304 -0.1536 -0.1773 -0.1415
19705OCT     C139409  23.199  13.927  10.746 -0.2150 -0.3246  0.2150
19705OCT     C239410  23.400  13.873  11.187 -0.0920 -0.2968  0.2157
19706OCT     C139411  12.514  18.432  21.027 -0.0439  0.0289  0.0805
19706OCT     C239412  12.108  18.590  21.133 -0.0158  0.0535  0.0756
19707OCT     C139413  13.247  16.508   7.405  0.6521  0.0340  0.0061
19707OCT     C239414  12.986  16.811   7.660  0.2212  0.0700 -0.1294
19708OCT     C139415  10.436  16.145  20.609  0.3975  0.3381 -0.1934
19708OCT     C239416  10.487  16.063  21.088  0.0515  0.0083  0.0642
19709OCT     C139417   9.601  12.437  14.514  0.0630  0.3303 -0.0369
19709OCT     C239418   9.716  11.983  14.739  0.1922 -0.0903  0.0725
19710OCT     C139419  19.044  21.087  22.492 -0.5865 -0.1248  0.0616
19710OCT     C239420  19.363  21.428  22.647  0.2695  0.0196 -0.2524
19711OCT     C139421   6.375  21.104  10.385  0.1648 -0.0827 -0.1567
19711OCT     C239422   6.713  21.403  10.237 -0.0724 -0.0984 -0.1383
19712OCT     C139423  23.423  16.924  14.992  0.1203 -0.1651 -0.1045
19712OCT     C239424  23.051  17.015  14.661  0.2506  0.1010  0.0730
19713OCT     C139425  17.094  22.778   5.393 -0.2002  0.0025 -0.0600
19713OCT     C239426  17.028  23.109   5.064  0.1631 -0.0953 -0.0241
19714OCT     C139427  22.965  20.603  10.083  0.0098 -0.0704 -0.0567
19714OCT     C239428  22.632  20.752   9.850  0.1374 -0.2380  0.1686
19715OCT     C139429  11.234   7.634  16.023  0.0830 -0.0885 -0.1372
19715OCT     C239430  11.246   8.033  16.233 -0.0187 -0.1779  0.0125
19716OCT     C139431   6.578  18.950   2.484 -0.0790  0.0811 -0.0234
19716OCT     C239432   6.700  19.315   2.487  0.1858  0.0755 -0.1906
19717OCT     C139433   0.622  11.827   7.071  0.2793  0.1754  0.1032
19717OCT     C239434   0.367  11.988   6.701  0.6092  0.4022  0.0635
19718OCT     C139435   0.457  14.157  12.270  0.0972  0.0464 -0.2749
19718OCT     C239436   0.046  14.284  12.115 -0.0866 -0.0865  0.4144
19719OCT     C139437  11.480   3.588  17.210  0.0450 -0.0724 -0.0382
19719OCT     C239438  11.766   3.645  16.910  0.0401 -0.3171  0.0508
19720OCT     C139439   2.920  18.201  20.514 -0.5334 -0.1552 -0.1250
19720OCT     C239440   2.831  17.872  20.186  0.3410 -0.2346  0.1238
19721OCT     C139441  17.949  20.238  18.520  0.0621  0.3902  0.3647
19721OCT     C239442  17.994  19.730  18.472 -0.2400 -0.2246  0.6279
19722OCT     C139443  11.124  11.023  11.658 -0.0933 -0.2309 -0.1722
19722OCT     C239444  10.942  10.592  11.714 -0.1082  0.1800 -0.3616
19723OCT     C139445   4.297  19.586  21.492 -0.4381 -0.1919 -0.1703
19723OCT     C239446   4.053  19.327  21.249  0.1654  0.3419  0.2876
19724OCT     C139447  16.844   5.669  10.656  0.1423 -0.0238  0.2493
19724OCT     C239448  17.166   5.734  10.998 -0.1433  0.2910 -0.1735
19725OCT     C139449   1.538   9.634  19.131  0.2492  0.3272  0.1754
19725OCT     C239450   1.817   9.696  19.482  0.0651  0.4177  0.3320
19726OCT     C139451   6.000  10.223   9.468  0.1376 -0.0538  0.2607
19726OCT     C239452   6.137  10.298   9.893 -0.1378  0.1939 -0.0739
19727OCT     C139453   8.326   0.094   0.847  0.1743 -0.0931 -0.1228
19727OCT     C239454   7.899  23.682   0.727 -0.0318  0.1394 -0.2806
19728OCT     C139455   4.990  19.539   1.557  0.0662 -0.2192  0.1304
19728OCT     C239456   4.772  19.164   1.785  0.1518  0.0504  0.0807
19729OCT     C139457  16.435  20.651  16.609 -0.2880  0.0462 -0.0703
19729OCT     C239458  16.033  20.416  16.605  0.4587  0.0111  0.2276
19730OCT     C139459  18.407   1.596   3.558 -0.0931  0.2550 -0.0903
19730OCT     C239460  18.498   1.547   3.072  0.4872  0.3003 -0.0682
19731OCT     C139461  19.950  14.019   6.584  0.4732 -0.0167  0.1242
19731OCT     C239462  20.377  13.852   6.631 -0.2006  0.1694 -0.1024
19732OCT     C139463   4.048  23.189   7.763 -0.4064 -0.0696 -0.0899
19732OCT     C239464   4.374  22.849   7.667 -0.1769  0.0863  0.0733
19733OCT     C139465   2.814   2.791  23.064  0.2256  0.0046  0.4560
19733OCT     C239466   3.182   2.779  23.339  0.2641  0.1344  0.0091
19734OCT     C139467   8.678   5.344   9.875 -0.2295 -0.4657  0.0202
19734OCT     C239468   8.580   4.936   9.961  0.2190  0.0951  0.0990
19735OCT     C139469   6.607  13.592   2.422 -0.1484 -0.2989  0.0537
19735OCT     C239470   6.386  13.598   2.823  0.0422  0.1360  0.0594
19736OCT     C139471   4.375  17.809  18.525 -0.0834 -0.0918 -0.2844
19736OCT     C239472   4.699  17.476  18.621  0.1265  0.2949 -0.0380
19737OCT     C139473   5.572   0.564   7.643  0.4347 -0.0809 -0.0539
19737OCT     C239474   5.187   0.325   7.682 -0.0437  0.1592 -0.0633
19738OCT     C139475  18.834  12.699  20.620  0.0080 -0.0441  0.0337
19738OCT     C239476  19.169  12.583  20.879 -0.0787  0.1258 -0.0234
19739OCT     C139477  19.752  16.267  22.429  0.4784 -0.0741 -0.0916
19739OCT     C239478  19.697  16.182  21.992 -0.1659  0.0309 -0.0751
19740OCT     C139479   7.374  12.059   4.623 -0.3256 -0.4791  0.0438
19740OCT     C239480   7.102  12.078   4.240  0.0769  0.0137 -0.1314
19741OCT     C139481  18.755   0.986  16.259  0.0136 -0.2046  0.0655
19741OCT     C239482  18.807   1.378  16.433 -0.1994  0.0043  0.2793
19742OCT     C139483   7.950  14.986  12.372 -0.0857  0.1563  0.1510
19742OCT     C239484   7.645  15.081  12.096 -0.2535  0.0842  0.1494
19743OCT     C139485   0.407  23.352  17.718  0.3114 -0.4616  0.1566
19743OCT     C239486   0.783  23.565  17.679 -0.2838 -0.0276 -0.2518
19744OCT     C139487  13.668   3.417  14.751  0.0945 -0.3049 -0.0770
19744OCT     C239488  13.218   3.568  14.924 -0.1823 -0.0243  0.1838
19745OCT     C139489   2.346   1.321   6.409 -0.6732 -0.4513  0.1151
19745OCT     C239490   2.778   1.210   6.385 -0.1893  0.0649  0.0058
19746OCT     C139491  23.320   9.330  17.089  0.2376 -0.0418 -0.2493
19746OCT     C239492  23.367   9.076  17.512  0.1261 -0.2824 -0.0350
19747OCT     C139493  17.933   8.180  13.051  0.2912 -0.1466 -0.0473
19747OCT     C239494  17.680   8.022  12.704 -0.2481  0.0945 -0.1358
19748OCT     C139495   7.307   8.970  23.227  0.1216  0.0790  0.1269
19748OCT     C239496   7.601   8.705  23.356 -0.1756  0.0713 -0.1115
19749OCT     C139497  15.795  15.617  17.954 -0.2558 -0.1662  0.3371
19749OCT     C239498  15.822  15.618  17.488  0.2279  0.0364 -0.0205
19750OCT     C139499   5.012  14.651   7.317 -0.2094 -0.3736  0.2464
19750OCT     C239500   4.704  14.676   7.660 -0.3415  0.1387 -0.0719
19751OCT     C139501  20.998   4.853   2.080  0.0034  0.1034 -0.1275
19751OCT     C239502  21.146   4.542   1.817 -0.2522  0.0140  0.3591
19752OCT     C139503  19.545  21.554   1.496 -0.0713 -0.2377 -0.2504
19752OCT     C239504  19.980  21.855   1.499  0.2753  0.1800  0.2165
19753OCT     C139505   6.997  12.917   7.882 -0.3809  0.2107 -0.1513
19753OCT     C239506   7.270  13.239   8.010 -0.2368 -0.0284  0.1095
19754OCT     C139507   5.538   3.593   7.501 -0.1490 -0.0638  0.0638
19754OCT     C239508   5.560   3.267   7.843  0.0016  0.1215  0.1705
19755OCT     C139509  18.949  18.849   8.429 -0.3870 -0.2476 -0.4250
19755OCT     C239510  19.264  18.523   8.440 -0.2303 -0.0822  0.2101
19756OCT     C139511  22.886   3.066  19.504 -0.2190  0.2537 -0.1240
19756OCT     C239512  23.325   3.204  19.609 -0.2105  0.4580  0.2654
19757OCT     C139513   0.205  17.418  18.447 -0.0781  0.0315 -0.0614
19757OCT     C239514   0.081  17.014  18.681  0.1648 -0.2973  0.0465
19758OCT     C139515  20.693  22.197  21.543  0.3067 -0.1160 -0.2337
19758OCT     C239516  20.608  22.344  21.109  0.1862  0.1743  0.1092
19759OCT     C139517  11.151  12.397   0.618  0.2323 -0.2622 -0.2941
19759OCT     C239518  11.598  12.624   0.531  0.0147 -0.0730 -0.0632
19760OCT     C139519   6.148   5.858  18.140  0.0642 -0.3094 -0.2194
19760OCT     C239520   5.983   5.636  18.450  0.1951  0.3502 -0.0798
19761OCT     C139521   7.316  15.715  10.111  0.0539  0.0903 -0.0978
19761OCT     C239522   7.125  16.016   9.822 -0.0817  0.1132  0.0141
19762OCT     C139523  22.307   3.755  22.205 -0.2759 -0.0083 -0.0615
19762OCT     C239524  22.276   3.398  22.504  0.2461  0.1430  0.5185
19763OCT     C139525  12.509  18.035   4.288 -0.0341  0.3689 -0.4726
19763OCT     C239526  12.795  18.342   4.060 -0.2520 -0.0137  0.1369
19764OCT     C139527   6.626   5.993  18.419 -0.3340 -0.0817  0.5925
19764OCT     C239528   6.991   6.068  18.163  0.2363  0.1368  0.1298
19765OCT     C139529   7.847   3.392   1.051 -0.0280  0.0385  0.1376
19765OCT     C239530   7.601   3.215   0.751  0.3161 -0.1665 -0.0562
19766OCT     C139531  10.495  12.501   6.918 -0.1920  0.2484 -0.2278
19766OCT     C239532  10.313  12.240   6.578 -0.1822 -0.0018 -0.2962
19767OCT     C139533  14.216  18.798   2.829  0.2742 -0.1593  0.0445
19767OCT     C239534  14.613  18.980   2.788 -0.3969  0.2346 -0.0834
19768OCT     C139535  23.655  19.770  11.093 -0.1250  0.0343 -0.1968
19768OCT     C239536  23.273  19.715  10.829  0.1765 -0.0891  0.1327
19769OCT     C139537  12.348   9.982  12.710 -0.2588  0.3703  0.3784
19769OCT     C239538  11.917  10.010  12.517  0.0218  0.0592 -0.0238
19770OCT     C139539   7.744  16.627   4.541 -0.3802  0.0812  0.0187
19770OCT     C239540   7.504  16.206   4.700 -0.3558 -0.1392 -0.0194
19771OCT     C139541   2.292  19.639   9.386 -0.3684 -0.4719  0.1143
19771OCT     C239542   2.003  19.934   9.289  0.0176 -0.0716 -0.1068
19772OCT     C139543  14.829   1.425  12.780  0.5481 -0.0568  0.0311
19772OCT     C239544  15.099   1.674  12.488  0.0057 -0.1937  0.0616
19773OCT     C139545  17.134  16.016   7.172 -0.0030 -0.0677 -0.2664
19773OCT     C239546  17.365  15.697   7.394  0.1576  0.0477  0.1135
19774OCT     C139547   5.136  19.669  13.496 -0.1629  0.0186  0.1847
19774OCT     C239548   5.044  19.246  13.287  0.3134  0.0078  0.0050
19775OCT     C139549  14.232  14.466  19.536 -0.3603  0.0796 -0.1138
19775OCT     C239550  13.933  14.103  19.643 -0.3033  0.0530  0.1727
19776OCT     C139551   5.546  21.716  22.614  0.2698  0.0634 -0.0243
19776OCT     C239552   5.130  21.636  22.423 -0.1980  0.2703  0.2230
19777OCT     C139553  15.593  11.835   4.933  0.0613  0.0030  0.0604
19777OCT     C239554  15.859  11.506   5.103 -0.1386 -0.1670  0.0331
19778OCT     C139555   6.815  15.985  15.365  0.0964  0.2411  0.1606
19778OCT     C239556   6.760  16.265  15.751 -0.0127  0.3142  0.2535
19779OCT     C139557  13.568  11.869   6.620  0.1984  0.0246 -0.0228
19779OCT     C239558  13.311  11.478   6.543 -0.3040  0.2901 -0.1642
19780OCT     C139559  12.306  17.708  23.583  0.1872 -0.1152  0.2047
19780OCT     C239560  12.649  17.387  23.550 -0.1284 -0.0609  0.0960
19781OCT     C139561   0.346  23.386  13.436 -0.0093  0.2026  0.0760
19781OCT     C239562   0.655  23.403  13.102  0.2533 -0.1442 -0.1548
19782OCT     C139563  12.475  22.695  23.126  0.0043  0.0855 -0.0894
19782OCT     C239564  12.506  23.182  23.199  0.0302  0.2548  0.2278
19783OCT     C139565  19.074   6.364   2.191  0.1286 -0.0581 -0.0190
19783OCT     C239566  19.078   6.782   2.003  0.2661  0.0269 -0.0435
19784OCT     C139567  18.637   3.573  12.701 -0.2635  0.1880  0.4388
19784OCT     C239568  19.022   3.840  12.564  0.3142 -0.3686 -0.1521
19785OCT     C139569  16.233   5.776  14.131  0.5437  0.0955  0.3518
19785OCT     C239570  16.692   5.640  14.157  0.0976 -0.0508 -0.4293
19786OCT     C139571   1.942  10.928  23.371  0.3123 -0.3603 -0.2530
19786OCT     C239572   2.147  10.546  23.277  0.0700  0.1999 -0.1433
19787OCT     C139573   6.595   1.069   9.384  0.1236  0.2364 -0.0725
19787OCT     C239574   6.483   0.620   9.327 -0.1566  0.1541 -0.0915
19788OCT     C139575  19.020   4.752  18.175  0.1193  0.3422  0.2941
19788OCT     C239576  18.595   4.575  18.262  0.0367 -0.2446 -0.0973
19789OCT     C139577   9.148   2.978  22.458 -0.0403  0.5161 -0.3300
19789OCT     C239578   8.892   3.049  22.114  0.1389  0.1171 -0.2282
19790OCT     C139579   3.547   5.584   8.544  0.2406  0.1479  0.4556
19790OCT     C239580   3.580   5.510   9.016  0.0158  0.3409  0.0889
19791OCT     C139581  13.483  23.320  17.901  0.0787  0.0664 -0.4040
19791OCT     C239582  13.917  23.148  18.065  0.0051 -0.2523 -0.3506
19792OCT     C139583   7.425   7.885   9.057 -0.2182  0.0106 -0.0246
19792OCT     C239584   7.307   7.459   8.997 -0.0490 -0.0799  0.3667
19793OCT     C139585   0.567   3.822  19.449 -0.0075 -0.2897 -0.1440
19793OCT     C239586   0.615   4.227  19.197 -0.1461  0.1606  0.1669
19794OCT     C139587  23.287   6.060   7.802 -0.1231  0.2533  0.0036
19794OCT     C239588  23.075   5.894   8.166  0.0925  0.0093  0.0799
19795OCT     C139589   7.810  10.274  11.396 -0.0398 -0.0279 -0.0909
19795OCT     C239590   7.659   9.933  11.092 -0.0935  0.2445  0.1330
19796OCT     C139591  15.375  13.870  14.397 -0.1477  0.0022 -0.1284
19796OCT     C239592  15.836  13.985  14.278  0.2244  0.1370  0.0066
19797OCT     C139593  11.061  17.425   7.979  0.2791 -0.0331  0.0720
19797OCT     C239594  11.211  17.531   8.404  0.1420 -0.0499 -0.0411
19798OCT     C139595   0.540   9.610  10.648 -0.4249  0.1207 -0.4791
19798OCT     C239596   0.470   9.697  10.247  0.2469  0.2037 -0.4912
19799OCT     C139597   0.411  13.984  22.811 -0.2951 -0.4839 -0.0026
19799OCT     C239598   0.570  14.375  22.941  0.0442  0.1264  0.1534
19800OCT     C139599  21.559  20.534   8.169 -0.1067 -0.0346 -0.3320
19800OCT     C239600  21.904  20.433   7.862 -0.1720 -0.0367  0.0640
19801OCT     C139601  17.712  17.750  23.327 -0.0015  0.0768 -0.0932
19801OCT     C239602  18.074  17.993  23.485 -0.2101 -0.1062 -0.0616
19802OCT     C139603  23.097   7.055  17.448  0.1064  0.3692 -0.0532
19802OCT     C239604  22.622   7.267  17.383  0.3737 -0.3347  0.1375
19803OCT     C139605  12.967   1.443  22.853  0.1660 -0.1329 -0.3767
19803OCT     C239606  13.027   1.738  23.247  0.0074  0.4809  0.3779
19804OCT     C139607   3.113   3.170  18.533 -0.1442 -0.0898 -0.3279
19804OCT     C239608   3.540   3.049  18.532  0.3931 -0.0745 -0.0229
19805OCT     C139609   9.168   2.873   3.876  0.4711  0.0521  0.0122
19805OCT     C239610   8.857   3.092   3.610 -0.1624  0.2996 -0.1554
19806OCT     C139611  11.855  15.115  17.132  0.1233 -0.0298  0.3135
19806OCT     C239612  12.038  15.401  16.789  0.0150 -0.2951  0.1613
19807OCT     C139613  21.165   5.921  17.042 -0.1873 -0.1131 -0.0271
19807OCT     C239614  21.000   5.872  16.584  0.4463  0.1187  0.0964
19808OCT     C139615   6.206   5.990   9.286 -0.3004 -0.0982 -0.0290
19808OCT     C239616   5.815   5.725   9.258  0.2095  0.0321  0.3081
19809OCT     C139617  21.254   0.213  14.983 -0.0901  0.0933 -0.2489
19809OCT     C239618  20.930   0.225  14.627 -0.3045  0.2065  0.3892
19810OCT     C139619   4.747  15.574  16.314 -0.2196 -0.2137 -0.2207
19810OCT     C239620   4.477  15.289  16.618  0.4374  0.0085 -0.2090
19811OCT     C139621  13.562   0.119   6.205  0.0760 -0.3390 -0.1284
19811OCT     C239622  13.239  23.592   6.063 -0.0331 -0.5070 -0.0813
19812OCT     C139623   0.031  12.024   4.071  0.0489  0.3000  0.1129
19812OCT     C239624  23.545  12.300   3.826 -0.0859 -0.2296  0.2661
19813OCT     C139625   9.485   0.499  23.677  0.1779  0.0285  0.1414
19813OCT     C239626   9.248   0.360  23.342  0.0228  0.2516  0.2186
19814OCT     C139627  22.706  12.790  23.075 -0.1531 -0.0503 -0.3412
19814OCT     C239628  23.130  12.686  22.885 -0.0258 -0.1610 -0.1245
19815OCT     C139629   7.928  17.624  15.832 -0.2751 -0.1113  0.2641
19815OCT     C239630   7.943  17.404  16.278 -0.0177 -0.1313  0.1108
19816OCT     C139631   7.343   6.184   6.591  0.3952 -0.0608  0.1042
19816OCT     C239632   7.388   6.578   6.309  0.2889  0.1722  0.0102
19817OCT     C139633  21.159   4.602   7.428  0.0952 -0.1323  0.1702
19817OCT     C239634  20.785   4.359   7.209  0.0808  0.0947  0.3417
19818OCT     C139635  16.968   0.059  10.129 -0.2644  0.0843  0.0625
19818OCT     C239636  16.978  23.565   9.693 -0.2092  0.3577  0.3269
19819OCT     C139637  18.637   8.636  15.520 -0.0323 -0.0303  0.0487
19819OCT     C239638  18.787   8.927  15.164 -0.0555 -0.0228  0.0214
19820OCT     C139639  21.217   9.734  23.172 -0.3288 -0.3964  0.5371
19820OCT     C239640  21.072  10.072  22.928  0.3074  0.2751  0.0802
19821OCT     C139641  12.985   7.715  22.039  0.1222  0.1516 -0.0473
19821OCT     C239642  12.555   7.479  22.069  0.1897 -0.0492  0.1117
19822OCT     C139643   0.269   4.263  11.363 -0.4316  0.4545 -0.0573
19822OCT     C239644   0.114   4.327  11.820  0.1610 -0.1771  0.1577
19823OCT     C139645  21.852  22.037   7.123 -0.2690 -0.1128  0.0055
19823OCT     C239646  21.656  22.505   7.110  0.0217  0.1268 -0.1974
19824OCT     C139647  19.606   6.166   9.609  0.0826 -0.1008 -0.4707
19824OCT     C239648  20.017   6.096   9.654 -0.4514 -0.0922 -0.1180
19825OCT     C139649   9.300   8.790  19.821 -0.2055  0.0171  0.2713
19825OCT     C239650   9.083   8.606  19.416 -0.0939  0.3749  0.0704
19826OCT     C139651  16.652  14.020  16.756 -0.3932 -0.3172 -0.5176
19826OCT     C239652  16.273  13.758  16.914  0.0070 -0.3091 -0.1031
19827OCT     C139653   8.765  22.346  19.765 -0.1477 -0.1230  0.1456
19827OCT     C239654   9.058  21.972  19.591 -0.0883  0.0705 -0.0187
19828OCT     C139655   1.456  17.801   0.738  0.1815  0.0276 -0.5399
19828OCT     C239656   0.989  17.660   0.812 -0.0564  0.1382  0.2839
19829OCT     C139657   8.157  13.482  15.395  0.1127 -0.3037 -0.4364
19829OCT     C239658   8.610  13.434  15.294  0.2803  0.1824 -0.0448
19830OCT     C139659   1.700  16.083  21.272 -0.2220 -0.2505  0.0877
19830OCT     C239660   1.975  15.929  21.582 -0.3351 -0.3289  0.1592
19831OCT     C139661  11.670  13.035  17.996  0.0285  0.3262  0.0177
19831OCT     C239662  11.424  12.773  18.313 -0.1518  0.1148  0.0729
19832OCT     C139663  18.767  16.252  20.003  0.1106 -0.1314  0.0970
19832OCT     C239664  18.358  16.397  19.817 -0.0721  0.2222  0.1877
19833OCT     C139665  10.821   1.350  22.587 -0.0995 -0.2384  0.0286
19833OCT     C239666  10.407   1.502  22.625  0.1047  0.1782 -0.0353
19834OCT     C139667  13.655  21.155  11.036 -0.2416 -0.1048  0.0663
19834OCT     C239668  13.205  21.094  10.863  0.1100 -0.2238  0.0514
19835OCT     C139669  14.963  17.401  11.985 -0.0441  0.2560  0.4463
19835OCT     C239670  14.791  17.010  12.022  0.1361  0.1253 -0.2185
19836OCT     C139671   8.882  20.762  21.344  0.2170  0.1649 -0.2956
19836OCT     C239672   9.158  20.726  21.011 -0.0156 -0.1659  0.1669
19837OCT     C139673  10.359  12.062  19.512  0.0624  0.1138 -0.2574
19837OCT     C239674  10.183  12.128  19.943 -0.1690 -0.3096 -0.4205
19838OCT     C139675  22.385  13.006   2.236 -0.0076  0.0082 -0.1607
19838OCT     C239676  22.498  13.139   1.851  0.1127 -0.1667  0.1148
19839OCT     C139677  11.792   6.809  19.004  0.2693  0.0263 -0.0233
19839OCT     C239678  11.806   6.330  18.932 -0.4430  0.1756  0.1390
19840OCT     C139679  19.535   6.669   5.948 -0.4482 -0.2075 -0.0931
19840OCT     C239680  19.465   6.396   5.508 -0.1825  0.0612  0.0856
19841OCT     C139681  21.315  17.176   8.536  0.1375 -0.1746  0.0222
19841OCT     C239682  21.313  16.666   8.472 -0.2264  0.0198  0.4570
19842OCT     C139683  21.937   9.580  17.751  0.1671 -0.4142  0.2088
19842OCT     C239684  22.061   9.530  18.192 -0.1271 -0.2537 -0.5774
19843OCT     C139685   1.225  23.421   7.930  0.3832  0.2569  0.0255
19843OCT     C239686   1.498  23.105   7.868  0.3657  0.2892 -0.0349
19844OCT     C139687   1.961  11.912   4.790 -0.0741 -0.1841  0.1193
19844OCT     C239688   1.884  11.825   5.274 -0.1162  0.1959  0.2348
19845OCT     C139689  12.550   0.223   9.822 -0.0477  0.0347  0.0386
19845OCT     C239690  12.904   0.384   9.566 -0.1387 -0.0836 -0.0507
19846OCT     C139691  11.422  14.247  11.951 -0.3606  0.1485  0.3724
19846OCT     C239692  11.133  14.479  11.690  0.1753  0.0844  0.0611
19847OCT     C139693   8.446  14.070  11.798  0.2892  0.2825  0.2419
19847OCT     C239694   8.771  14.387  11.820 -0.3737 -0.2482  0.0347
19848OCT     C139695   9.944  21.779   8.555 -0.0054  0.1223  0.1811
19848OCT     C239696   9.601  21.471   8.415 -0.1055 -0.2040 -0.0509
19849OCT     C139697  12.469   5.497   1.239 -0.2563 -0.2598  0.1077
19849OCT     C239698  12.742   5.446   1.598 -0.0427 -0.1452  0.0173
19850OCT     C139699  14.873   5.649   7.079  0.6570 -0.3528  0.1473
19850OCT     C239700  14.546   5.980   7.310 -0.3415 -0.1753  0.0618
19851OCT     C139701  17.385   1.502  13.809 -0.1821 -0.1807  0.1402
19851OCT     C239702  17.589   1.070  13.813 -0.2164  0.0293 -0.0393
19852OCT     C139703  14.694   8.497  16.348  0.0062  0.1688 -0.2552
19852OCT     C239704  14.498   8.085  16.179 -0.1592 -0.0208  0.2625
19853OCT     C139705   7.670  22.074   7.227 -0.1322 -0.0348  0.0214
19853OCT     C239706   7.349  21.805   6.914  0.0788  0.1275 -0.1160
19854OCT     C139707  22.189  15.475  16.359  0.1169 -0.2940  0.1211
19854OCT     C239708  21.765  15.261  16.496 -0.1958 -0.0342  0.0148
19855OCT     C139709   8.510  19.622   9.025  0.3985 -0.1623  0.0741
19855OCT     C239710   8.038  19.461   9.011 -0.0084  0.0642 -0.3361
19856OCT     C139711   2.339   3.780  17.778 -0.0527 -0.2250 -0.0088
19856OCT     C239712   2.194   3.701  17.292 -0.0940 -0.0366 -0.1185
19857OCT     C139713   3.297   4.042  23.035 -0.2940 -0.0709  0.1884
19857OCT     C239714   3.576   4.078  23.436  0.0121  0.3113  0.1411
19858OCT     C139715   5.110   4.366   2.907  0.0659  0.0766 -0.3871
19858OCT     C239716   5.127   4.686   2.614 -0.3681 -0.0204 -0.1362
19859OCT     C139717  13.430  18.141   7.877  0.1440  0.0512  0.1076
19859OCT     C239718  13.082  17.842   7.709  0.0219  0.2800  0.0157
19860OCT     C139719   0.805  21.966  18.037  0.1724  0.2498 -0.1889
19860OCT     C239720   0.671  21.909  18.513 -0.0410  0.0937  0.0766
19861OCT     C139721  14.390  20.485  22.798  0.3889  0.1953  0.4460
19861OCT     C239722  14.391  20.113  22.495  0.0684  0.0308 -0.0183
19862OCT     C139723  15.167   5.413   4.370  0.0584 -0.1550 -0.2291
19862OCT     C239724  15.257   5.636   3.928 -0.1655 -0.0650  0.0791
19863OCT     C139725  17.156  17.288   9.865  0.1019  0.1863 -0.1338
19863OCT     C239726  16.818  17.221  10.180 -0.0352 -0.1908  0.0402
19864OCT     C139727   3.860  11.091  17.545 -0.0973 -0.2635  0.0410
19864OCT     C239728   3.504  11.384  17.589 -0.5129 -0.1639  0.3030
19865OCT     C139729  18.150  13.547   3.440 -0.0232 -0.2598 -0.1050
19865OCT     C239730  18.009  13.315   3.100  0.1863  0.1317  0.2516
19866OCT     C139731   1.524   4.846  18.748 -0.1243 -0.1451 -0.1147
19866OCT     C239732   1.159   4.847  18.467 -0.2613  0.0734 -0.1989
19867OCT     C139733  13.943  13.360   5.246 -0.1780  0.0515 -0.1386
19867OCT     C239734  13.766  13.764   5.374  0.2214  0.2952 -0.0293
19868OCT     C139735  22.190  16.653  21.833 -0.0478 -0.0894  0.3337
19868OCT     C239736  22.368  17.036  22.118 -0.0318  0.0225 -0.2421
19869OCT     C139737  17.915   2.514  10.611 -0.1002 -0.1214 -0.0603
19869OCT     C239738  18.279   2.415  10.321 -0.0439  0.1029 -0.3156
19870OCT     C139739  12.986  12.741   1.844 -0.4074 -0.0854 -0.0896
19870OCT     C239740  12.959  12.266   1.794 -0.1258  0.2045 -0.1277
19871OCT     C139741  23.022  18.405  18.111  0.0188  0.0300 -0.0046
19871OCT     C239742  23.026  18.614  18.501 -0.1162 -0.0175 -0.1879
19872OCT     C139743  12.281   7.575   2.499  0.1268 -0.0219  0.1530
19872OCT     C239744  12.115   7.145   2.718 -0.1462  0.6546 -0.0241
19873OCT     C139745   9.290  13.700   1.624  0.1946 -0.0776 -0.4014
19873OCT     C239746   9.661  13.489   1.369 -0.0408 -0.3165  0.1294
19874OCT     C139747  15.987  16.513  23.051 -0.1426  0.0593 -0.2516
19874OCT     C239748  15.908  16.140  22.746  0.1346  0.0370  0.2777
19875OCT     C139749   0.664   5.101  10.127  0.0842 -0.2805 -0.1634
19875OCT     C239750   0.273   5.306  10.316 -0.0907 -0.5289  0.2253
19876OCT     C139751  17.459  19.312  20.347  0.1121 -0.1827 -0.3336
19876OCT     C239752  17.917  19.233  20.321 -0.1406 -0.1694 -0.1996
19877OCT     C139753   6.160   0.239   7.262  0.0719  0.3265 -0.0351
19877OCT     C239754   6.043   0.659   7.394  0.1495  0.1879  0.1859
19878OCT     C139755   3.479   3.439   6.292 -0.1578  0.2365  0.2120
19878OCT     C239756   3.898   3.590   6.151 -0.1264 -0.0871 -0.0221
19879OCT     C139757  10.707  12.425   7.539 -0.1677  0.0536 -0.2717
19879OCT     C239758  10.682  12.848   7.407 -0.0968  0.2612  0.1947
19880OCT     C139759   8.385   5.997   8.424 -0.0900  0.3496  0.0758
19880OCT     C239760   8.732   6.021   8.167 -0.0684  0.0576 -0.2485
19881OCT     C139761   5.192  14.326   0.754 -0.0979  0.2993  0.0636
19881OCT     C239762   4.901  14.697   0.858 -0.0178 -0.0433  0.2517
19882OCT     C139763  12.210  23.233  16.258  0.2411  0.1107  0.0554
19882OCT     C239764  12.643  23.236  16.042  0.4915 -0.1551  0.0195
19883OCT     C139765  20.579  15.057  15.611  0.2577 -0.1081 -0.1005
19883OCT     C239766  20.649  14.677  15.844  0.3870  0.2361 -0.1075
19884OCT     C139767   9.701   7.892   5.693 -0.0823 -0.0519 -0.3090
19884OCT     C239768   9.870   8.283   5.634  0.1946 -0.4271 -0.0155
19885OCT     C139769  10.233   7.062  16.107  0.4034 -0.0811  0.0084
19885OCT     C239770  10.665   6.971  15.948 -0.0037 -0.3033  0.0998
19886OCT     C139771   4.966  16.357  18.252 -0.2894  0.0620  0.1599
19886OCT     C239772   4.943  16.011  18.566 -0.1101  0.1299 -0.3375
19887OCT     C139773  19.409  15.136   9.084 -0.1356  0.1552 -0.0669
19887OCT     C239774  19.735  14.832   8.819  0.1708  0.0611 -0.0669
19888OCT     C139775  18.525  22.928   8.247 -0.1845  0.1057 -0.0871
19888OCT     C239776  18.239  22.806   7.913 -0.1173 -0.1550 -0.2023
19889OCT     C139777   5.302   0.974  11.351 -0.1750  0.0414  0.2538
19889OCT     C239778   4.807   1.108  11.388 -0.1524 -0.1941 -0.0069
19890OCT     C139779  14.534   1.960   7.403 -0.1701  0.1516 -0.2379
19890OCT     C239780  14.747   1.991   6.984  0.3558  0.2148 -0.1736
19891OCT     C139781  11.832  16.121   4.588  0.2512  0.0155 -0.0133
19891OCT     C239782  11.926  16.420   5.003  0.1308 -0.2163  0.2461
19892OCT     C139783  11.546   1.695  18.084 -0.3044 -0.1454 -0.0283
19892OCT     C239784  11.062   1.550  18.075 -0.0190 -0.2043 -0.0301
19893OCT     C139785   4.496   5.830   0.788  0.1301 -0.3565 -0.1834
19893OCT     C239786   4.153   6.110   0.571 -0.3799  0.0773 -0.0304
19894OCT     C139787  18.059   7.026  18.381  0.0571  0.3435 -0.0798
19894OCT     C239788  18.481   7.136  18.524  0.0217 -0.0286  0.0799
19895OCT     C139789  13.098  21.581   4.708  0.0138 -0.0267  0.0785
19895OCT     C239790  13.327  21.603   4.267  0.1922 -0.1627 -0.1306
19896OCT     C139791  13.537   9.131  11.208 -0.0762  0.0108  0.1283
19896OCT     C239792  13.082   9.129  11.151 -0.3720 -0.3000  0.0675
19897OCT     C139793  17.784   0.695  19.722  0.3111  0.0912  0.3659
19897OCT     C239794  17.622   0.902  20.160 -0.2589  0.2086  0.0432
19898OCT     C139795  16.802  21.028   4.331  0.2146  0.1160  0.1362
19898OCT     C239796  16.929  20.584   4.303 -0.1087 -0.3885 -0.0028
19899OCT     C139797  10.098   3.581  11.546 -0.0706  0.0905 -0.1620
19899OCT     C239798   9.818   3.341  11.862 -0.1382  0.0737 -0.3582
19900OCT     C139799  16.043  18.815   1.783  0.4370  0.0388  0.1202
19900OCT     C239800  15.856  18.338   1.775  0.4340  0.1098 -0.2098
19901OCT     C139801  14.432  11.757   5.552  0.1665  0.2762 -0.3312
19901OCT     C239802  14.799  11.493   5.379  0.0177  0.2212  0.1103
19902OCT     C139803  15.506  22.997  17.492 -0.1552  0.0130  0.0629
19902OCT     C239804  15.256  22.618  17.649 -0.1416 -0.2433  0.1856
19903OCT     C139805   6.225  16.579  18.035  0.1297 -0.1068 -0.2915
19903OCT     C239806   6.334  16.766  17.628  0.1610 -0.0524 -0.1841
19904OCT     C139807  13.587  15.417  19.836  0.1319  0.1960  0.1295
19904OCT     C239808  13.388  15.396  19.449 -0.0424 -0.0186  0.1606
19905OCT     C139809   9.645   2.452  16.336  0.3288  0.2997 -0.2281
19905OCT     C239810   9.796   2.755  16.697  0.0494 -0.3004  0.2550
19906OCT     C139811  10.354   2.659  14.118 -0.0789  0.3023  0.2468
19906OCT     C239812   9.876   2.692  14.172  0.2958  0.1601  0.0991
19907OCT     C139813  10.746  12.111   6.301  0.1214 -0.1908  0.0147
19907OCT     C239814  10.328  12.077   6.133  0.1274 -0.2236  0.2387
19908OCT     C139815  17.078   1.395   3.022 -0.3068  0.1948 -0.3951
19908OCT     C239816  16.685   1.284   2.809 -0.1198  0.1829  0.1743
19909OCT     C139817   2.900   7.550  11.573 -0.2852 -0.1759  0.0711
19909OCT     C239818   3.318   7.307  11.687  0.0513  0.3803 -0.3253
19910OCT     C139819  18.384  21.044   9.040  0.2504 -0.0189  0.1772
19910OCT     C239820  18.707  21.405   9.153  0.0103 -0.2945  0.2228
19911OCT     C139821   0.813  20.694   2.925  0.3780 -0.0004  0.0173
19911OCT     C239822   0.333  20.675   2.824 -0.0115 -0.0423 -0.4712
19912OCT     C139823   0.336  10.065  20.649 -0.1242  0.2032  0.2566
19912OCT     C239824   0.032   9.990  20.352 -0.5892  0.2248  0.2536
19913OCT     C139825   6.187   8.773   4.867 -0.2535  0.0060 -0.1776
19913OCT     C239826   5.761   8.976   4.988  0.2433  0.0677  0.3422
19914OCT     C139827  11.112  12.377   2.467  0.1639 -0.0210  0.0019
19914OCT     C239828  11.294  12.263   2.068  0.0171  0.2328 -0.2717
19915OCT     C139829   4.685   9.496   2.249 -0.4019  0.1060 -0.3244
19915OCT     C239830   4.686   9.921   2.091  0.0416  0.0475 -0.0466
19916OCT     C139831   9.461   7.232   4.646 -0.0303  0.2527 -0.2511
19916OCT     C239832   9.603   7.148   5.036 -0.0722 -0.1785 -0.1358
19917OCT     C139833  17.691   8.747   4.850 -0.6906 -0.1677 -0.0378
19917OCT     C239834  17.577   8.612   4.447 -0.3425 -0.2428  0.0916
19918OCT     C139835  22.447   2.218   7.542  0.0524  0.1293  0.2915
19918OCT     C239836  22.579   2.685   7.420  0.2043  0.0368  0.1805
19919OCT     C139837  14.844  15.631   6.393 -0.1575 -0.0245 -0.1294
19919OCT     C239838  15.329  15.755   6.377  0.3276 -0.1156 -0.0650
19920OCT     C139839  19.693  21.148  20.313  0.0500 -0.3096 -0.1454
19920OCT     C239840  19.838  21.440  20.611  0.1652  0.0949 -0.1696
19921OCT     C139841   8.579  10.831  14.573  0.0094 -0.3061 -0.1806
19921OCT     C239842   8.136  10.797  14.514 -0.0733  0.1689 -0.1545
19922OCT     C139843  10.394   4.274   4.907  0.0866 -0.0628 -0.0788
19922OCT     C239844  10.512   3.971   4.584 -0.4329 -0.6902 -0.3122
19923OCT     C139845   4.802   4.989  12.095  0.1093  0.1115 -0.1546
19923OCT     C239846   4.656   5.444  12.099  0.1354 -0.0402  0.0625
19924OCT     C139847  10.384  12.640  10.081  0.0502 -0.1096  0.2567
19924OCT     C239848  10.620  13.100  10.040  0.0044 -0.0067 -0.0135
19925OCT     C139849   3.370  12.378  17.363  0.1342 -0.0704 -0.0064
19925OCT     C239850   3.715  12.480  17.692  0.2175 -0.1443 -0.1535
19926OCT     C139851  18.729   3.893   8.440  0.1972 -0.4426  0.3165
19926OCT     C239852  18.567   3.597   8.769  0.0608 -0.1710 -0.2891
19927OCT     C139853   5.239  22.400   8.587 -0.1044 -0.0280 -0.0251
19927OCT     C239854   5.138  22.864   8.462  0.2570 -0.1191 -0.2237
19928OCT     C139855   8.133   7.778   3.307  0.1489 -0.1168  0.0249
19928OCT     C239856   8.018   7.541   2.894  0.1038  0.4387 -0.1192
19929OCT     C139857   9.465  12.258  21.508  0.3719  0.1990 -0.4157
19929OCT     C239858   9.193  12.048  21.863 -0.3269  0.1002  0.0097
19930OCT     C139859  13.999  15.509   7.847  0.0254  0.0187  0.1951
19930OCT     C239860  13.519  15.574   7.835  0.2186 -0.1121  0.0410
19931OCT     C139861   3.370  10.838  18.342 -0.1864 -0.2290  0.1219
19931OCT     C239862   2.917  10.748  18.353 -0.1398  0.0079  0.0541
19932OCT     C139863  19.997  22.210  22.182 -0.0915 -0.3460  0.0467
19932OCT     C239864  20.354  21.987  22.016  0.2549 -0.2208 -0.1322
19933OCT     C139865  14.296  13.531  10.544  0.1186  0.0654 -0.5679
19933OCT     C239866  14.369  13.616  10.096 -0.1183 -0.0735  0.0328
19934OCT     C139867  15.505   5.073   7.353 -0.0975  0.3442 -0.0189
19934OCT     C239868  15.368   4.729   7.061  0.0361  0.0725 -0.3102
19935OCT     C139869   6.617  19.268  13.721  0.1179  0.2790 -0.2931
19935OCT     C239870   6.583  19.629  14.006  0.1294 -0.3010 -0.0237
19936OCT     C139871  23.228  21.529   6.990 -0.1765 -0.2321  0.0844
19936OCT     C239872  23.588  21.819   6.950 -0.1557 -0.0059  0.1905
19937OCT     C139873  16.392  17.002   8.628 -0.3649 -0.3496 -0.0037
19937OCT     C239874  16.811  16.886   8.421 -0.2906 -0.1310 -0.1626
19938OCT     C139875   6.055   1.501  11.376 -0.1661  0.0736  0.1427
19938OCT     C239876   5.856   1.106  11.631  0.0798  0.3071 -0.1276
19939OCT     C139877  18.095   1.629  22.315  0.0147  0.2337  0.0185
19939OCT     C239878  17.816   1.255  22.361 -0.3318  0.2267 -0.1722
19940OCT     C139879   6.462  10.125   4.020  0.0360 -0.2408  0.0576
19940OCT     C239880   6.656   9.741   3.839  0.0901 -0.3079 -0.2528
19941OCT     C139881   5.407  17.510   4.486 -0.5484 -0.0519 -0.1780
19941OCT     C239882   5.176  17.943   4.560  0.4545 -0.3453  0.1388
19942OCT     C139883  11.803  10.345  16.260 -0.0626  0.2566  0.0395
19942OCT     C239884  11.594   9.882  16.276 -0.1944 -0.0874 -0.3406
19943OCT     C139885  14.691  23.418  20.474  0.2878  0.5059  0.2237
19943OCT     C239886  14.930  23.667  20.155 -0.0493  0.0067  0.3932
19944OCT     C139887   6.320  18.152  10.032 -0.0654  0.1795 -0.0239
19944OCT     C239888   6.434  17.708  10.109  0.1676  0.2688 -0.0536
19945OCT     C139889   4.723  19.953  20.253  0.1913  0.1400  0.0383
19945OCT     C239890   5.022  19.610  20.313  0.2779  0.0972  0.1707
19946OCT     C139891   8.039   2.639   2.350  0.2348 -0.1380 -0.1621
19946OCT     C239892   8.479   2.835   2.319  0.3355  0.3258  0.0279
19947OCT     C139893   0.967   9.901   2.901 -0.0715  0.2746 -0.1562
19947OCT     C239894   0.809  10.164   3.248  0.1387 -0.2099  0.3973
19948OCT     C139895  15.870   3.430  18.461  0.6730  0.0910  0.0184
19948OCT     C239896  15.841   3.013  18.789  0.1149 -0.2545 -0.0768
19949OCT     C139897  23.407  22.163  16.930 -0.0835 -0.1532 -0.0014
19949OCT     C239898  23.730  21.870  16.862 -0.0497 -0.0580  0.3801
19950OCT     C139899  11.277  20.869   0.907  0.2398 -0.1260 -0.2230
19950OCT     C239900  11.181  21.329   0.833 -0.0602  0.0824 -0.0756
19951OCT     C139901   4.459   8.890   6.964  0.2513 -0.4810 -0.2328
19951OCT     C239902   4.363   8.509   6.704 -0.0599 -0.2910 -0.0470
19952OCT     C139903   9.544  12.907  11.483  0.0462  0.2152  0.1626
19952OCT     C239904   9.449  12.827  11.039 -0.1619  0.1024  0.2462
19953OCT     C139905   3.523  14.353  21.390  0.0831  0.2108 -0.7449
19953OCT     C239906   3.586  14.545  20.962  0.0411  0.0841 -0.2171
19954OCT     C139907  16.867  16.760  23.557 -0.1051  0.1837 -0.1343
19954OCT     C239908  16.925  16.300  23.475  0.3320  0.3489 -0.1676
19955OCT     C139909  16.106   8.128  14.352  0.1313  0.1901 -0.1601
19955OCT     C239910  15.700   8.119  14.124 -0.2008 -0.2615  0.0779
19956OCT     C139911   1.206   0.239  17.857  0.1272 -0.0282  0.1418
19956OCT     C239912   0.831   0.002  18.111 -0.2090  0.3019  0.1960
19957OCT     C139913  19.729   6.227   7.902 -0.3176 -0.4287  0.0856
19957OCT     C239914  19.672   6.546   8.188  0.2812  0.1576 -0.1756
19958OCT     C139915   8.490  17.005  15.170  0.1550 -0.1769  0.0426
19958OCT     C239916   8.896  16.807  15.163  0.1563  0.1025 -0.0507
19959OCT     C139917   5.608  19.378   2.330  0.3861  0.0177 -0.0175
19959OCT     C239918   5.829  19.748   2.141  0.2630  0.1203 -0.0818
19960OCT     C139919  17.398   6.572  18.403 -0.1968 -0.4672 -0.3608
19960OCT     C239920  17.348   6.146  18.258  0.0597  0.0720 -0.1216
19961OCT     C139921   9.506  14.278  16.302 -0.2772 -0.1555  0.6039
19961OCT     C239922   9.066  14.260  16.029 -0.1709 -0.0940 -0.1146
19962OCT     C139923  12.675   5.664  15.086 -0.1284 -0.1819 -0.3057
19962OCT     C239924  12.511   5.411  14.747 -0.1667 -0.2390 -0.0721
19963OCT     C139925  10.732  15.024  23.259 -0.1073  0.1931 -0.0231
19963OCT     C239926  10.959  15.456  23.178 -0.0091  0.1267 -0.3782
19964OCT     C139927   7.340  16.488  14.242 -0.1571 -0.1868 -0.0534
19964OCT     C239928   7.205  16.276  14.642 -0.0504  0.2230  0.3405
19965OCT     C139929  12.758  12.926   2.221 -0.0556  0.1129  0.1086
19965OCT     C239930  12.637  12.483   2.184 -0.0735 -0.0439  0.2268
19966OCT     C139931  20.724   8.761  23.444  0.5810 -0.0992 -0.2993
19966OCT     C239932  20.525   9.184  23.517  0.0644 -0.2085 -0.0285
19967OCT     C139933   2.607  17.504  15.061 -0.0238 -0.1726 -0.1931
19967OCT     C239934   2.304  17.357  15.377 -0.2096 -0.1275 -0.3105
19968OCT     C139935   3.245   1.902   8.459  0.0296  0.2734  0.2272
19968OCT     C239936   3.121   1.799   8.903 -0.1115  0.0419  0.0518
19969OCT     C139937  16.261  13.668   8.036  0.1043  0.1648  0.0114
19969OCT     C239938  16.568  13.393   7.794 -0.3375  0.2942  0.3112
19970OCT     C139939  15.706  12.476   6.426  0.2451  0.2301 -0.1878
19970OCT     C239940  15.892  12.256   6.091 -0.3262 -0.1303  0.3590
19971OCT     C139941  16.498  16.273  19.812  0.0561 -0.0519  0.1130
19971OCT     C239942  16.197  16.293  19.475 -0.0948 -0.1360  0.3602
19972OCT     C139943  17.039  20.111   5.317 -0.3574 -0.2475 -0.3431
19972OCT     C239944  17.376  19.963   5.033 -0.2719 -0.1681 -0.2236
19973OCT     C139945  16.321  20.509   6.469 -0.0476  0.3262  0.1677
19973OCT     C239946  16.663  20.769   6.218 -0.0588  0.0118  0.3324
19974OCT     C139947  12.753   9.500   7.561  0.0245  0.0074 -0.4893
19974OCT     C239948  12.419   9.798   7.651 -0.2580 -0.0951 -0.0369
19975OCT     C139949  21.326  14.522   5.215  0.0450 -0.0693  0.0932
19975OCT     C239950  21.394  14.977   5.217  0.1018 -0.1284 -0.1810
19976OCT     C139951   6.711  14.621  21.696  0.3544  0.0239  0.2060
19976OCT     C239952   6.607  15.053  21.548 -0.1954  0.0223  0.0331
19977OCT     C139953  20.575  20.710   7.018  0.2713 -0.3331 -0.1348
19977OCT     C239954  20.959  20.669   7.347 -0.0184  0.1410 -0.3748
19978OCT     C139955  21.474  20.098  13.366  0.1055  0.0573  0.1772
19978OCT     C239956  21.608  19.787  13.666 -0.0733 -0.1243 -0.0699
19979OCT     C139957  14.955  14.436   3.310  0.2144 -0.3893 -0.0076
19979OCT     C239958  15.055  14.461   2.835  0.2584  0.1746 -0.0861
19980OCT     C139959  15.438  19.806   5.170  0.1899  0.2057 -0.1862
19980OCT     C239960  15.309  19.381   5.069  0.3802  0.2136  0.1887
19981OCT     C139961   5.692  19.319  16.170  0.3191 -0.1243  0.2059
19981OCT     C239962   5.601  19.094  16.561  0.0370  0.0514 -0.1575
19982OCT     C139963   0.749  22.037   6.939  0.0372  0.2093 -0.0114
19982OCT     C239964   0.994  21.614   6.903  0.5021 -0.1321  0.0893
19983OCT     C139965  15.830  23.231  18.714  0.2733 -0.3115  0.0671
19983OCT     C239966  16.288  23.319  18.675  0.2172  0.1152  0.2260
19984OCT     C139967  20.314  19.382  17.018 -0.1342  0.1509 -0.0275
19984OCT     C239968  20.382  19.656  17.416  0.2179 -0.2616 -0.1569
19985OCT     C139969  17.175   3.834  22.870 -0.0838 -0.0432 -0.3774
19985OCT     C239970  16.786   3.665  22.886  0.3593  0.2803  0.1599
19986OCT     C139971  10.325   2.928  17.335  0.0676 -0.2608 -0.0895
19986OCT     C239972   9.903   3.054  17.121  0.1941  0.0363 -0.1438
19987OCT     C139973  20.714  19.445  13.317  0.1434  0.0041 -0.1899
19987OCT     C239974  20.535  19.437  12.869 -0.1604 -0.1898 -0.3676
19988OCT     C139975  15.996  23.472  13.074 -0.1790  0.0350  0.2281
19988OCT     C239976  16.042  23.243  13.489  0.0628 -0.2197  0.1185
19989OCT     C139977  22.673  23.253   9.273 -0.2602  0.0598 -0.2219
19989OCT     C239978  22.279  22.964   9.361 -0.0208  0.1443 -0.1813
19990OCT     C139979  16.149   9.629  18.445  0.0233 -0.0435  0.2715
19990OCT     C239980  15.877   9.808  18.095  0.1235  0.0724  0.2609
19991OCT     C139981   0.728  19.536   1.859  0.3441 -0.0354 -0.1276
19991OCT     C239982   0.329  19.462   2.091 -0.1086 -0.4010 -0.1045
19992OCT     C139983   7.816  19.484  16.993 -0.1003  0.6380 -0.0505
19992OCT     C239984   7.381  19.340  16.939 -0.0530  0.0789  0.0698
19993OCT     C139985  17.077   1.946   9.683  0.1180 -0.3352  0.0701
19993OCT     C239986  17.379   2.105   9.376  0.2548 -0.0260 -0.0058
19994OCT     C139987   7.841   2.673   4.585 -0.2198 -0.0391  0.1053
19994OCT     C239988   7.716   2.854   4.135  0.0111  0.0556  0.1187
19995OCT     C139989  12.576   7.449   0.474 -0.0141  0.0324  0.0369
19995OCT     C239990  12.485   6.995   0.489  0.6393  0.2535  0.2953
19996OCT     C139991  17.657  22.773  11.659  0.0573  0.0865  0.1436
19996OCT     C239992  17.906  23.077  11.432 -0.0471 -0.2189  0.0647
19997OCT     C139993   2.183  15.284   3.613 -0.1018 -0.3202 -0.0146
19997OCT     C239994   1.949  14.840   3.727  0.0910 -0.0804  0.4574
19998OCT     C139995  18.162   4.957   1.556 -0.1471 -0.2677 -0.5397
19998OCT     C239996  18.263   5.408   1.430  0.1647 -0.0869 -0.3332
19999OCT     C139997  14.713   0.014   7.723 -0.0124 -0.0169 -0.2047
19999OCT     C239998  14.458  23.473   8.037 -0.0543  0.0113 -0.0400
20000OCT     C139999  13.066  19.924  14.060  0.1046 -0.0926 -0.4742
20000OCT     C240000  12.803  19.920  14.420 -0.0101  0.0978 -0.1916
20001OCT     C140001  16.408  13.715  17.553 -0.0261  0.0134  0.3083
20001OCT     C240002  16.800  13.804  17.729 -0.0921  0.2115  0.2609
20002OCT     C140003   4.936  22.407   9.107  0.2651 -0.0152 -0.1759
20002OCT     C240004   4.787  22.014   8.748 -0.3020 -0.0843  0.2920
20003OCT     C140005   6.895  18.872  19.151 -0.2079  0.1612 -0.1060
20003OCT     C240006   6.638  19.006  19.550  0.1372 -0.0457  0.0073
20004OCT     C140007  12.551  10.397   7.407  0.1909 -0.0013  0.1866
20004OCT     C240008  12.487  10.817   7.133  0.0212  0.0801 -0.1272
20005OCT     C140009  19.939  23.693   7.978 -0.1737  0.3990 -0.0416
20005OCT     C240010  19.624  23.431   8.162  0.0202  0.3254 -0.2902
20006OCT     C140011  15.538   6.006   6.787  0.0492 -0.1571 -0.3849
20006OCT     C240012  15.288   5.936   7.206  0.0764  0.1160  0.1964
20007OCT     C140013  17.434   7.397  10.224  0.1164  0.0703 -0.3445
20007OCT     C240014  17.402   7.691   9.822  0.0396  0.1106 -0.0433
20008OCT     C140015   8.055   4.788  23.509  0.2680 -0.1043  0.2512
20008OCT     C240016   8.534   4.727  23.623 -0.0907  0.1339 -0.4417
20009OCT     C140017  22.967   2.080  18.558 -0.1467 -0.0664 -0.5122
20009OCT     C240018  23.126   1.897  18.128  0.3491 -0.2763 -0.3586
20010OCT     C140019  22.090  10.383  17.690  0.3037 -0.1729 -0.2739
20010OCT     C240020  22.163  10.859  17.792  0.0559 -0.0210  0.0250
20011OCT     C140021  22.413   1.934   7.933  0.2455  0.2242 -0.2101
20011OCT     C240022  22.230   2.360   7.968 -0.3741  0.0880  0.2641
20012OCT     C140023  13.935   8.508   5.099  0.1378 -0.1141 -0.0249
20012OCT     C240024  13.729   8.108   5.220 -0.2009  0.0109  0.0527
20013OCT     C140025  14.996  12.819   9.218  0.1647 -0.0902 -0.0430
20013OCT     C240026  15.234  12.433   9.299  0.0404 -0.0916  0.1397
20014OCT     C140027   6.903  19.634  16.241 -0.0472 -0.0046 -0.2137
20014OCT     C240028   7.377  19.550  16.227 -0.0754  0.1629 -0.2711
20015OCT     C140029   9.120   5.077  10.658  0.0433 -0.0535  0.1720
20015OCT     C240030   8.918   4.699  10.870  0.3245  0.1838 -0.0810
20016OCT     C140031   0.944  13.339   3.819 -0.0538  0.4511  0.1113
20016OCT     C240032   1.306  13.598   3.918  0.0549 -0.3287  0.1939
20017OCT     C140033   0.724   8.589  13.828 -0.1587 -0.0943  0.3068
20017OCT     C240034   0.641   8.121  13.766 -0.1308 -0.0595 -0.2087
20018OCT     C140035   2.712  19.604  23.038  0.1601  0.3073 -0.4495
20018OCT     C240036   2.417  19.959  23.188 -0.4454  0.2582  0.3782
20019OCT     C140037   6.826  20.932  15.482  0.1903 -0.2015  0.1855
20019OCT     C240038   6.659  20.876  15.897  0.1773 -0.2678 -0.3866
20020OCT     C140039   2.459   4.470   1.493  0.1536  0.1935  0.3280
20020OCT     C240040   2.064   4.688   1.383  0.1083 -0.2883 -0.1939
20021OCT     C140041  18.838  15.414  13.999  0.0194  0.1243  0.3251
20021OCT     C240042  19.202  15.525  14.228  0.0056  0.2805 -0.0067
20022OCT     C140043  17.163  21.909   0.938 -0.3003 -0.2985 -0.1088
20022OCT     C240044  17.193  22.075   1.340  0.1145 -0.6427  0.0000
20023OCT     C140045   9.697  12.148  10.104  0.1996  0.0337 -0.2721
20023OCT     C240046   9.414  12.189   9.736  0.1349 -0.1729  0.0277
20024OCT     C140047  21.884  11.895   3.391  0.3229  0.0436 -0.5418
20024OCT     C240048  21.618  12.216   3.131  0.2149  0.2453 -0.4881
20025OCT     C140049  12.340  17.881   8.390 -0.1518  0.3101  0.1863
20025OCT     C240050  12.136  18.293   8.377  0.2794 -0.1797  0.1778
20026OCT     C140051   6.853   7.830   0.274 -0.0439  0.1862 -0.0901
20026OCT     C240052   6.837   7.442   0.393 -0.1411 -0.0772  0.2764
20027OCT     C140053   9.069   6.858  15.418 -0.2193 -0.4189  0.2581
20027OCT     C240054   8.930   7.205  15.105  0.1218  0.1227 -0.2986
20028OCT     C140055   9.098  14.418  19.889 -0.2961 -0.1055  0.0706
20028OCT     C240056   9.193  13.944  19.879  0.0496  0.1295  0.0435
20029OCT     C140057  21.110  10.686  10.227  0.2809 -0.4172  0.1145
20029OCT     C240058  21.500  10.538  10.342 -0.0795 -0.1871  0.1506
20030OCT     C140059   6.109  10.918   1.960  0.1972  0.2017  0.1135
20030OCT     C240060   6.229  10.775   2.363  0.1483  0.3598 -0.4200
20031OCT     C140061   8.425  14.514  16.631 -0.1951 -0.0129  0.3318
20031OCT     C240062   8.584  14.339  16.199 -0.0132  0.3099 -0.2015
20032OCT     C140063   7.517   5.612  16.490  0.1272  0.3987 -0.0188
20032OCT     C240064   7.758   6.044  16.416 -0.3867 -0.1740 -0.1155
20033OCT     C140065  16.474   1.877  21.486  0.2777 -0.0238  0.3372
20033OCT     C240066  16.101   1.639  21.631  0.0358  0.1731 -0.0482
20034OCT     C140067   7.210  17.814   7.121  0.1281 -0.0768 -0.0952
20034OCT     C240068   7.094  18.129   7.454  0.2963  0.4977  0.0891
20035OCT     C140069  14.700  22.295  13.441 -0.2271  0.1039 -0.1171
20035OCT     C240070  14.676  22.793  13.407  0.0928  0.2509  0.2080
20036OCT     C140071  20.097  13.394   8.805 -0.0010 -0.1308  0.0080
20036OCT     C240072  20.474  13.385   9.077  0.0450 -0.1266  0.1150
20037OCT     C140073  14.384  22.531   0.750 -0.0304 -0.2485  0.3639
20037OCT     C240074  14.554  22.752   0.396  0.4384 -0.3219 -0.0221
20038OCT     C140075   3.880  11.195  16.146 -0.2139 -0.2199  0.2460
20038OCT     C240076   4.293  11.385  16.090 -0.0791  0.2092 -0.1956
20039OCT     C140077   3.847  12.110  13.556 -0.0137 -0.0807 -0.5369
20039OCT     C240078   4.104  11.851  13.816 -0.2066  0.0981  0.1700
20040OCT     C140079  23.582   6.763   7.932 -0.0781 -0.5243  0.4017
20040OCT     C240080   0.244   7.009   7.707  0.1727  0.0420  0.2119
20041OCT     C140081  17.946  21.038   8.182 -0.2728  0.1023  0.3229
20041OCT     C240082  18.172  21.043   8.611 -0.1463  0.4442  0.0408
20042OCT     C140083  22.594   4.169  11.219 -0.0549  0.0180 -0.2295
20042OCT     C240084  22.585   3.961  10.818  0.0088 -0.2101  0.1866
20043OCT     C140085  17.648   3.202  18.850  0.1290 -0.0810 -0.2757
20043OCT     C240086  17.967   3.542  18.893 -0.1988 -0.0101 -0.1010
20044OCT     C140087   8.742  23.372  14.802 -0.2815  0.2210 -0.0769
20044OCT     C240088   8.472  23.573  15.127 -0.1546  0.2889 -0.0052
20045OCT     C140089  12.427  16.111   3.379  0.0502  0.2611 -0.2919
20045OCT     C240090  12.248  16.512   3.379  0.0057  0.2271 -0.1090
20046OCT     C140091   0.030   3.810   7.941 -0.0007 -0.0736  0.3245
20046OCT     C240092   0.074   3.905   8.423 -0.2404 -0.0155 -0.2777
20047OCT     C140093  17.463   5.136   9.830  0.2191 -0.0096  0.1409
20047OCT     C240094  17.316   5.174  10.240 -0.2648 -0.2535 -0.2203
20048OCT     C140095  17.585   3.506  13.094  0.0306  0.2006  0.5752
20048OCT     C240096  17.236   3.668  12.856  0.0652  0.3339 -0.0042
20049OCT     C140097  16.597   6.848  12.761 -0.1467  0.2214  0.2127
20049OCT     C240098  16.243   6.503  12.810 -0.2976  0.0200 -0.0203
20050OCT     C140099   9.980  14.923  15.887  0.1728  0.2491  0.1212
20050OCT     C240100  10.407  14.998  15.982  0.0959  0.0845  0.1646
20051OCT     C140101  16.666   8.399  14.381  0.1160  0.1652  0.2047
20051OCT     C240102  17.035   8.545  14.223  0.1773 -0.2153 -0.1645
20052OCT     C140103  14.524  16.710  20.081 -0.0359 -0.1745 -0.2010
20052OCT     C240104  14.380  16.370  19.882  0.3520 -0.0107  0.0233
20053OCT     C140105  15.601  17.237   6.653  0.3898  0.2192 -0.3366
20053OCT     C240106  15.397  17.012   7.042 -0.0016  0.2771  0.2402
20054OCT     C140107  14.535  17.760  14.495 -0.1019 -0.0660  0.0150
20054OCT     C240108  14.448  18.215  14.615 -0.3810 -0.1820  0.2367
20055OCT     C140109  15.772   6.404   2.096  0.0700 -0.1712 -0.0793
20055OCT     C240110  15.403   6.379   2.260  0.0172 -0.1875  0.1493
20056OCT     C140111   6.065  21.033   7.435 -0.0892  0.1685 -0.1878
20056OCT     C240112   6.018  20.983   7.902 -0.1967  0.0685  0.0338
20057OCT     C140113  13.280  13.776   1.532 -0.0899  0.0207  0.2003
20057OCT     C240114  13.558  14.172   1.629 -0.1211  0.0966 -0.0669
20058OCT     C140115   1.791  13.754  22.938  0.1876  0.2465 -0.2931
20058OCT     C240116   2.039  13.448  22.670 -0.0012  0.2295 -0.1173
20059OCT     C140117   7.654   0.782  20.042 -0.1044  0.1559  0.2731
20059OCT     C240118   7.829   0.410  20.268  0.0474 -0.0063 -0.1010
20060OCT     C140119  13.756   2.797   9.463 -0.1387 -0.0437  0.1584
20060OCT     C240120  13.785   3.127   9.107  0.1562 -0.2070  0.0139
20061OCT     C140121  15.097   1.923  20.398 -0.0899  0.2475  0.0577
20061OCT     C240122  15.368   1.921  20.715 -0.1146 -0.0070  0.4220
20062OCT     C140123  18.063  20.216  11.682  0.0772 -0.1592 -0.0317
20062OCT     C240124  17.900  19.903  11.397 -0.1893 -0.0512  0.2474
20063OCT     C140125  16.586   0.331  15.421  0.2795 -0.1313 -0.1525
20063OCT     C240126  16.267   0.055  15.518 -0.1078 -0.0465 -0.1253
20064OCT     C140127  17.955  18.530  12.538  0.1399 -0.1048 -0.2676
20064OCT     C240128  18.141  18.763  12.922  0.2190  0.0654  0.2956
20065OCT     C140129   7.051  13.881   0.900  0.0549  0.0389 -0.1221
20065OCT     C240130   6.788  14.126   1.115  0.0477  0.0600 -0.1724
20066OCT     C140131   4.584   5.528  13.002 -0.1546  0.0060  0.1231
20066OCT     C240132   4.564   5.918  12.797  0.2210 -0.2429  0.1720
20067OCT     C140133  18.167  11.722  10.050 -0.1487 -0.1990  0.1110
20067OCT     C240134  18.377  11.627  10.464 -0.4829  0.4278  0.1362
20068OCT     C140135   5.472  10.156  23.361  0.1474  0.1665  0.0497
20068OCT     C240136   5.863  10.373  23.357  0.1435  0.0637 -0.1170
20069OCT     C140137   0.041  17.036   2.550 -0.3387 -0.1071 -0.0698
20069OCT     C240138   0.366  17.340   2.411  0.4770  0.0105  0.0675
20070OCT     C140139  14.933  14.112  17.822 -0.1410 -0.0601 -0.0117
20070OCT     C240140  14.905  13.869  17.456  0.1334  0.1904  0.1508
20071OCT     C140141  13.066  22.597   8.809  0.1102 -0.0922  0.1601
20071OCT     C240142  13.057  22.897   8.456 -0.6238 -0.0474  0.0781
20072OCT     C140143  19.034  13.007  23.214 -0.2050  0.0045 -0.4239
20072OCT     C240144  19.235  12.957  23.691 -0.0342 -0.0546  0.2943
20073OCT     C140145   3.234  16.022   3.139  0.1335  0.2733 -0.0300
20073OCT     C240146   3.403  16.403   3.217 -0.0407 -0.2987 -0.1063
20074OCT     C140147  21.211  12.332   0.339 -0.0353  0.1621 -0.0991
20074OCT     C240148  21.077  11.891   0.492  0.0680 -0.0360 -0.0842
20075OCT     C140149  14.739   3.767  19.048 -0.0393  0.0673  0.2279
20075OCT     C240150  14.296   4.009  18.996  0.1563  0.1563 -0.2830
20076OCT     C140151   5.050  20.734   1.555 -0.3965  0.0486 -0.3571
20076OCT     C240152   4.999  20.268   1.563  0.0252 -0.1933  0.0223
20077OCT     C140153  11.220   7.883  11.606 -0.3030  0.4376 -0.1307
20077OCT     C240154  11.073   8.209  11.909 -0.1724 -0.0540 -0.2685
20078OCT     C140155   4.481  21.874   4.462 -0.2037  0.0968 -0.0082
20078OCT     C240156   4.396  21.533   4.836  0.1439 -0.3593 -0.0896
20079OCT     C140157  23.615   4.365  16.053  0.0141 -0.3620  0.1279
20079OCT     C240158  23.279   4.687  16.017  0.0063 -0.2329  0.1657
20080OCT     C140159   0.037  23.523   4.147 -0.1022 -0.1814 -0.2338
20080OCT     C240160   0.098   0.197   4.284 -0.3567  0.2108 -0.0884
20081OCT     C140161   5.965   0.422  13.074  0.0264 -0.5351  0.0187
20081OCT     C240162   6.256   0.057  13.237  0.3091 -0.1535 -0.3464
20082OCT     C140163   9.586   5.804   7.050  0.0563  0.1226  0.1349
20082OCT     C240164   9.205   5.963   6.843  0.1039 -0.4473  0.0933
20083OCT     C140165   5.558  11.236   9.844 -0.0529 -0.0109  0.0929
20083OCT     C240166   5.446  10.995   9.486  0.2237  0.2929  0.3791
20084OCT     C140167  21.922  21.591  15.746 -0.3563  0.1888 -0.2504
20084OCT     C240168  21.924  21.307  15.432  0.1322 -0.2117 -0.4302
20085OCT     C140169   6.386  13.894  20.432  0.0326  0.2015  0.0972
20085OCT     C240170   6.489  13.439  20.586  0.1270 -0.1029  0.0030
20086OCT     C140171  19.182   6.816  12.095  0.1361  0.1649  0.5470
20086OCT     C240172  18.805   6.768  12.300 -0.2458  0.4533  0.1797
20087OCT     C140173  10.930  13.100   2.546  0.0665 -0.4664  0.4568
20087OCT     C240174  11.259  12.883   2.740 -0.2023 -0.1490  0.1707
20088OCT     C140175   9.164   2.798   0.462  0.2534  0.1467  0.1755
20088OCT     C240176   8.748   2.569   0.344 -0.1837 -0.0768 -0.0189
20089OCT     C140177  20.213   8.921  10.523  0.2371  0.1373  0.2669
20089OCT     C240178  20.486   9.095  10.825 -0.1898 -0.0273  0.0621
20090OCT     C140179  17.676   2.405  15.648 -0.0606  0.0081  0.1390
20090OCT     C240180  17.351   2.670  15.774 -0.0911  0.2210  0.0803
20091OCT     C140181   5.791   1.667  19.272  0.3269 -0.2768 -0.1533
20091OCT     C240182   5.434   1.294  19.234 -0.0885  0.0131 -0.5181
20092OCT     C140183  12.179  20.279   7.231  0.0752 -0.1461  0.1710
20092OCT     C240184  12.409  20.186   7.594  0.4623 -0.1368 -0.4185
20093OCT     C140185   8.905  10.613   5.803 -0.2697 -0.2100 -0.2150
20093OCT     C240186   9.042  10.272   5.517 -0.2130 -0.0043 -0.1533
20094OCT     C140187  21.239  16.531  16.781 -0.2505  0.1952 -0.0224
20094OCT     C240188  20.980  16.611  16.390 -0.3274 -0.0614 -0.4394
20095OCT     C140189  19.593  18.250   0.982  0.0947  0.0738 -0.3196
20095OCT     C240190  19.746  17.877   0.680  0.3189 -0.3367 -0.1034
20096OCT     C140191   7.924  14.258  21.728 -0.0371 -0.1015 -0.0488
20096OCT     C240192   7.985  14.195  21.239  0.0979 -0.2039 -0.1227
20097OCT     C140193  12.158  20.589  14.892  0.0390  0.1160  0.2065
20097OCT     C240194  12.085  20.126  14.954  0.1714 -0.2022  0.0504
20098OCT     C140195  16.988  21.422  23.212 -0.1834 -0.1321  0.1183
20098OCT     C240196  17.007  21.018  23.418  0.1337 -0.5203 -0.2081
20099OCT     C140197  13.269   9.470   6.131  0.0614  0.0442  0.1592
20099OCT     C240198  13.307   9.326   6.645  0.0689 -0.0885  0.1328
20100OCT     C140199   0.325  23.355   5.173 -0.1959 -0.3042  0.1662
20100OCT     C240200  23.714  23.573   5.154 -0.0069 -0.0814  0.1338
20101OCT     C140201   4.142  12.045   8.254  0.6823 -0.1111  0.0607
20101OCT     C240202   3.756  12.187   8.043  0.1551  0.0409 -0.0144
20102OCT     C140203   8.718   7.280  12.137 -0.0798 -0.4742 -0.1804
20102OCT     C240204   8.615   7.189  11.685 -0.0935  0.0612 -0.1260
20103OCT     C140205   0.080  13.883  14.580 -0.3378  0.4343 -0.0194
20103OCT     C240206  23.376  13.755  14.517  0.4165  0.4718 -0.0962
20104OCT     C140207  13.035  20.182  19.517  0.0976 -0.2542 -0.1302
20104OCT     C240208  13.179  20.466  19.853 -0.2980  0.1729  0.4123
20105OCT     C140209   7.581  13.951  13.481 -0.0758  0.1645  0.0091
20105OCT     C240210   7.796  13.569  13.528 -0.3606 -0.1344  0.2725
20106OCT     C140211  20.893   6.124  15.370  0.1911  0.5411  0.0541
20106OCT     C240212  20.850   5.884  15.770 -0.2383 -0.0439  0.1548
20107OCT     C140213   5.648  22.015   8.292 -0.0873 -0.1973  0.0746
20107OCT     C240214   5.363  22.033   7.891 -0.2727  0.1444  0.1403
20108OCT     C140215  10.119   7.376  11.558 -0.0649  0.2370  0.3907
20108OCT     C240216   9.745   7.588  11.477  0.2726 -0.0068  0.4125
20109OCT     C140217  22.269   5.472   1.892  0.2574 -0.3043  0.1711
20109OCT     C240218  22.356   5.921   1.825 -0.1708  0.0043 -0.3135
20110OCT     C140219  18.295   5.906   1.334 -0.0655  0.1122 -0.0815
20110OCT     C240220  17.893   5.760   1.401  0.3766  0.4550  0.3502
20111OCT     C140221  15.636   7.062  12.674 -0.0459 -0.0086  0.1109
20111OCT     C240222  15.714   6.573  12.621  0.1132  0.1206  0.1151
20112OCT     C140223   1.415  20.679  22.381  0.0198  0.0343  0.0461
20112OCT     C240224   1.221  21.130  22.374  0.0327  0.0169  0.3223
20113OCT     C140225   0.932   9.516   2.301 -0.2432 -0.2915  0.0076
20113OCT     C240226   1.273   9.237   2.370  0.3822 -0.1475 -0.0243
20114OCT     C140227   7.629  12.837  10.609  0.1160 -0.0213  0.0387
20114OCT     C240228   7.433  13.206  10.399  0.1450 -0.1014 -0.2794
20115OCT     C140229   0.160   9.763  23.164  0.1365  0.2767  0.3071
20115OCT     C240230   0.070   9.604  23.577 -0.0643  0.2007  0.1054
20116OCT     C140231  18.404   5.768  21.179  0.2050 -0.4629 -0.0409
20116OCT     C240232  18.231   5.294  21.175  0.3492  0.2290 -0.0248
20117OCT     C140233  10.435  20.811  22.292  0.2398  0.0463 -0.2149
20117OCT     C240234  10.009  20.678  22.236  0.0015 -0.2342 -0.1726
20118OCT     C140235  22.113   1.155  12.039  0.2707  0.2411 -0.0255
20118OCT     C240236  22.046   1.107  11.565  0.1120 -0.2350 -0.1958
20119OCT     C140237  22.972  21.107   9.930 -0.0366 -0.3425 -0.0584
20119OCT     C240238  23.322  21.050   9.596 -0.1040  0.1792  0.2763
20120OCT     C140239   3.153   2.036  10.419 -0.1984  0.1724 -0.2163
20120OCT     C240240   3.390   2.401  10.272 -0.0294  0.1720 -0.1263
20121OCT     C140241  21.655   2.378  15.816  0.0496 -0.0296 -0.0396
20121OCT     C240242  21.490   1.947  15.759 -0.0356  0.0759 -0.0602
20122OCT     C140243   0.653  13.350  11.825 -0.0505 -0.3223 -0.0531
20122OCT     C240244   0.299  13.161  12.019 -0.0511 -0.3736  0.0782
20123OCT     C140245   8.754   3.488   1.621  0.0380  0.0047  0.1156
20123OCT     C240246   9.084   3.121   1.728 -0.0607 -0.1445  0.1378
20124OCT     C140247  17.333   1.673   1.169 -0.2273  0.1567  0.1532
20124OCT     C240248  16.891   1.643   1.030 -0.1723 -0.0085 -0.1014
20125OCT     C140249  11.031  19.622   7.845  0.0046  0.2941 -0.2206
20125OCT     C240250  10.849  19.978   8.067  0.1310  0.1883 -0.0861
20126OCT     C140251  11.496   9.951   3.497 -0.1783  0.0331  0.1812
20126OCT     C240252  11.689   9.534   3.442  0.0011  0.1713  0.1000
20127OCT     C140253  16.192   6.876  23.686  0.0914  0.2999 -0.2650
20127OCT     C240254  15.808   6.993   0.120 -0.0088 -0.0820  0.1394
20128OCT     C140255   8.575  21.473   8.618 -0.0597 -0.2619  0.1825
20128OCT     C240256   8.349  21.067   8.657  0.2558  0.1795  0.2926
20129OCT     C140257   4.863   9.282  10.534  0.0602  0.3420 -0.1744
20129OCT     C240258   4.834   9.286  10.083 -0.0547 -0.1742  0.1408
20130OCT     C140259  16.161  19.285   8.279  0.1774  0.0607 -0.0382
20130OCT     C240260  15.899  19.630   8.334 -0.3318  0.0030  0.1598
20131OCT     C140261   4.391   9.649  12.908  0.1739  0.1444  0.3457
20131OCT     C240262   4.770   9.460  13.070  0.0916 -0.2286 -0.4543
20132OCT     C140263  15.021   4.706  10.914 -0.0637  0.3463  0.4094
20132OCT     C240264  14.918   4.861  11.325 -0.4165 -0.2274 -0.1320
20133OCT     C140265  17.697   5.312  21.210  0.2380  0.1125  0.2284
20133OCT     C240266  17.440   5.503  21.573 -0.1139  0.0464  0.0274
20134OCT     C140267   6.453  16.860  19.908  0.0190 -0.1033 -0.1269
20134OCT     C240268   6.488  17.055  19.509 -0.1048 -0.0708  0.1944
20135OCT     C140269   7.462   3.252  17.599 -0.1541 -0.0279  0.0456
20135OCT     C240270   7.892   3.414  17.721  0.2385  0.2432  0.0677
20136OCT     C140271  23.640  21.490  11.863 -0.0316  0.2741 -0.2938
20136OCT     C240272   0.037  21.201  11.555 -0.4035  0.1839  0.2456
20137OCT     C140273   0.251   5.549   5.028  0.1380 -0.1456 -0.1964
20137OCT     C240274   0.451   5.172   5.272 -0.2505  0.1387  0.0246
20138OCT     C140275   3.021   2.182   7.769  0.2716 -0.1297 -0.2797
20138OCT     C240276   2.812   2.139   8.164 -0.0627 -0.1551  0.1187
20139OCT     C140277   4.804  14.792   5.768  0.2238  0.2021 -0.2761
20139OCT     C240278   4.640  14.354   5.830  0.0884  0.2556  0.0659
20140OCT     C140279  14.449   9.850  18.143  0.0822  0.4997  0.1241
20140OCT     C240280  14.469  10.186  17.797  0.1698 -0.6021  0.1790
20141OCT     C140281  12.420   5.459  11.938  0.0332  0.4166 -0.1132
20141OCT     C240282  12.353   5.874  11.747  0.0549 -0.0829 -0.1670
20142OCT     C140283  22.307   0.319   7.014  0.3643 -0.2136 -0.0373
20142OCT     C240284  22.749   0.403   6.843  0.0681 -0.1371  0.2592
20143OCT     C140285  13.564  10.628  15.076  0.2769 -0.4506 -0.2697
20143OCT     C240286  13.259  10.931  15.321 -0.4083 -0.3007  0.0447
20144OCT     C140287   2.784  15.533  22.640  0.0685  0.2006  0.1824
20144OCT     C240288   2.449  15.312  22.420  0.1074  0.0419 -0.1813
20145OCT     C140289  13.614  11.398  21.849  0.0778  0.2611  0.0186
20145OCT     C240290  13.406  11.402  22.284  0.2076  0.0829 -0.0097
20146OCT     C140291  17.794   7.405  21.177  0.2064  0.0150  0.0500
20146OCT     C240292  17.705   7.731  21.415 -0.0105 -0.4751 -0.1619
20147OCT     C140293  21.590  23.305  16.679  0.2869  0.0818  0.2240
20147OCT     C240294  21.923  23.450  16.951 -0.1017  0.1327 -0.0980
20148OCT     C140295  22.251   1.831   0.879  0.2522 -0.1974  0.0683
20148OCT     C240296  21.991   1.717   0.509  0.2969 -0.3780 -0.2304
20149OCT     C140297  11.882   9.742  18.888 -0.1104 -0.0779  0.1864
20149OCT     C240298  11.996   9.272  18.815 -0.0346  0.0503 -0.1355
20150OCT     C140299   6.630  10.680   6.335 -0.2005  0.1920  0.0291
20150OCT     C240300   6.630  11.045   6.078  0.0022 -0.4870 -0.1595
20151OCT     C140301  16.087  16.273  20.961 -0.0713 -0.1441 -0.0024
20151OCT     C240302  15.856  16.258  21.361 -0.4328  0.4075 -0.0537
20152OCT     C140303   6.168  10.090  14.753 -0.2002  0.1071  0.2509
20152OCT     C240304   5.980   9.722  14.544  0.1209  0.0265 -0.1399
20153OCT     C140305  15.396  20.299  14.027 -0.0278  0.3429 -0.3001
20153OCT     C240306  15.503  20.077  13.613  0.1171  0.2692  0.1369
20154OCT     C140307  12.648  10.306   8.952  0.0239  0.2090  0.1559
20154OCT     C240308  12.644  10.714   8.726  0.0251 -0.0319 -0.0270
20155OCT     C140309   6.658   5.712  17.958 -0.0994 -0.1762  0.0377
20155OCT     C240310   7.105   5.584  18.055 -0.0094 -0.0691  0.1140
20156OCT     C140311   9.419   4.027   1.924  0.2490 -0.1376 -0.0243
20156OCT     C240312   9.599   4.486   1.932 -0.1179  0.4491  0.1559
20157OCT     C140313  15.053  19.058   3.824  0.1893 -0.1314  0.3853
20157OCT     C240314  15.292  18.684   3.909  0.1901  0.0795 -0.0871
20158OCT     C140315  14.644   3.296  20.219  0.2171  0.2445 -0.0597
20158OCT     C240316  14.375   3.294  19.818  0.0688  0.3713  0.0077
20159OCT     C140317  16.713  16.096  22.687  0.0223 -0.5548 -0.0703
20159OCT     C240318  16.341  15.804  22.708 -0.2615 -0.0569 -0.1290
20160OCT     C140319   2.592   0.969   1.634  0.0277 -0.0987 -0.1814
20160OCT     C240320   2.399   0.895   2.051 -0.0472  0.0415  0.0003
20161OCT     C140321  20.589   0.986  21.774 -0.4354  0.2901  0.1662
20161OCT     C240322  20.548   1.406  21.600 -0.0791 -0.1641  0.0073
20162OCT     C140323  22.549  22.489  17.332 -0.1890 -0.0886  0.0768
20162OCT     C240324  22.582  22.542  16.806 -0.2151 -0.0174 -0.3057
20163OCT     C140325  14.281   5.799  16.710 -0.1395  0.1180 -0.1506
20163OCT     C240326  14.001   5.804  16.306  0.0497  0.2929 -0.0315
20164OCT     C140327   8.678   5.042  22.174  0.0055 -0.0532  0.2676
20164OCT     C240328   8.628   4.565  22.232  0.0361  0.3652 -0.1024
20165OCT     C140329  16.609  21.531  18.598 -0.2221 -0.0457 -0.0579
20165OCT     C240330  16.693  21.072  18.634  0.0982 -0.0070 -0.3663
20166OCT     C140331  18.776  23.650   6.649  0.0697  0.2156  0.0571
20166OCT     C240332  19.078  23.497   6.325 -0.1747  0.2091  0.0681
20167OCT     C140333  18.249  20.907  12.672  0.1614 -0.1804 -0.2696
20167OCT     C240334  17.950  21.122  12.363 -0.1068  0.1617  0.0192
20168OCT     C140335  14.610   6.845   8.559  0.0439  0.0348  0.1800
20168OCT     C240336  14.535   7.318   8.630  0.2641 -0.2595  0.3413
20169OCT     C140337   8.121  12.592  17.236  0.1038  0.1436 -0.0757
20169OCT     C240338   7.841  12.820  17.548  0.0482  0.2407 -0.3086
20170OCT     C140339   8.434   8.006   0.223 -0.0548  0.0216  0.0974
20170OCT     C240340   8.136   8.047  23.644  0.4899 -0.3656 -0.3865
20171OCT     C140341  20.655  22.074   8.570 -0.2164 -0.2987 -0.0091
20171OCT     C240342  20.836  22.303   8.925 -0.0700 -0.1972  0.0397
20172OCT     C140343   9.374  14.209   0.499 -0.0474  0.1126 -0.0879
20172OCT     C240344   9.405  14.356   0.915 -0.2098  0.2248 -0.2449
20173OCT     C140345   3.046  14.587  13.017  0.1381  0.1562  0.1905
20173OCT     C240346   3.243  14.299  12.713  0.1887  0.0118  0.2258
20174OCT     C140347  12.108  16.114   5.300 -0.4006  0.4139 -0.1330
20174OCT     C240348  11.896  15.710   5.450  0.1091  0.0417 -0.0984
20175OCT     C140349  12.927  11.030   2.084 -0.3556  0.1195  0.0903
20175OCT     C240350  13.244  11.382   1.942 -0.0437 -0.0525  0.0528
20176OCT     C140351   7.367   3.535   2.882 -0.0148 -0.3548  0.2375
20176OCT     C240352   7.441   3.517   2.410  0.0541 -0.1559  0.0714
20177OCT     C140353  22.670  16.146  19.341  0.2598 -0.1528 -0.1753
20177OCT     C240354  22.807  16.485  19.011 -0.1097  0.1450  0.1752
20178OCT     C140355  12.304  13.448  23.692  0.2183  0.0902  0.0851
20178OCT     C240356  12.155  13.682  23.331  0.4069  0.5022  0.2439
20179OCT     C140357  23.438  20.708   6.433 -0.0385 -0.0851  0.1687
20179OCT     C240358   0.062  20.634   6.718  0.4101  0.1175  0.3173
20180OCT     C140359  17.291   0.923   2.284 -0.2135  0.4914 -0.0907
20180OCT     C240360  17.077   1.070   1.895 -0.3573 -0.2517  0.1645
20181OCT     C140361   5.647   0.253   6.630 -0.2793 -0.1475 -0.0362
20181OCT     C240362   6.058   0.314   6.789  0.2762 -0.2588 -0.4410
20182OCT     C140363  12.623   5.577  18.997 -0.3638 -0.1239  0.2323
20182OCT     C240364  12.626   5.845  18.608  0.1468 -0.1363 -0.0185
20183OCT     C140365  22.883  17.848  17.847 -0.1808 -0.1236 -0.0053
20183OCT     C240366  23.255  18.005  18.011  0.1011 -0.2228 -0.0532
20184OCT     C140367  16.020  15.749   6.156 -0.0222 -0.1475 -0.3802
20184OCT     C240368  16.407  15.967   6.046 -0.0514 -0.3187  0.1823
20185OCT     C140369  18.899  21.241  15.936  0.0922 -0.3266  0.0068
20185OCT     C240370  19.109  21.507  15.582 -0.1134  0.1975  0.1494
20186OCT     C140371   5.159   9.159   9.026  0.0739  0.4894 -0.1074
20186OCT     C240372   5.206   8.732   9.355 -0.2672  0.0653  0.0885
20187OCT     C140373   7.957  22.754  15.258  0.0417 -0.3297  0.0891
20187OCT     C240374   8.064  22.451  15.589 -0.1006 -0.0914  0.1095
20188OCT     C140375   9.938  11.337  22.226 -0.0722  0.1829  0.2043
20188OCT     C240376  10.224  11.515  22.524  0.0259  0.0522 -0.1013
20189OCT     C140377   2.869   5.405   9.692 -0.2295  0.2295 -0.3911
20189OCT     C240378   2.428   5.643   9.781  0.0795 -0.0297  0.0399
20190OCT     C140379   2.655  10.348  18.513  0.1782 -0.4108  0.0423
20190OCT     C240380   2.915  10.606  18.856  0.0378 -0.4842 -0.0837
20191OCT     C140381  13.554   3.960  22.690  0.2995 -0.2408  0.1567
20191OCT     C240382  13.308   3.717  23.003 -0.0632 -0.2159  0.1721
20192OCT     C140383  14.686   6.600  15.653 -0.1356 -0.0644  0.4374
20192OCT     C240384  14.577   7.034  15.473  0.1652 -0.1436 -0.1252
20193OCT     C140385   2.048  21.871   8.786  0.1775 -0.2105 -0.1111
20193OCT     C240386   1.741  21.524   8.907 -0.3036  0.0555 -0.1664
20194OCT     C140387   6.174   1.829  15.268  0.0701  0.0563  0.2909
20194OCT     C240388   5.762   1.642  15.198  0.1348 -0.0441 -0.1077
20195OCT     C140389   0.637  10.080   4.281  0.1255  0.2336 -0.1366
20195OCT     C240390   1.053   9.987   4.187 -0.1988  0.3502  0.1185
20196OCT     C140391  12.499   6.115  12.249 -0.1195 -0.3693  0.0450
20196OCT     C240392  12.628   5.720  12.449  0.0458 -0.0420 -0.3234
20197OCT     C140393  13.168  11.311  19.260  0.2604  0.2260 -0.1495
20197OCT     C240394  12.792  11.394  19.525  0.2272  0.1385  0.1564
20198OCT     C140395   0.147   6.362  14.356 -0.0793 -0.3333  0.0496
20198OCT     C240396   0.176   6.757  14.194 -0.1574  0.2758 -0.2943
20199OCT     C140397  23.304   8.866  15.648  0.2286 -0.0475 -0.0166
20199OCT     C240398  23.054   8.834  15.188 -0.1538  0.1734 -0.1362
20200OCT     C140399   9.063  16.602  19.106  0.1364  0.2612 -0.1648
20200OCT     C240400   8.969  16.270  18.818 -0.3595 -0.1416  0.0447
20201OCT     C140401  10.843   6.906  15.348  0.1163 -0.3511 -0.2621
20201OCT     C240402  10.737   7.260  15.144  0.1011  0.0591 -0.4265
20202OCT     C140403   7.488   8.895  21.449 -0.0366  0.0830  0.1345
20202OCT     C240404   7.193   9.275  21.387 -0.1965  0.1717 -0.0816
20203OCT     C140405  18.177  16.750  21.689 -0.1504  0.6690 -0.2161
20203OCT     C240406  18.208  17.224  21.675 -0.4500  0.2476  0.2939
20204OCT     C140407  19.461   2.568  21.634 -0.4321  0.1222  0.0092
20204OCT     C240408  19.107   2.320  21.884 -0.0840  0.2715  0.1402
20205OCT     C140409  21.239  18.351   1.876 -0.1635 -0.4561 -0.1591
20205OCT     C240410  21.106  18.003   1.577 -0.1589 -0.3230  0.3670
20206OCT     C140411  16.879  12.950   7.539  0.0853  0.2314 -0.3231
20206OCT     C240412  17.110  12.596   7.386 -0.1055  0.1440 -0.1450
20207OCT     C140413  13.259  17.709  16.623 -0.1852 -0.0143 -0.2680
20207OCT     C240414  13.118  17.924  17.014 -0.1753  0.1076 -0.3049
20208OCT     C140415  14.060  10.154   6.988  0.0333 -0.1357  0.3642
20208OCT     C240416  13.657  10.376   7.149  0.1960 -0.2629  0.2360
20209OCT     C140417   7.599   9.310   3.581 -0.0116  0.0856  0.2505
20209OCT     C240418   7.955   9.623   3.429  0.1665 -0.0947 -0.2124
20210OCT     C140419  19.184   7.205  21.755 -0.4570 -0.1565  0.0674
20210OCT     C240420  19.123   7.003  22.178 -0.1157  0.2271 -0.0669
20211OCT     C140421  19.574   0.164  15.915 -0.0587  0.1075  0.0342
20211OCT     C240422  20.006   0.087  16.049 -0.0257  0.2726 -0.1659
20212OCT     C140423  14.790   0.535  15.246  0.0505 -0.1172 -0.0098
20212OCT     C240424  15.156   0.603  14.962 -0.1642 -0.2947  0.1090
20213OCT     C140425  18.123  19.524  11.562  0.0971  0.0064  0.0340
20213OCT     C240426  18.450  19.202  11.498  0.0215  0.1287  0.1228
20214OCT     C140427   2.299   8.129  22.376 -0.1848 -0.2100 -0.1714
20214OCT     C240428   2.332   8.586  22.403  0.0727  0.1942 -0.0031
20215OCT     C140429  14.033  17.412   8.138 -0.0241  0.1966 -0.0950
20215OCT     C240430  14.456  17.248   8.056 -0.1450 -0.0581  0.1529
20216OCT     C140431   9.676   2.810   7.099 -0.2829 -0.1425  0.0022
20216OCT     C240432  10.057   2.636   7.356 -0.0268 -0.0089  0.4390
20217OCT     C140433   5.971  14.648  20.947 -0.1996 -0.0899  0.0484
20217OCT     C240434   5.872  15.094  21.109 -0.2581 -0.1656 -0.2471
20218OCT     C140435  19.775  14.249   4.475  0.2558 -0.3626 -0.0133
20218OCT     C240436  19.521  13.907   4.347 -0.0837  0.4744 -0.5091
20219OCT     C140437  22.505  10.575  18.648  0.3807  0.1510  0.0942
20219OCT     C240438  22.252  10.472  18.201 -0.0449  0.4634 -0.3056
20220OCT     C140439  18.951   7.783  11.513  0.4324 -0.2112  0.1026
20220OCT     C240440  19.330   7.729  11.251  0.1310  0.1248 -0.2412
20221OCT     C140441   1.968   4.335   2.056 -0.0249 -0.0380 -0.0725
20221OCT     C240442   2.259   4.493   2.351  0.1471  0.1965 -0.5007
20222OCT     C140443  19.641   2.274  12.992 -0.2523 -0.2021  0.2661
20222OCT     C240444  19.808   2.273  13.448  0.1089  0.3222 -0.2286
20223OCT     C140445  10.088   8.032  17.863 -0.2049  0.0895 -0.2607
20223OCT     C240446   9.690   7.834  17.650 -0.0573 -0.1978 -0.0539
20224OCT     C140447  14.797  13.509  16.698  0.0730 -0.2251  0.1291
20224OCT     C240448  14.473  13.439  16.980  0.0513  0.2505  0.3159
20225OCT     C140449   8.205   1.997   6.662  0.0558  0.1732  0.1708
20225OCT     C240450   8.157   2.063   7.123  0.2226 -0.1888 -0.1715
20226OCT     C140451  15.500   6.020  15.599  0.1431  0.1063 -0.2953
20226OCT     C240452  15.317   5.760  15.943 -0.0731  0.0220 -0.3905
20227OCT     C140453   8.787  10.934  19.501  0.1597 -0.3545 -0.3110
20227OCT     C240454   8.646  11.282  19.229  0.4438  0.2329 -0.1047
20228OCT     C140455  18.372  23.250  13.337  0.0985 -0.0193  0.0359
20228OCT     C240456  18.323  23.387  12.847  0.2968 -0.2535 -0.0125
20229OCT     C140457  18.630  18.547  22.034 -0.4787  0.1204  0.1067
20229OCT     C240458  19.025  18.804  22.104 -0.0080 -0.2884  0.0225
20230OCT     C140459   5.507  17.641   7.271  0.4773 -0.2796  0.2319
20230OCT     C240460   5.469  17.901   7.668  0.1733 -0.0452 -0.0808
20231OCT     C140461  11.579  17.202   5.467  0.0922  0.0660  0.3736
20231OCT     C240462  11.682  16.759   5.426 -0.0646  0.1683 -0.3133
20232OCT     C140463  12.634  20.712   7.461 -0.1713 -0.1392  0.2275
20232OCT     C240464  12.814  21.020   7.133 -0.4444 -0.3232  0.2350
20233OCT     C140465  16.976   9.593   4.359  0.1111  0.1261  0.3779
20233OCT     C240466  16.582   9.871   4.281  0.3401  0.0263  0.0129
20234OCT     C140467  21.681  18.741   3.931  0.1165 -0.1154  0.0942
20234OCT     C240468  22.150  18.848   3.902  0.0947 -0.0479 -0.1083
20235OCT     C140469  12.759  12.785  23.712  0.2337  0.3425  0.0774
20235OCT     C240470  12.615  13.130  23.389  0.0623 -0.0972 -0.1119
20236OCT     C140471   5.895  14.045  14.644  0.2402  0.0550  0.3357
20236OCT     C240472   6.106  14.446  14.516  0.0358 -0.4816 -0.1363
20237OCT     C140473  22.549  11.977  19.151  0.2213 -0.2439 -0.3656
20237OCT     C240474  22.516  12.034  19.627 -0.3147  0.0359 -0.1931
20238OCT     C140475   7.764  19.999  22.986 -0.0271  0.0429  0.0974
20238OCT     C240476   7.901  20.236  23.351 -0.0439 -0.0230 -0.1410
20239OCT     C140477   3.671   5.693  11.113  0.2350 -0.3254  0.4493
20239OCT     C240478   3.928   5.847  10.774  0.0250  0.1259  0.1991
20240OCT     C140479  14.821   5.730   8.243  0.2963 -0.2971 -0.0216
20240OCT     C240480  14.804   5.449   7.866  0.1976  0.0541 -0.0357
20241OCT     C140481  23.616  13.990   2.481 -0.2056  0.1980 -0.2021
20241OCT     C240482  23.610  13.704   2.131 -0.0055  0.3660 -0.1038
20242OCT     C140483   5.820  13.367   7.322  0.0407 -0.2605 -0.0939
20242OCT     C240484   6.078  13.020   7.115 -0.0804 -0.2061  0.1598
20243OCT     C140485   3.042  13.419  14.786  0.3236 -0.0472 -0.0654
20243OCT     C240486   2.826  13.492  15.233  0.0461 -0.0562 -0.1761
20244OCT     C140487  13.921  10.477  14.177 -0.0209  0.0051 -0.1698
20244OCT     C240488  13.889  10.701  13.768  0.0533 -0.1375 -0.0214
20245OCT     C140489   5.988   0.852  15.108  0.0152  0.0952  0.1997
20245OCT     C240490   6.252   1.289  15.008  0.1536 -0.0225 -0.0462
20246OCT     C140491  20.654  14.074  19.224 -0.0673  0.0077 -0.1306
20246OCT     C240492  20.745  14.317  19.619  0.0565 -0.2271  0.2940
20247OCT     C140493  23.544  14.706   2.256 -0.0100  0.2364  0.0427
20247OCT     C240494  23.138  14.885   2.303 -0.0216  0.1609 -0.1340
20248OCT     C140495  12.446  13.274  11.521 -0.2359  0.1994 -0.1250
20248OCT     C240496  12.298  12.977  11.876  0.2535  0.2136  0.3711
20249OCT     C140497   8.307  22.387   7.622  0.0478 -0.0396  0.4130
20249OCT     C240498   8.219  22.082   8.002 -0.0792 -0.0500  0.2753
20250OCT     C140499  14.337  17.889  16.201 -0.1483  0.1438  0.0242
20250OCT     C240500  14.160  17.473  16.290  0.3686  0.1560  0.2991
20251OCT     C140501   8.679  14.448  14.687 -0.0281  0.2271  0.2139
20251OCT     C240502   8.734  14.908  14.634 -0.0082 -0.3425  0.0781
20252OCT     C140503  17.688   6.971  20.821 -0.0208  0.0879 -0.2124
20252OCT     C240504  17.358   7.267  20.590  0.0386  0.0773  0.0024
20253OCT     C140505   0.893   2.314   2.739 -0.2371  0.0176  0.0830
20253OCT     C240506   1.060   1.958   2.482  0.0113 -0.1301 -0.0241
20254OCT     C140507   7.627  10.166   8.293  0.3860  0.0555  0.2884
20254OCT     C240508   7.370  10.163   8.679  0.3013 -0.0506  0.0609
20255OCT     C140509   0.558   2.922   7.510  0.0221  0.0811 -0.0731
20255OCT     C240510   0.173   3.208   7.581 -0.2893  0.1868  0.0442
20256OCT     C140511   4.333  22.545  18.013  0.1506  0.1645  0.1789
20256OCT     C240512   3.981  22.595  18.330 -0.0191 -0.2147 -0.5446
20257OCT     C140513  18.771  13.149  15.094  0.2492  0.2742 -0.1300
20257OCT     C240514  18.794  13.395  15.478  0.0646  0.0021  0.2348
20258OCT     C140515   4.195  16.963   4.585  0.0509 -0.1386 -0.1570
20258OCT     C240516   4.454  17.305   4.400 -0.2330 -0.0446 -0.2694
20259OCT     C140517  21.476   2.064   9.814  0.1464  0.0576 -0.0594
20259OCT     C240518  21.842   2.078   9.513 -0.0164  0.4645  0.0425
20260OCT     C140519   1.185   4.597  23.339 -0.1140 -0.2008  0.0292
20260OCT     C240520   1.294   4.210  23.593  0.1081  0.0307  0.0572
20261OCT     C140521   4.868  18.179  19.458  0.2831 -0.0249 -0.0648
20261OCT     C240522   5.088  17.922  19.801 -0.0327 -0.3101 -0.4933
20262OCT     C140523   5.817  16.365  18.710  0.2338  0.2597 -0.1061
20262OCT     C240524   5.703  15.913  18.731  0.3852 -0.1057  0.3529
20263OCT     C140525  21.566  20.589  22.996  0.0727 -0.0289 -0.1033
20263OCT     C240526  21.813  20.240  22.886  0.1637 -0.0731  0.0509
20264OCT     C140527  14.348  12.848  13.268  0.0610  0.1088  0.2070
20264OCT     C240528  14.625  12.900  12.953  0.2553  0.1886  0.0605
20265OCT     C140529   2.682  10.129  17.594 -0.1631 -0.0915  0.0508
20265OCT     C240530   2.644  10.415  17.903  0.0824  0.1416  0.1687
20266OCT     C140531  10.520   5.991   8.165 -0.0195 -0.1779  0.1807
20266OCT     C240532  10.670   5.885   7.794 -0.1471  0.0864  0.2828
20267OCT     C140533  11.815   1.529  14.896  0.0757  0.1089  0.4348
20267OCT     C240534  11.635   1.936  14.744 -0.0757 -0.3841 -0.2325
20268OCT     C140535  18.276  16.255  13.185 -0.0689  0.0891 -0.0908
20268OCT     C240536  17.969  16.274  13.528 -0.1710 -0.1313  0.1162
20269OCT     C140537  22.542   3.050  12.505 -0.4550 -0.0818 -0.1192
20269OCT     C240538  23.021   3.046  12.411  0.0255 -0.1869  0.1947
20270OCT     C140539   7.928   8.550  13.064  0.0868  0.0922  0.2530
20270OCT     C240540   8.374   8.603  13.269  0.5255 -0.0684  0.0880
20271OCT     C140541  16.220  18.923  13.164  0.2452  0.1854 -0.4304
20271OCT     C240542  15.938  19.167  13.528 -0.1223  0.1562  0.5064
20272OCT     C140543   5.102   6.299  16.237 -0.0650  0.0463  0.0173
20272OCT     C240544   4.838   6.650  16.386  0.0501 -0.1289 -0.2970
20273OCT     C140545   5.917   4.305  19.447 -0.0596 -0.1118  0.3811
20273OCT     C240546   6.205   3.992  19.727  0.3047 -0.1659 -0.0978
20274OCT     C140547   4.894   6.517   4.083  0.1122 -0.0086 -0.3857
20274OCT     C240548   5.043   6.969   4.043  0.2056 -0.2151 -0.2816
20275OCT     C140549   0.634   9.283   7.969  0.0811 -0.0738  0.5041
20275OCT     C240550   0.245   9.076   8.175  0.0667  0.1581  0.3965
20276OCT     C140551  21.428   7.710  18.352 -0.2431  0.4431 -0.1288
20276OCT     C240552  21.228   7.452  18.681 -0.2699  0.2469  0.3391
20277OCT     C140553   8.807  16.802  17.066 -0.1523  0.0119  0.0567
20277OCT     C240554   8.913  16.502  16.700 -0.1588  0.1466 -0.2962
20278OCT     C140555  16.649   2.691   3.484  0.0892  0.2334 -0.0920
20278OCT     C240556  16.431   3.041   3.236  0.1258 -0.0957  0.5441
20279OCT     C140557  21.072   6.141  11.955  0.0781  0.0587 -0.1299
20279OCT     C240558  21.030   6.570  11.780  0.3932 -0.1236 -0.4989
20280OCT     C140559  22.776   7.246   4.125 -0.0221  0.1810 -0.2242
20280OCT     C240560  22.354   7.215   3.920 -0.0270 -0.0668  0.2995
20281OCT     C140561   6.101  10.764  19.825  0.0702  0.2445 -0.3249
20281OCT     C240562   6.082  11.243  19.918  0.2723  0.1151  0.0454
20282OCT     C140563  13.986  18.983  20.231  0.1410  0.4254 -0.0704
20282OCT     C240564  13.894  18.636  20.533  0.1539  0.2737 -0.0432
20283OCT     C140565  19.639  10.843   9.143 -0.2358 -0.1660 -0.0085
20283OCT     C240566  20.001  11.106   9.103 -0.2940 -0.0789 -0.4572
20284OCT     C140567  17.016   7.173   4.559  0.0584  0.1964 -0.0751
20284OCT     C240568  17.162   6.903   4.244 -0.3080  0.1655 -0.1592
20285OCT     C140569   9.615  20.977  11.309  0.1451  0.5329 -0.2325
20285OCT     C240570   9.698  20.867  10.838  0.1743 -0.0600  0.0707
20286OCT     C140571   7.934   1.927   8.658  0.2252 -0.4092  0.0663
20286OCT     C240572   7.581   1.675   8.422  0.4308 -0.1973 -0.0302
20287OCT     C140573  16.924  15.354   4.216  0.1555 -0.4943 -0.0747
20287OCT     C240574  16.785  15.718   4.066  0.2230 -0.0895  0.1055
20288OCT     C140575   8.419  14.304  11.142  0.4116  0.1570 -0.1137
20288OCT     C240576   8.370  14.569  11.553 -0.1923 -0.3497 -0.0184
20289OCT     C140577  13.727  21.866   9.897 -0.0122 -0.2092  0.1938
20289OCT     C240578  14.161  21.754   9.808 -0.2451 -0.1563  0.1076
20290OCT     C140579  20.397  20.977  20.843  0.0652  0.2224 -0.0651
20290OCT     C240580  20.711  21.127  20.531  0.0710 -0.0217  0.0960
20291OCT     C140581  17.263  21.760  18.278 -0.4439 -0.3790  0.3578
20291OCT     C240582  17.247  21.795  17.787  0.2910 -0.3847 -0.0544
20292OCT     C140583   2.220  19.034  17.385  0.0396 -0.1027  0.1799
20292OCT     C240584   2.330  18.705  17.735  0.3886  0.4953  0.1455
20293OCT     C140585   0.976  22.529   6.519  0.0047  0.1147 -0.1266
20293OCT     C240586   1.031  22.288   6.108  0.0099  0.4908 -0.1135
20294OCT     C140587   1.678  11.806  16.954 -0.2903 -0.0168  0.3545
20294OCT     C240588   1.503  12.194  17.077  0.0112  0.1402 -0.0776
20295OCT     C140589  18.314   3.135   1.113 -0.1424 -0.3254 -0.0243
20295OCT     C240590  18.155   2.661   1.264  0.1443  0.1399 -0.2596
20296OCT     C140591  19.499  23.427  20.009 -0.1501 -0.0504 -0.3739
20296OCT     C240592  19.655  22.984  20.125 -0.1130 -0.2559  0.3681
20297OCT     C140593  13.386  20.951   7.862 -0.2042  0.0867 -0.1094
20297OCT     C240594  13.823  20.796   8.002 -0.0970 -0.2036  0.1780
20298OCT     C140595  22.120  15.239   2.571 -0.3038  0.0059  0.2692
20298OCT     C240596  22.511  14.973   2.475 -0.2193  0.4641  0.0370
20299OCT     C140597  12.663   0.480  19.353 -0.0864  0.1110  0.1766
20299OCT     C240598  12.631   0.861  19.089  0.0761  0.4954  0.2887
20300OCT     C140599   0.275   7.134   9.464 -0.0303  0.0737  0.0153
20300OCT     C240600   0.069   7.524   9.689  0.0897 -0.2802  0.1099
20301OCT     C140601  22.647  12.929   2.735 -0.0882 -0.2474 -0.1435
20301OCT     C240602  23.018  13.197   2.869 -0.1683 -0.2255 -0.5486
20302OCT     C140603  21.902   0.281  22.059 -0.0667  0.4542  0.0356
20302OCT     C240604  22.104  23.671  22.158  0.0268  0.0865 -0.0808
20303OCT     C140605  20.734   9.411  16.381  0.0627 -0.1551 -0.0186
20303OCT     C240606  20.724   9.193  16.846 -0.0734  0.0951  0.0188
20304OCT     C140607   5.566   7.567  15.335  0.0679 -0.1948 -0.1776
20304OCT     C240608   5.196   7.494  15.575  0.2675 -0.1680 -0.0625
20305OCT     C140609  19.617   4.335  13.845 -0.5036  0.0698 -0.0287
20305OCT     C240610  19.262   4.159  14.125  0.1113  0.3419 -0.2559
20306OCT     C140611  16.450  21.220  17.862 -0.1204 -0.0151  0.1772
20306OCT     C240612  16.216  21.003  17.485 -0.0278  0.0723  0.1707
20307OCT     C140613   4.107  23.440   6.917 -0.1622  0.3712  0.4820
20307OCT     C240614   4.247   0.150   6.992 -0.2608  0.1579  0.2812
20308OCT     C140615  17.516   1.357  12.025 -0.0913  0.0292 -0.1769
20308OCT     C240616  17.703   1.740  12.083 -0.2580  0.2676 -0.2364
20309OCT     C140617  13.186  15.120  12.782  0.2592 -0.2099 -0.0830
20309OCT     C240618  13.475  15.085  13.142  0.2758  0.0930  0.0878
20310OCT     C140619  21.200  23.328   1.947  0.0211  0.4147  0.1091
20310OCT     C240620  21.663  23.499   1.977 -0.3824  0.1674  0.1645
20311OCT     C140621  13.935  12.591  20.636  0.2094  0.2188 -0.2489
20311OCT     C240622  13.642  12.748  20.917  0.0627 -0.4306  0.2199
20312OCT     C140623  23.590  17.966  16.632 -0.1296 -0.3611  0.0622
20312OCT     C240624  23.481  18.095  17.060  0.0983 -0.0161  0.5048
20313OCT     C140625  19.534  20.063  18.698 -0.1155 -0.0515  0.1718
20313OCT     C240626  19.939  19.950  18.710 -0.0979  0.3104 -0.1136
20314OCT     C140627   4.612   6.927   1.477  0.3110  0.0169 -0.1403
20314OCT     C240628   4.718   6.917   1.919 -0.0622 -0.0174 -0.0117
20315OCT     C140629   9.951   9.411  10.225  0.1628  0.1596  0.4371
20315OCT     C240630  10.374   9.336   9.996  0.0352  0.1985  0.2261
20316OCT     C140631  16.504  15.520  11.511  0.2458 -0.2195 -0.0133
20316OCT     C240632  16.626  15.258  11.155  0.1324  0.0244  0.2510
20317OCT     C140633  19.215  20.452  23.626  0.1021  0.1545  0.1177
20317OCT     C240634  18.674  20.637  23.674 -0.3136 -0.4087  0.2608
20318OCT     C140635   4.497  17.619  14.168 -0.2285 -0.1624  0.0971
20318OCT     C240636   4.054  17.553  14.203 -0.3057 -0.2097 -0.1613
20319OCT     C140637  14.693   1.535  19.646  0.0844 -0.0789 -0.0620
20319OCT     C240638  14.510   1.948  19.467  0.4727 -0.0164  0.0608
20320OCT     C140639   1.553   3.869  11.788 -0.1670  0.2348 -0.1825
20320OCT     C240640   1.870   4.168  11.812  0.1500 -0.0833  0.0190
20321OCT     C140641  20.432  12.566   2.354  0.1854  0.2211 -0.0202
20321OCT     C240642  19.994  12.701   2.279 -0.1183  0.1106 -0.1022
20322OCT     C140643  19.001  18.795  10.443  0.0606  0.3803  0.2169
20322OCT     C240644  18.580  18.783  10.642 -0.0114  0.1641  0.0722
20323OCT     C140645  13.409   9.574  22.046 -0.0349 -0.0953 -0.1843
20323OCT     C240646  13.521   9.142  22.188  0.2497 -0.2085 -0.1763
20324OCT     C140647   5.792   9.306   3.760 -0.2805  0.0189 -0.4726
20324OCT     C240648   5.523   9.067   4.076 -0.0417  0.0476  0.2392
20325OCT     C140649   6.275   8.203   2.660 -0.0356  0.1340  0.0761
20325OCT     C240650   6.027   7.858   2.854  0.0347  0.1464  0.1668
20326OCT     C140651   2.481  12.078   0.485  0.0548 -0.0696 -0.3039
20326OCT     C240652   2.965  12.148   0.457 -0.0506 -0.1305 -0.1071
20327OCT     C140653   1.608  12.222  19.130 -0.0675 -0.0023 -0.1563
20327OCT     C240654   1.706  12.653  18.998 -0.0738 -0.3081  0.3357
20328OCT     C140655  20.035  12.356  12.220 -0.2343 -0.4478 -0.2559
20328OCT     C240656  19.918  12.707  11.913  0.1786  0.3545 -0.0254
20329OCT     C140657  16.204  20.869  13.971 -0.0752  0.1788  0.0603
20329OCT     C240658  16.467  20.903  14.326 -0.2157  0.0612 -0.1556
20330OCT     C140659   0.807  21.557  12.125  0.1637  0.2368  0.0882
20330OCT     C240660   0.899  21.100  12.226 -0.1653 -0.1329  0.0360
20331OCT     C140661   7.268  13.121  17.018  0.1544 -0.1590 -0.2360
20331OCT     C240662   6.919  13.030  16.712  0.2333  0.2823 -0.0317
20332OCT     C140663  17.361  14.805  20.254 -0.2963  0.1397  0.0756
20332OCT     C240664  17.323  14.763  20.723  0.0459  0.2121 -0.1115
20333OCT     C140665  13.465  19.744   7.058  0.0729  0.0110  0.0753
20333OCT     C240666  13.359  19.852   7.464  0.0797  0.1778  0.0345
20334OCT     C140667  10.186   3.687  22.968  0.0711  0.2825 -0.2493
20334OCT     C240668   9.821   3.385  22.972 -0.2526 -0.1675 -0.0034
20335OCT     C140669  14.519  11.732   1.823 -0.0205  0.0551  0.0925
20335OCT     C240670  14.339  11.887   2.223 -0.0250  0.0388  0.2646
20336OCT     C140671  11.800   2.296  17.201 -0.1349 -0.2192 -0.0359
20336OCT     C240672  11.433   2.030  17.173  0.2072  0.2204  0.1108
20337OCT     C140673   3.691  23.130  12.253  0.1103  0.1868  0.1491
20337OCT     C240674   3.726  23.486  12.580 -0.0868  0.2652 -0.1698
20338OCT     C140675  20.309   6.453  12.928 -0.0531 -0.0999 -0.1063
20338OCT     C240676  20.574   6.609  12.601 -0.3793  0.3900  0.0540
20339OCT     C140677   8.506   6.868  23.359 -0.0289  0.0726 -0.0474
20339OCT     C240678   8.541   6.874   0.059  0.0161 -0.2052 -0.1606
20340OCT     C140679   1.797  11.275   0.029 -0.0489  0.2283 -0.2168
20340OCT     C240680   1.501  10.909  23.631  0.1067  0.1409 -0.2777
20341OCT     C140681   2.451  13.409  20.606 -0.0003  0.5324 -0.0068
20341OCT     C240682   2.443  13.409  20.152  0.1088  0.4789 -0.0866
20342OCT     C140683  14.208   4.310  14.961  0.3098 -0.0767  0.2377
20342OCT     C240684  14.268   4.787  15.047  0.1079  0.0246 -0.1487
20343OCT     C140685  23.454   3.433  16.431 -0.2006 -0.0590  0.0438
20343OCT     C240686  23.433   3.332  16.898 -0.1647 -0.0088 -0.1851
20344OCT     C140687  23.609  14.548   9.335 -0.0649 -0.1339  0.0053
20344OCT     C240688   0.201  14.537   9.677 -0.0006 -0.0711  0.2788
20345OCT     C140689  18.275  11.048  18.127 -0.3561  0.2222  0.0050
20345OCT     C240690  18.665  11.061  17.824 -0.1920  0.1374  0.0337
20346OCT     C140691  19.483  11.873   5.068  0.2192  0.1124 -0.0151
20346OCT     C240692  19.969  11.756   5.052  0.4463  0.0680  0.1340
20347OCT     C140693   8.705   2.697   7.512  0.2855  0.0943  0.1132
20347OCT     C240694   9.042   2.514   7.735  0.1588 -0.0560 -0.0251
20348OCT     C140695  22.531  18.504  21.652 -0.3231 -0.0464  0.0280
20348OCT     C240696  22.353  18.103  21.763  0.0515  0.3037  0.0121
20349OCT     C140697  13.439  12.276  12.780 -0.2579 -0.0032  0.4247
20349OCT     C240698  13.853  12.451  12.800 -0.0134 -0.2611 -0.1635
20350OCT     C140699  21.619  13.093  18.761  0.1499 -0.3119 -0.0863
20350OCT     C240700  21.426  13.523  18.733  0.0406  0.0108  0.1759
20351OCT     C140701  18.527   3.239  11.710 -0.2879 -0.2458 -0.2608
20351OCT     C240702  18.571   3.505  11.316 -0.0509  0.2229  0.1813
20352OCT     C140703  15.377  23.060  11.166 -0.1784 -0.2195  0.1487
20352OCT     C240704  15.695  22.795  11.387  0.2449  0.1246 -0.1340
20353OCT     C140705  20.319   9.550  13.041 -0.1025 -0.0962  0.0053
20353OCT     C240706  20.728   9.498  12.825 -0.7710 -0.0754  0.0710
20354OCT     C140707  19.363   0.312   5.031 -0.0751  0.4078  0.0568
20354OCT     C240708  19.800   0.444   4.882  0.0810  0.0130 -0.2873
20355OCT     C140709  12.127  15.436   0.651 -0.0382  0.0142  0.2631
20355OCT     C240710  12.257  15.547   1.134 -0.4210  0.1174 -0.3123
20356OCT     C140711  15.007  21.081  14.106 -0.2548 -0.5284 -0.1924
20356OCT     C240712  14.953  20.639  13.932 -0.0117 -0.2825  0.0546
20357OCT     C140713   3.923  18.728  21.266 -0.3737 -0.3351 -0.1392
20357OCT     C240714   3.867  18.499  21.660 -0.3793 -0.5421 -0.1850
20358OCT     C140715  10.801  16.422  20.794 -0.5361 -0.0851 -0.3717
20358OCT     C240716  11.036  16.827  20.850  0.0283 -0.1287  0.1843
20359OCT     C140717   8.710   3.682  21.866 -0.1453 -0.2071  0.3052
20359OCT     C240718   8.858   4.068  22.023  0.2093 -0.3165  0.0996
20360OCT     C140719  18.101  18.708  17.166  0.0165 -0.1079  0.1039
20360OCT     C240720  18.495  18.646  17.452 -0.0686 -0.1075 -0.0285
20361OCT     C140721  10.909   1.470   0.972 -0.0075 -0.0535  0.6116
20361OCT     C240722  10.534   1.417   1.170 -0.3010  0.0786 -0.4492
20362OCT     C140723  15.356  18.737   7.087 -0.1845 -0.0457  0.1977
20362OCT     C240724  15.808  18.846   6.900  0.2581  0.2494 -0.2546
20363OCT     C140725  12.215   3.890   8.393  0.1926  0.1728 -0.2970
20363OCT     C240726  12.038   4.258   8.650  0.0419  0.3521 -0.1012
20364OCT     C140727  18.990   2.827   4.580 -0.4431 -0.1936 -0.2403
20364OCT     C240728  18.749   2.433   4.520  0.0487  0.3261 -0.0754
20365OCT     C140729  23.065   4.170  17.387 -0.2191  0.1567 -0.1620
20365OCT     C240730  23.347   4.524  17.288 -0.2570 -0.1661 -0.1257
20366OCT     C140731  23.412  22.522   9.350  0.3577  0.0176  0.3083
20366OCT     C240732  23.645  22.754   9.065  0.1193 -0.2583 -0.1170
20367OCT     C140733   8.323  23.286  21.454 -0.2666 -0.1364  0.0846
20367OCT     C240734   8.410  23.177  21.008  0.1073 -0.3426 -0.0629
20368OCT     C140735   9.346  15.516   9.327 -0.2508  0.1994  0.2306
20368OCT     C240736   8.911  15.438   9.466  0.3245  0.2115  0.2671
20369OCT     C140737  11.816  21.102   7.626  0.0750 -0.0197 -0.1416
20369OCT     C240738  11.546  21.082   8.002 -0.1539  0.1988 -0.1177
20370OCT     C140739  22.717   3.305  18.341 -0.2907  0.1540 -0.0579
20370OCT     C240740  22.436   3.417  18.663  0.1511 -0.1697  0.0449
20371OCT     C140741  12.473  21.386  20.410 -0.0576 -0.1032  0.2195
20371OCT     C240742  12.293  21.592  20.874  0.0157 -0.1113 -0.0822
20372OCT     C140743  11.098   1.997   0.606  0.3374  0.0792 -0.1411
20372OCT     C240744  11.389   1.801   0.302  0.0664 -0.0257 -0.0443
20373OCT     C140745   1.105   1.935  15.870 -0.1252  0.1331  0.2403
20373OCT     C240746   0.663   1.815  15.627  0.0219  0.1345 -0.2022
20374OCT     C140747   7.727  19.269   4.594 -0.0515 -0.2025 -0.1055
20374OCT     C240748   7.775  19.631   4.339  0.1820  0.1154  0.2068
20375OCT     C140749   8.930  11.491   5.182  0.1381 -0.0971 -0.1965
20375OCT     C240750   8.920  11.495   4.756  0.2297  0.0187  0.0480
20376OCT     C140751   1.803  10.039  14.387  0.0384 -0.3096  0.0583
20376OCT     C240752   1.661   9.989  13.921  0.0107 -0.2158 -0.0799
20377OCT     C140753   6.784  10.152  23.306 -0.2065  0.2675 -0.0636
20377OCT     C240754   6.770   9.724  23.471  0.1873 -0.0769  0.1952
20378OCT     C140755   5.116  20.787  14.966 -0.0520  0.0397  0.4672
20378OCT     C240756   5.039  21.157  15.248 -0.2089  0.0376 -0.0048
20379OCT     C140757   2.238  18.158  18.870  0.0655  0.0326 -0.3666
20379OCT     C240758   2.180  18.006  18.402  0.0548  0.1089  0.1077
20380OCT     C140759  18.122   4.225  16.525 -0.1263  0.3868 -0.1723
20380OCT     C240760  17.885   3.807  16.639  0.5014  0.2186 -0.0277
20381OCT     C140761  15.588   5.604  21.893  0.0485 -0.1231  0.0466
20381OCT     C240762  15.620   6.035  21.773  0.2879 -0.4113 -0.1262
20382OCT     C140763   1.011   6.997   9.703  0.0631 -0.3921  0.0180
20382OCT     C240764   1.365   6.971   9.971  0.3974  0.0247 -0.0219
20383OCT     C140765  23.622  17.774   5.838 -0.2225 -0.3873 -0.1921
20383OCT     C240766   0.251  18.032   5.912  0.0954 -0.3827  0.2339
20384OCT     C140767   0.258  15.999  10.429 -0.0454 -0.0128 -0.0007
20384OCT     C240768   0.252  16.336  10.781 -0.1656  0.0876  0.1499
20385OCT     C140769  18.823  15.886  10.254  0.2125 -0.3106  0.0168
20385OCT     C240770  19.069  15.838   9.796 -0.1307  0.3064  0.2240
20386OCT     C140771  23.592   7.113  14.170 -0.2295  0.3491  0.4691
20386OCT     C240772   0.190   7.374  14.375  0.1666  0.1869 -0.0626
20387OCT     C140773  15.068  14.094   5.408 -0.1826  0.5292 -0.1170
20387OCT     C240774  14.846  14.400   5.012  0.0769 -0.4352 -0.3100
20388OCT     C140775   9.008   4.531  13.523 -0.4330  0.0519 -0.2344
20388OCT     C240776   8.624   4.737  13.473  0.3516 -0.1617 -0.0737
20389OCT     C140777  13.732   7.327  11.933  0.0010  0.0445 -0.1918
20389OCT     C240778  13.791   7.291  11.446 -0.1068  0.1407  0.0199
20390OCT     C140779  22.984  13.368  14.882  0.1915  0.3196  0.1895
20390OCT     C240780  23.220  13.701  14.976 -0.0570 -0.3225 -0.1474
20391OCT     C140781  16.372   0.860  21.832 -0.1452 -0.1339 -0.2677
20391OCT     C240782  16.181   1.007  22.258 -0.2935 -0.2301  0.1831
20392OCT     C140783  18.816   0.187  17.795  0.3681  0.1263 -0.0524
20392OCT     C240784  19.139   0.318  17.506 -0.2806 -0.0727 -0.0484
20393OCT     C140785   2.678  15.643  20.221  0.1328  0.0090  0.0502
20393OCT     C240786   2.170  15.709  20.317  0.1277  0.0760  0.1476
20394OCT     C140787   4.580   7.816   4.972  0.1352 -0.0771 -0.2063
20394OCT     C240788   4.151   7.956   5.205  0.1582  0.0426  0.2836
20395OCT     C140789  16.074  17.127   6.759 -0.3917  0.4930 -0.0331
20395OCT     C240790  16.379  16.914   6.570  0.0963  0.0828 -0.3826
20396OCT     C140791  14.771  13.476  19.977  0.1700  0.0648  0.0388
20396OCT     C240792  15.146  13.821  20.005 -0.0540  0.0545 -0.4096
20397OCT     C140793  18.370  17.361  17.987  0.0362 -0.2992  0.0573
20397OCT     C240794  17.976  17.371  18.186  0.4057 -0.2103 -0.1005
20398OCT     C140795  23.282   7.889  19.025 -0.1065 -0.1645  0.2635
20398OCT     C240796  22.993   8.241  19.000  0.1582  0.1857  0.0158
20399OCT     C140797   8.670   2.163  18.873  0.0151 -0.1986 -0.2275
20399OCT     C240798   8.350   2.471  18.996 -0.1838  0.1294 -0.1441
20400OCT     C140799   1.874  19.368   4.901  0.0874 -0.0710 -0.1550
20400OCT     C240800   2.037  19.422   4.493  0.0169  0.0518 -0.0996
20401OCT     C140801   5.816   8.981  13.720 -0.2798  0.2473 -0.0924
20401OCT     C240802   5.884   9.361  13.471 -0.3575  0.3673  0.2236
20402OCT     C140803  11.408   7.249  16.402 -0.2257 -0.2107  0.3252
20402OCT     C240804  10.991   7.190  16.307  0.0695  0.1429 -0.1238
20403OCT     C140805  17.317  11.246  21.295 -0.2374 -0.0496 -0.1399
20403OCT     C240806  17.577  11.593  21.168 -0.0029 -0.1780  0.0136
20404OCT     C140807   0.448  13.511   2.954 -0.1739  0.2326  0.1543
20404OCT     C240808   0.149  13.454   2.587  0.0038  0.0468  0.0280
20405OCT     C140809   1.485   4.627  19.670  0.0834 -0.1075  0.1084
20405OCT     C240810   1.742   4.592  19.208 -0.1892 -0.2966  0.1118
20406OCT     C140811   9.621  11.525   2.056  0.0163 -0.2881  0.3019
20406OCT     C240812   9.834  11.118   1.952 -0.2639 -0.0897  0.0514
20407OCT     C140813   7.409  17.640   1.911  0.0003 -0.6554  0.0437
20407OCT     C240814   7.609  17.190   1.793  0.0271 -0.2431  0.3263
20408OCT     C140815  23.393  21.372   0.950 -0.0984 -0.0925  0.2274
20408OCT     C240816  23.261  21.024   1.189  0.1366 -0.2782 -0.1603
20409OCT     C140817   1.040  21.519   3.582  0.1480  0.0736  0.1471
20409OCT     C240818   0.785  21.690   3.917  0.1717  0.1556 -0.1333
20410OCT     C140819  22.562  18.089   8.452  0.0130  0.3084  0.2143
20410OCT     C240820  22.866  18.184   8.157 -0.1361  0.1236  0.2288
20411OCT     C140821   4.392   0.531  20.916  0.2570  0.1674  0.0962
20411OCT     C240822   4.451   0.644  20.467  0.2604 -0.1264  0.2466
20412OCT     C140823  18.832  22.314  14.893 -0.2424  0.2185 -0.3239
20412OCT     C240824  18.890  21.929  14.657 -0.1250 -0.0499 -0.0669
20413OCT     C140825  21.298  18.314   5.796  0.1012 -0.1758 -0.1553
20413OCT     C240826  21.156  18.222   6.188 -0.3478  0.1080 -0.0385
20414OCT     C140827   2.387  20.788  19.531 -0.1185 -0.1505 -0.3173
20414OCT     C240828   2.639  20.941  19.146  0.3078 -0.3232  0.3891
20415OCT     C140829   2.632  12.751   1.738 -0.1099 -0.4143  0.2228
20415OCT     C240830   2.631  13.056   1.990 -0.0414 -0.2380  0.5827
20416OCT     C140831  19.538   9.064  17.060  0.3633  0.0690  0.3060
20416OCT     C240832  19.084   9.057  16.934 -0.0338  0.3047 -0.0371
20417OCT     C140833  17.530  12.269  22.989 -0.1444  0.4301  0.0819
20417OCT     C240834  17.601  11.812  23.144 -0.0539 -0.0972  0.1234
20418OCT     C140835  10.559  13.317  17.264 -0.1483  0.1420 -0.1950
20418OCT     C240836  10.452  13.540  16.861 -0.2478 -0.0063 -0.2830
20419OCT     C140837   3.918  12.112   7.040  0.1332 -0.1793  0.1351
20419OCT     C240838   4.211  12.422   6.792 -0.4386 -0.1006  0.2394
20420OCT     C140839  14.522   7.050  17.649 -0.1377  0.0809 -0.1630
20420OCT     C240840  14.253   6.907  18.015  0.1934  0.2419  0.1078
20421OCT     C140841   6.629  22.707  11.288 -0.0571 -0.1833  0.3167
20421OCT     C240842   6.446  23.004  10.976 -0.2848 -0.0913 -0.2222
20422OCT     C140843  10.175  18.253  14.910  0.1676 -0.1503 -0.1860
20422OCT     C240844   9.895  18.250  15.319  0.4348 -0.1339  0.0954
20423OCT     C140845   0.628   4.497  10.124 -0.0111  0.1558  0.0497
20423OCT     C240846   0.938   4.724   9.860  0.0056  0.1983 -0.2410
20424OCT     C140847  22.654  10.957  16.514  0.1634  0.0511  0.0191
20424OCT     C240848  22.259  11.186  16.411 -0.1795  0.1197 -0.3388
20425OCT     C140849   3.050  23.307   7.866  0.1165 -0.1898  0.0344
20425OCT     C240850   2.610  23.358   8.068 -0.1403 -0.1191 -0.1025
20426OCT     C140851  13.625  20.580   0.425 -0.0896 -0.3775  0.2762
20426OCT     C240852  13.630  20.978   0.215  0.1422  0.0243 -0.3436
20427OCT     C140853   6.724   6.493  13.955 -0.0675 -0.0934 -0.0398
20427OCT     C240854   7.116   6.227  13.992 -0.1678 -0.2378 -0.3078
20428OCT     C140855  15.552  20.719   3.549  0.1417 -0.1213 -0.2243
20428OCT     C240856  15.592  21.145   3.822 -0.0521 -0.0403  0.1447
20429OCT     C140857  19.410   3.822   3.029 -0.1695 -0.0326 -0.2063
20429OCT     C240858  19.547   3.854   2.614 -0.0156  0.0377  0.2936
20430OCT     C140859  14.662   9.488  19.078 -0.0055 -0.2697  0.0034
20430OCT     C240860  14.642   9.855  18.738  0.1621 -0.1276  0.1380
20431OCT     C140861   3.412  13.397   0.678 -0.0186 -0.0020  0.0291
20431OCT     C240862   3.069  13.135   0.857  0.3085 -0.1907  0.1132
20432OCT     C140863   7.101  13.484  20.620  0.1605  0.0235  0.2826
20432OCT     C240864   6.787  13.784  20.796  0.0246  0.3591  0.2014
20433OCT     C140865  16.923  23.246  10.165 -0.0652  0.1303 -0.0532
20433OCT     C240866  16.474  23.375  10.095 -0.4166 -0.3952 -0.2065
20434OCT     C140867  12.298   6.914  18.004 -0.1757  0.0927 -0.5291
20434OCT     C240868  12.042   7.120  18.361 -0.0050  0.4348 -0.2103
20435OCT     C140869   6.652   2.148  21.551  0.0077  0.3810 -0.0744
20435OCT     C240870   6.716   2.621  21.664  0.2111 -0.0209  0.2681
20436OCT     C140871   9.448  22.689   0.573 -0.1661 -0.0842  0.2058
20436OCT     C240872   9.625  22.546   0.976  0.1003 -0.1092 -0.0525
20437OCT     C140873  12.957   6.901   2.285 -0.2852  0.3193 -0.1079
20437OCT     C240874  13.331   6.774   2.168  0.5936 -0.3119  0.3670
20438OCT     C140875  10.190  10.091  17.937 -0.2473  0.0291  0.3951
20438OCT     C240876   9.753  10.255  17.756  0.2008  0.0490 -0.2181
20439OCT     C140877  10.580   6.613  21.132 -0.1269 -0.1246  0.1409
20439OCT     C240878  10.452   6.158  21.115  0.1544  0.0703 -0.3443
20440OCT     C140879   6.618   1.757  11.549  0.0087  0.1379 -0.1855
20440OCT     C240880   6.255   1.696  11.794  0.2770  0.2088 -0.0738
20441OCT     C140881   7.512  14.586  15.662 -0.0914  0.2280 -0.1111
20441OCT     C240882   7.436  14.568  16.133  0.1382 -0.3074  0.0192
20442OCT     C140883  16.487  17.063  17.491 -0.0931  0.1883 -0.5579
20442OCT     C240884  16.037  17.113  17.654  0.0527  0.1433 -0.0566
20443OCT     C140885   1.602   4.085  11.241 -0.1443  0.0163 -0.1898
20443OCT     C240886   1.200   3.859  11.190  0.1707 -0.2072  0.1383
20444OCT     C140887   4.658  19.835  15.323 -0.4064 -0.1743  0.3372
20444OCT     C240888   4.261  20.144  15.447 -0.1480 -0.1841  0.1802
20445OCT     C140889  20.472  11.305  15.283 -0.0577 -0.0229 -0.0531
20445OCT     C240890  20.088  11.661  15.391  0.0945  0.0001  0.0950
20446OCT     C140891  13.123   4.969  19.499  0.1065  0.0349  0.3018
20446OCT     C240892  12.781   4.880  19.848  0.0311  0.2013  0.0159
20447OCT     C140893   2.439  13.256  18.366 -0.4436 -0.0284 -0.2650
20447OCT     C240894   2.649  13.159  17.981 -0.0911 -0.1196  0.3718
20448OCT     C140895  18.552  12.585  11.258 -0.3440  0.1313 -0.0465
20448OCT     C240896  18.847  12.409  10.950 -0.0106 -0.3630 -0.3078
20449OCT     C140897  12.704  18.527  21.788 -0.3117 -0.0768  0.0993
20449OCT     C240898  13.165  18.688  21.896  0.0272  0.1358 -0.0704
20450OCT     C140899   8.664  23.664  12.192  0.0714 -0.0363 -0.1116
20450OCT     C240900   8.739  23.550  12.617  0.3664  0.0987 -0.0445
20451OCT     C140901   2.150   6.636   1.416 -0.2053  0.0570 -0.4489
20451OCT     C240902   1.820   6.901   1.291 -0.0942  0.0442 -0.0608
20452OCT     C140903   6.123  15.853  10.005 -0.0026  0.1674 -0.3925
20452OCT     C240904   6.472  15.552  10.249  0.1712 -0.0002  0.1578
20453OCT     C140905  10.349  10.771  14.402 -0.1622 -0.0318  0.1501
20453OCT     C240906  10.068  10.371  14.407  0.1164 -0.1382  0.2698
20454OCT     C140907  15.306  14.604  20.454  0.3435  0.5704 -0.0175
20454OCT     C240908  15.372  14.679  20.012 -0.0244 -0.0841 -0.1148
20455OCT     C140909  18.564  23.682   0.651 -0.2914 -0.0280  0.0567
20455OCT     C240910  18.188  23.393   0.697  0.1725 -0.0343 -0.6408
20456OCT     C140911   2.434   0.881   0.895 -0.0224  0.0210  0.2328
20456OCT     C240912   2.316   1.277   1.174  0.2955 -0.0779 -0.1546
20457OCT     C140913  14.854   4.534  15.481 -0.2102 -0.2395  0.0895
20457OCT     C240914  15.212   4.882  15.560  0.0184  0.0039  0.0561
20458OCT     C140915  16.337  23.541  14.462 -0.1929 -0.0125  0.0474
20458OCT     C240916  15.914  23.722  14.550 -0.2095 -0.2272 -0.0236
20459OCT     C140917   5.437  19.041   1.549 -0.1836  0.0825  0.0179
20459OCT     C240918   5.691  18.690   1.663 -0.0399  0.2280  0.2010
20460OCT     C140919  10.301   8.362   9.755 -0.2341 -0.1290 -0.5670
20460OCT     C240920  10.462   8.073  10.050  0.1942  0.0340  0.0360
20461OCT     C140921   5.687  23.364  18.296  0.2068 -0.3896 -0.2289
20461OCT     C240922   6.140  23.537  18.204 -0.1265 -0.2261 -0.4642
20462OCT     C140923  12.929   6.392   3.684 -0.1148  0.1794  0.2107
20462OCT     C240924  12.746   6.486   3.205  0.2672 -0.1889 -0.2388
20463OCT     C140925  22.123  23.177   0.636 -0.0316  0.1655 -0.2094
20463OCT     C240926  22.555  23.080   0.540 -0.1897  0.1427  0.0230
20464OCT     C140927   9.109  15.963  20.392 -0.4139  0.0266 -0.1669
20464OCT     C240928   9.318  15.651  20.708 -0.0668  0.0270 -0.3754
20465OCT     C140929   8.283  16.681  19.841  0.3522 -0.0612  0.2382
20465OCT     C240930   7.888  16.777  19.583 -0.1820  0.2245 -0.0947
20466OCT     C140931   8.649  11.364   6.976  0.0245  0.1984 -0.0951
20466OCT     C240932   8.418  11.645   7.317  0.2540 -0.0865 -0.0174
20467OCT     C140933   9.621   5.719  21.235  0.0172  0.0806 -0.3506
20467OCT     C240934   9.240   5.505  21.176  0.0064 -0.2106 -0.1351
20468OCT     C140935   7.223   7.694   3.341 -0.1772 -0.0470 -0.3074
20468OCT     C240936   6.876   7.565   3.605 -0.1095  0.1945  0.2029
20469OCT     C140937  23.206   4.908  21.413 -0.3569  0.2615  0.1627
20469OCT     C240938  22.881   4.631  21.626 -0.0289 -0.5352 -0.1743
20470OCT     C140939  10.398  11.119  11.257  0.1235  0.1280 -0.1916
20470OCT     C240940  10.660  11.513  11.307  0.0633 -0.4394 -0.1090
20471OCT     C140941  22.789  11.541  19.965  0.0030 -0.0498 -0.0538
20471OCT     C240942  22.944  11.088  20.111 -0.0291  0.0632 -0.1643
20472OCT     C140943  21.739  10.912   5.505  0.0484 -0.2035  0.1157
20472OCT     C240944  21.326  10.689   5.547  0.1276 -0.1334 -0.5063
20473OCT     C140945  19.093   3.134  11.855 -0.1198  0.0013  0.0553
20473OCT     C240946  18.962   3.591  11.917  0.0694 -0.1415 -0.1245
20474OCT     C140947  16.619   8.117   2.089 -0.2394  0.1973  0.2880
20474OCT     C240948  16.264   7.887   2.317 -0.3354 -0.3329 -0.0237
20475OCT     C140949   4.877   0.454  22.189  0.2417  0.4355  0.3491
20475OCT     C240950   5.074   0.246  21.826 -0.1540 -0.0241  0.2223
20476OCT     C140951  19.708  11.379  16.970  0.1371  0.0824 -0.4068
20476OCT     C240952  19.439  11.288  16.616  0.1290  0.3067 -0.3909
20477OCT     C140953  13.805  19.941  10.349  0.0149  0.1179 -0.0882
20477OCT     C240954  14.167  19.638  10.547 -0.3094 -0.3991  0.0223
20478OCT     C140955  10.968  21.676  23.560  0.0685 -0.1299  0.0191
20478OCT     C240956  10.820  22.035  23.376 -0.2534  0.0282  0.1812
20479OCT     C140957  15.355  20.542   3.998  0.1998  0.0576 -0.2475
20479OCT     C240958  15.093  20.832   3.673 -0.1319  0.0351 -0.0542
20480OCT     C140959  18.414  21.872  23.132  0.2789 -0.0404 -0.2848
20480OCT     C240960  18.637  21.496  22.824 -0.0843 -0.0807  0.3355
20481OCT     C140961  22.773  14.521   2.575  0.0238 -0.2691 -0.2598
20481OCT     C240962  22.559  14.524   2.139 -0.3468  0.1117  0.2852
20482OCT     C140963  22.407  17.359  23.564 -0.2050  0.4884  0.3289
20482OCT     C240964  22.608  17.725  23.559 -0.0161  0.2038 -0.0841
20483OCT     C140965   8.056   9.992  17.660 -0.0611 -0.0786  0.0360
20483OCT     C240966   8.005  10.251  17.281 -0.3376 -0.2718  0.2480
20484OCT     C140967  20.599   1.778  17.986  0.0580  0.1789  0.1873
20484OCT     C240968  20.233   1.761  18.167  0.0392 -0.1123 -0.0341
20485OCT     C140969  19.850  17.732   8.326  0.2507  0.1111 -0.3037
20485OCT     C240970  19.725  17.823   7.881 -0.2528 -0.0601 -0.0574
20486OCT     C140971  20.724  15.608  11.315  0.0225 -0.0274  0.3255
20486OCT     C240972  20.436  16.002  11.262 -0.2159  0.0702  0.1863
20487OCT     C140973   2.121  15.424  20.730  0.0403  0.1926 -0.3118
20487OCT     C240974   2.502  15.714  20.675 -0.3269  0.1044 -0.1088
20488OCT     C140975  20.768  10.992  15.590 -0.3925 -0.1752  0.1840
20488OCT     C240976  20.609  10.549  15.559  0.1007  0.2017 -0.1480
20489OCT     C140977  22.704  14.652  22.332 -0.2109  0.4288  0.1486
20489OCT     C240978  22.427  14.381  22.493  0.2766 -0.0284 -0.1495
20490OCT     C140979   5.079   9.037   7.470  0.0124 -0.3561 -0.0487
20490OCT     C240980   5.422   9.344   7.551 -0.2535 -0.4114  0.2601
20491OCT     C140981  19.337  12.343  18.728  0.1272 -0.0312  0.1437
20491OCT     C240982  19.204  11.934  18.560  0.0672 -0.0060 -0.0919
20492OCT     C140983  12.142   1.760  22.806 -0.0279  0.3859 -0.1646
20492OCT     C240984  12.341   2.080  22.595  0.3355 -0.1423  0.0287
20493OCT     C140985   1.055  13.651  23.497  0.2097  0.1179  0.0126
20493OCT     C240986   1.239  13.672  23.067  0.1889 -0.0305 -0.4455
20494OCT     C140987  13.939  22.234   7.609  0.0612 -0.1020  0.0883
20494OCT     C240988  13.569  21.917   7.558  0.3362  0.3345  0.4583
20495OCT     C140989  11.647  14.182  23.714  0.0817 -0.0499  0.4386
20495OCT     C240990  11.854  14.632  23.649  0.4069  0.0332  0.0417
20496OCT     C140991   2.208   4.540   7.607  0.0628  0.4736  0.1802
20496OCT     C240992   1.860   4.552   7.222  0.3592  0.0565  0.0665
20497OCT     C140993  21.360   3.280   3.338  0.0059  0.0535  0.1722
20497OCT     C240994  21.258   2.859   3.434 -0.0236 -0.4367 -0.0664
20498OCT     C140995  22.567   9.576  12.995 -0.2955 -0.0574  0.4172
20498OCT     C240996  22.302   9.288  12.721  0.1389  0.0682 -0.2199
20499OCT     C140997   3.537   5.098  10.327 -0.2260 -0.0401 -0.3529
20499OCT     C240998   3.399   5.368   9.998 -0.1175 -0.4193  0.0137
20500OCT     C140999   5.771  16.699   5.362 -0.1426  0.1209  0.0401
20500OCT     C241000   5.542  17.091   5.440 -0.2348 -0.1581 -0.0007
20501OCT     C141001   4.058   0.077   0.553  0.0357 -0.4234  0.0827
20501OCT     C241002   3.953  23.454   0.888  0.0805  0.2545 -0.2692
20502OCT     C141003   8.252   9.434  16.745 -0.6378  0.1761 -0.5341
20502OCT     C241004   7.883   9.684  16.662  0.1038  0.1884 -0.0434
20503OCT     C141005  16.278  12.240  22.017  0.1421  0.0661  0.0852
20503OCT     C241006  16.698  12.473  22.002 -0.2456  0.0881 -0.0209
20504OCT     C141007  14.365   9.978  23.077  0.0644 -0.2767 -0.0601
20504OCT     C241008  14.315   9.523  23.231 -0.2806  0.0277 -0.0880
20505OCT     C141009   9.126   9.231  21.906 -0.2350 -0.0696 -0.2348
20505OCT     C241010   9.114   9.037  22.328  0.2113 -0.1943  0.2055
20506OCT     C141011   1.093   5.534   7.120 -0.0024 -0.1141  0.1416
20506OCT     C241012   0.612   5.576   7.180 -0.0635 -0.0827  0.0522
20507OCT     C141013   9.386  21.458   1.916  0.2003  0.0039 -0.1807
20507OCT     C241014   9.215  21.012   2.053  0.3184  0.1364 -0.1223
20508OCT     C141015   9.811  15.347   9.172 -0.1629  0.2342 -0.1042
20508OCT     C241016  10.098  15.496   8.893 -0.1947  0.0448 -0.0694
20509OCT     C141017  13.814  18.576  17.523 -0.0567 -0.1210  0.4266
20509OCT     C241018  13.809  18.632  18.018 -0.1939  0.2110 -0.1202
20510OCT     C141019   6.902   1.878  15.683 -0.2466 -0.0882  0.0657
20510OCT     C241020   7.057   1.632  15.329  0.1638 -0.2228 -0.1709
20511OCT     C141021   1.883   9.066  18.015 -0.1634 -0.1154 -0.0710
20511OCT     C241022   1.713   9.095  17.597 -0.0948  0.0712  0.0150
20512OCT     C141023  19.158   7.488  19.947  0.0493  0.0208  0.2398
20512OCT     C241024  18.986   7.539  20.389  0.0043 -0.0441  0.1801
20513OCT     C141025   8.830   0.783  14.203  0.2230 -0.1226 -0.2941
20513OCT     C241026   8.972   0.940  14.604  0.0737 -0.2469  0.0613
20514OCT     C141027   0.183   3.703   2.960 -0.1780 -0.2017  0.0461
20514OCT     C241028  23.729   3.901   3.334 -0.2274  0.2023 -0.0886
20515OCT     C141029   6.054   0.383   3.752 -0.2386  0.1553  0.1232
20515OCT     C241030   5.914   0.147   4.122 -0.0339 -0.2073  0.1854
20516OCT     C141031  13.290  23.017   6.099 -0.2056 -0.1096  0.0117
20516OCT     C241032  13.064  22.726   6.436  0.0827 -0.2366 -0.0017
20517OCT     C141033  15.644   1.501  13.716 -0.2094 -0.1013  0.0108
20517OCT     C241034  15.524   1.437  14.180 -0.1922 -0.0385 -0.1342
20518OCT     C141035  10.833  20.086  19.781 -0.0067  0.2083  0.3976
20518OCT     C241036  10.990  19.684  19.673 -0.1662  0.1378  0.3354
20519OCT     C141037   5.402   0.308  20.197  0.2512  0.0601  0.1729
20519OCT     C241038   5.658   0.457  19.825  0.2553 -0.1623  0.2434
20520OCT     C141039  11.387   6.747   9.303 -0.1691 -0.0365  0.2328
20520OCT     C241040  10.997   6.598   9.100  0.2345 -0.1378 -0.2625
20521OCT     C141041   9.876  21.414  21.264 -0.2409 -0.3046  0.1054
20521OCT     C241042   9.740  20.974  21.167 -0.2796  0.0030  0.2337
20522OCT     C141043  15.983  22.946   2.779  0.3747  0.1586  0.2139
20522OCT     C241044  15.506  22.914   2.720  0.0130 -0.0833 -0.1696
20523OCT     C141045   6.591  18.118   8.724  0.1221  0.0160 -0.0521
20523OCT     C241046   7.072  18.005   8.719  0.0084 -0.4410 -0.2721
20524OCT     C141047   1.179  22.649  16.047  0.2591  0.6076 -0.3690
20524OCT     C241048   0.747  22.415  15.954 -0.3463  0.0623 -0.3699
20525OCT     C141049   6.363   0.162  10.847 -0.2857 -0.1203  0.2255
20525OCT     C241050   6.490  23.563  11.148  0.0914  0.0676  0.3329
20526OCT     C141051  21.524   3.757  19.107  0.1030 -0.0745 -0.0683
20526OCT     C241052  21.402   3.756  18.633  0.5325  0.3802 -0.1920
20527OCT     C141053  21.672   2.419  12.111  0.0128  0.1772  0.1779
20527OCT     C241054  22.169   2.367  12.269  0.1557 -0.0254  0.0145
20528OCT     C141055   3.477   9.445  13.020 -0.1376 -0.0886  0.1240
20528OCT     C241056   3.320   9.884  13.012  0.1411  0.2093 -0.0811
20529OCT     C141057  11.779   4.670  17.279 -0.2060  0.3043  0.0137
20529OCT     C241058  11.346   4.608  17.070  0.0030  0.1699 -0.2736
20530OCT     C141059  15.300  17.005  17.362  0.0727 -0.1747 -0.2891
20530OCT     C241060  15.632  16.707  17.545 -0.0605  0.2009  0.3143
20531OCT     C141061   4.286  18.529  16.872  0.0873  0.3215  0.0723
20531OCT     C241062   3.977  18.803  16.677  0.2340  0.1069  0.1206
20532OCT     C141063   7.015  15.604  18.969 -0.1677 -0.0551  0.0488
20532OCT     C241064   7.012  16.030  18.790  0.1233  0.1154  0.0536
20533OCT     C141065  20.754  17.399   7.455  0.0794  0.5766 -0.4011
20533OCT     C241066  20.744  17.088   7.101  0.0448 -0.1564  0.1464
20534OCT     C141067   0.395  17.590   4.340  0.0550 -0.0708  0.3235
20534OCT     C241068   0.783  17.623   4.654  0.1954  0.4892  0.2223
20535OCT     C141069  23.056   6.641   7.069  0.0893  0.2226  0.2307
20535OCT     C241070  23.063   7.101   7.217 -0.2245  0.1796 -0.0728
20536OCT     C141071  22.992  12.182   9.370 -0.1352  0.0650 -0.0069
20536OCT     C241072  23.214  11.836   9.701  0.1793 -0.1763  0.0782
20537OCT     C141073   3.734   5.596  12.653  0.0456  0.0240 -0.1364
20537OCT     C241074   4.127   5.622  12.888 -0.1590 -0.2334 -0.1416
20538OCT     C141075   8.841  16.750   4.306 -0.2174  0.1006 -0.0857
20538OCT     C241076   9.272  16.552   4.261  0.3579 -0.1620  0.3234
20539OCT     C141077  16.439   7.294   6.185 -0.1065  0.1789  0.1659
20539OCT     C241078  16.228   6.982   6.344 -0.1590 -0.0773 -0.1149
20540OCT     C141079   4.135  10.920   7.709 -0.2735  0.1566  0.1253
20540OCT     C241080   4.443  10.698   7.523  0.0688  0.2300 -0.0514
20541OCT     C141081   3.152  13.119  13.869 -0.1044  0.0569 -0.1588
20541OCT     C241082   3.402  13.506  13.888  0.0967  0.2142 -0.3081
20542OCT     C141083  11.290  15.921   9.783  0.1199 -0.5160 -0.1466
20542OCT     C241084  11.382  16.173  10.193  0.0441  0.3190  0.4417
20543OCT     C141085   3.984  10.354   6.776 -0.2880  0.2774 -0.0024
20543OCT     C241086   3.820  10.007   6.514  0.1376  0.3542  0.0753
20544OCT     C141087  15.625  11.201   9.638  0.0366  0.4582 -0.0871
20544OCT     C241088  15.949  11.519   9.682 -0.1044 -0.0496  0.1589
20545OCT     C141089   9.760   0.443  23.173  0.0260 -0.7073  0.3055
20545OCT     C241090  10.074   0.524  22.851 -0.1881 -0.1797  0.1503
20546OCT     C141091   0.982   4.445  20.344  0.1185  0.0223  0.0549
20546OCT     C241092   1.023   4.749  19.984  0.2236  0.7895  0.3637
20547OCT     C141093   4.371  16.447  13.698 -0.1717 -0.0970 -0.2213
20547OCT     C241094   4.651  16.722  13.912 -0.4264  0.0868 -0.0870
20548OCT     C141095  18.639  19.368   5.824  0.0612 -0.0337  0.4869
20548OCT     C241096  18.990  19.457   6.125  0.0967 -0.1592 -0.1791
20549OCT     C141097   4.338   8.316   3.768 -0.0031  0.0564 -0.0392
20549OCT     C241098   4.253   8.705   3.506 -0.2952 -0.0046  0.0679
20550OCT     C141099  17.958   4.147  15.856  0.1985  0.3021  0.2356
20550OCT     C241100  17.737   3.752  16.077 -0.2384 -0.2670 -0.1383
20551OCT     C141101   4.898  18.685   4.068 -0.0221  0.3831  0.0458
20551OCT     C241102   4.958  18.906   4.404  0.0352 -0.1245 -0.0279
20552OCT     C141103  11.520  10.310   8.699 -0.1497  0.2400  0.0470
20552OCT     C241104  11.955  10.381   8.782 -0.1610  0.4582  0.0733
20553OCT     C141105  23.442   6.299  15.164  0.0423 -0.3731  0.2386
20553OCT     C241106   0.133   6.131  15.098  0.0344 -0.0638 -0.1196
20554OCT     C141107  16.996  23.066   4.575  0.0726  0.2936 -0.1272
20554OCT     C241108  16.627  22.788   4.677 -0.1173  0.1597  0.3210
20555OCT     C141109   5.069  17.529  10.971 -0.1057 -0.1059  0.1381
20555OCT     C241110   4.628  17.731  11.025  0.1079 -0.1767  0.2592
20556OCT     C141111  10.958  21.212   6.459 -0.0993  0.0647  0.0284
20556OCT     C241112  10.758  20.814   6.437 -0.2368  0.1895  0.1334
20557OCT     C141113  21.446  12.895  11.763  0.1683  0.0076  0.0542
20557OCT     C241114  21.179  13.266  11.683 -0.1150  0.0366  0.0931
20558OCT     C141115  22.665  22.531  21.427 -0.3769  0.0893  0.3001
20558OCT     C241116  22.834  22.814  21.103  0.2379 -0.2915 -0.1571
20559OCT     C141117  16.205  20.839   8.521 -0.0322  0.2439  0.3164
20559OCT     C241118  16.391  21.251   8.592  0.1704 -0.6134 -0.0937
20560OCT     C141119  15.952  23.390   4.378  0.1651  0.1051  0.4483
20560OCT     C241120  16.282  23.595   4.623  0.0813  0.1760 -0.1785
20561OCT     C141121  10.675   0.751  21.352  0.0654 -0.3380 -0.4023
20561OCT     C241122  10.193   0.847  21.364 -0.2071  0.0278  0.2217
20562OCT     C141123  19.740   7.618   0.567 -0.1880  0.0943 -0.0736
20562OCT     C241124  19.774   7.793   0.176  0.2340 -0.2214  0.1290
20563OCT     C141125   8.139   8.565   3.617  0.0485 -0.1122 -0.1203
20563OCT     C241126   7.929   8.423   3.264  0.3003 -0.0292 -0.0532
20564OCT     C141127  18.909  18.575  12.366 -0.4408 -0.0491 -0.2558
20564OCT     C241128  18.852  18.842  12.725  0.0743 -0.1004 -0.2288
20565OCT     C141129   1.602   2.328  12.017  0.0857 -0.1803  0.0411
20565OCT     C241130   1.599   1.980  12.291 -0.2209  0.0368 -0.1236
20566OCT     C141131   1.144   4.491   7.169 -0.0787 -0.2112  0.1117
20566OCT     C241132   1.461   4.843   7.145  0.0754  0.4297 -0.3379
20567OCT     C141133   8.233   1.594   5.712 -0.1830 -0.0305 -0.0509
20567OCT     C241134   7.856   1.357   5.622  0.1991  0.2721 -0.0774
20568OCT     C141135  10.784  10.724  22.001 -0.4575  0.0184 -0.1111
20568OCT     C241136  11.065  10.390  21.787  0.1269 -0.2873 -0.0359
20569OCT     C141137  23.385   0.812   8.465 -0.2258  0.0439 -0.0160
20569OCT     C241138  23.064   1.121   8.504  0.1920 -0.2587  0.0372
20570OCT     C141139   9.766  18.821  11.343 -0.2057  0.0271  0.0941
20570OCT     C241140   9.388  18.887  11.535 -0.3246  0.2673 -0.1525
20571OCT     C141141  20.438  14.674   6.625 -0.2896  0.2444  0.0794
20571OCT     C241142  20.388  14.827   6.183 -0.1190 -0.2313 -0.0065
20572OCT     C141143   3.255   1.907  20.591 -0.5653 -0.0231  0.2410
20572OCT     C241144   3.520   1.977  20.974 -0.5134  0.0239  0.2717
20573OCT     C141145  15.558  21.103  11.143 -0.0573  0.0531 -0.1071
20573OCT     C241146  15.283  20.739  11.240 -0.3107  0.3189  0.1662
20574OCT     C141147   4.986  17.416   6.463 -0.1664  0.4364  0.2128
20574OCT     C241148   5.445  17.508   6.485  0.1747  0.2456 -0.1576
20575OCT     C141149  19.834   3.688  20.354  0.0017 -0.1939  0.0896
20575OCT     C241150  20.135   3.617  20.662 -0.2398  0.0617  0.0181
20576OCT     C141151  11.850   0.288   5.293  0.0219  0.3855 -0.2121
20576OCT     C241152  12.105   0.478   5.643 -0.1888 -0.5673  0.1144
20577OCT     C141153  18.282   8.745  19.791  0.6779 -0.0060  0.1938
20577OCT     C241154  17.900   8.888  19.566 -0.0342  0.1961  0.5457
20578OCT     C141155   2.849   5.678  18.653 -0.4682  0.2750  0.0242
20578OCT     C241156   2.874   5.232  18.771  0.1712  0.0090 -0.3372
20579OCT     C141157   6.316  16.947   1.811 -0.4045  0.0313 -0.1158
20579OCT     C241158   6.395  16.632   2.091  0.3188  0.0961 -0.0487
20580OCT     C141159  16.239  12.661  16.235 -0.0902  0.1222 -0.1566
20580OCT     C241160  16.641  12.876  16.444 -0.3275  0.1388 -0.1254
20581OCT     C141161  20.302   2.334   6.357  0.1751 -0.0311 -0.0944
20581OCT     C241162  19.911   2.531   6.589 -0.2643 -0.1579 -0.1309
20582OCT     C141163   7.752   9.467  14.957 -0.0396  0.1698 -0.0643
20582OCT     C241164   7.407   9.217  14.832  0.1645  0.0710  0.1254
20583OCT     C141165  22.189  17.213  13.525 -0.0563 -0.2478  0.1616
20583OCT     C241166  21.865  17.554  13.530  0.0184  0.6085 -0.2159
20584OCT     C141167  23.696  15.074  22.405  0.1614 -0.3141 -0.5717
20584OCT     C241168   0.247  14.896  22.732  0.0030 -0.1856 -0.1821
20585OCT     C141169  14.242  12.456  16.204  0.1762 -0.0338  0.3799
20585OCT     C241170  14.574  12.720  16.077 -0.3105 -0.0812 -0.1465
20586OCT     C141171   2.551  16.937   5.063  0.0029 -0.3203  0.0140
20586OCT     C241172   2.682  16.509   5.141  0.5271  0.0300  0.0376
20587OCT     C141173  15.797   8.068  19.347 -0.3471 -0.0466  0.2277
20587OCT     C241174  15.351   8.047  19.470  0.1928  0.0686 -0.3776
20588OCT     C141175   8.953   5.018  11.966  0.2746  0.0707 -0.0589
20588OCT     C241176   9.275   4.941  11.646  0.1434 -0.0833 -0.3261
20589OCT     C141177   8.748  20.119  23.440  0.4029 -0.0397 -0.4745
20589OCT     C241178   8.341  20.276  23.661  0.0171  0.2134 -0.1200
20590OCT     C141179   1.239  16.165  15.409  0.0144 -0.0676 -0.0296
20590OCT     C241180   1.628  15.906  15.551  0.1862  0.0479  0.2240
20591OCT     C141181   9.492  14.854   8.630  0.0936  0.1353  0.1494
20591OCT     C241182   9.048  14.987   8.710  0.1070  0.0762  0.5969
20592OCT     C141183  15.270  13.546  18.675 -0.3943 -0.0394 -0.1396
20592OCT     C241184  15.394  13.132  18.508 -0.0086  0.0682 -0.2987
20593OCT     C141185  23.237   4.237  22.136  0.0112  0.2996  0.2309
20593OCT     C241186  23.548   3.919  22.509  0.3119 -0.0435  0.1798
20594OCT     C141187   6.865  16.518  20.064 -0.0305 -0.0856 -0.6227
20594OCT     C241188   6.936  16.691  19.603  0.0277  0.3524 -0.2819
20595OCT     C141189   0.995  20.337  19.549  0.2906  0.1512 -0.0918
20595OCT     C241190   0.642  20.549  19.273  0.1628 -0.0165  0.2013
20596OCT     C141191   9.142   2.490  18.072  0.4192  0.0033 -0.1828
20596OCT     C241192   9.489   2.478  18.375 -0.0905  0.1236 -0.1594
20597OCT     C141193   5.470  19.107  12.903 -0.1335  0.1100  0.0809
20597OCT     C241194   5.410  18.697  12.759 -0.0207 -0.1068  0.1410
20598OCT     C141195  15.834   9.518   2.265 -0.1447 -0.0200  0.0374
20598OCT     C241196  16.182   9.348   2.534  0.2203  0.2464 -0.0413
20599OCT     C141197   3.516   8.162  15.810 -0.0744  0.2094  0.4815
20599OCT     C241198   3.925   7.896  15.812  0.5231  0.3714 -0.3603
20600OCT     C141199  16.167  20.301  18.113  0.2582 -0.1748  0.2140
20600OCT     C241200  16.300  20.747  17.981 -0.0041  0.0825  0.2537
20601OCT     C141201  15.303  21.469   6.252 -0.2506  0.1672 -0.1317
20601OCT     C241202  15.392  20.995   6.310  0.0949 -0.1428  0.1559
20602OCT     C141203  15.197  20.516  11.889  0.3299  0.1276  0.1038
20602OCT     C241204  15.097  20.675  12.319 -0.2086  0.3463 -0.0504
20603OCT     C141205   3.057  12.529  15.312 -0.0124  0.2888  0.0355
20603OCT     C241206   2.828  12.123  15.373 -0.0411  0.4253 -0.2415
20604OCT     C141207  23.373  15.373  14.825  0.1577 -0.0410 -0.1551
20604OCT     C241208  23.612  15.581  15.200  0.1096 -0.2478  0.2381
20605OCT     C141209  13.824   8.320  22.148  0.0805 -0.0196 -0.1572
20605OCT     C241210  13.836   8.717  22.411 -0.0053 -0.0909  0.1354
20606OCT     C141211  11.888  19.848   2.205 -0.3743 -0.3725 -0.1598
20606OCT     C241212  11.687  20.094   2.557 -0.0216  0.0461 -0.0284
20607OCT     C141213  19.922   3.902  18.894 -0.1554  0.0171  0.1489
20607OCT     C241214  20.244   3.582  18.818 -0.1092  0.2759 -0.1760
20608OCT     C141215  10.338  17.084   5.852  0.3218 -0.1593 -0.2619
20608OCT     C241216  10.787  16.901   5.827  0.1130 -0.0462  0.5183
20609OCT     C141217  12.091   3.041   4.073 -0.0415  0.0049  0.0628
20609OCT     C241218  11.888   3.345   3.783  0.3455  0.0304  0.3309
20610OCT     C141219  14.064   6.781   5.070 -0.0600 -0.0727 -0.0593
20610OCT     C241220  14.173   6.739   5.548  0.3589 -0.0929 -0.2591
20611OCT     C141221  21.629   3.998   0.978  0.0199  0.2016 -0.4290
20611OCT     C241222  21.189   4.234   1.074 -0.1741 -0.3307 -0.0490
20612OCT     C141223  11.253   9.130  11.117 -0.1260  0.1269  0.0076
20612OCT     C241224  11.244   9.623  11.292  0.0405  0.1785  0.0174
20613OCT     C141225  21.899   2.201  12.644  0.0651 -0.0551 -0.1973
20613OCT     C241226  22.044   2.288  13.047  0.1437  0.0612 -0.5366
20614OCT     C141227  11.551  13.508   4.077  0.3495  0.1667  0.1829
20614OCT     C241228  11.898  13.655   4.315  0.4077  0.0460 -0.2156
20615OCT     C141229  17.615   7.666  10.855 -0.5476 -0.0878  0.1228
20615OCT     C241230  17.223   7.428  10.940 -0.1384  0.2162 -0.0013
20616OCT     C141231  19.385  11.009  18.939  0.0369 -0.1101 -0.1151
20616OCT     C241232  18.931  11.034  18.942 -0.1378 -0.1029 -0.1477
20617OCT     C141233   6.572   1.688  12.212 -0.1467 -0.2578  0.2424
20617OCT     C241234   6.659   1.279  12.012 -0.2760  0.2024  0.0708
20618OCT     C141235   9.620  13.507  16.895 -0.1447 -0.3027  0.3842
20618OCT     C241236   9.253  13.511  16.574 -0.1968 -0.0211 -0.1259
20619OCT     C141237  21.859  17.790   7.155  0.3619  0.1350 -0.0857
20619OCT     C241238  21.858  18.124   6.815 -0.3059  0.2260  0.1683
20620OCT     C141239   8.962   5.878  23.090 -0.3610 -0.4890  0.0186
20620OCT     C241240   9.060   5.780  22.630 -0.0590 -0.1465  0.1349
20621OCT     C141241  18.382  20.779   7.221 -0.0426 -0.1693 -0.2484
20621OCT     C241242  18.578  20.895   6.842  0.3297 -0.3940 -0.0524
20622OCT     C141243  23.015  12.442   0.110 -0.1126 -0.0843 -0.3073
20622OCT     C241244  22.763  12.809   0.228  0.3267 -0.1350  0.1642
20623OCT     C141245  10.688  14.467   2.547 -0.3153 -0.5214 -0.4168
20623OCT     C241246  11.107  14.221   2.733 -0.1833 -0.0122  0.3670
20624OCT     C141247   0.187   3.744   2.469  0.0520  0.0082  0.0368
20624OCT     C241248   0.223   3.364   2.226 -0.0613 -0.1330 -0.0254
20625OCT     C141249   9.364  10.807  17.623  0.0930 -0.1340  0.0687
20625OCT     C241250   9.078  11.030  17.334 -0.0495 -0.2475  0.0719
20626OCT     C141251  11.578  20.128  12.541  0.1171 -0.0960 -0.1126
20626OCT     C241252  11.477  20.405  12.148  0.0975  0.0938 -0.3691
20627OCT     C141253  22.655   1.595  17.428  0.1334 -0.1696  0.5670
20627OCT     C241254  22.342   1.336  17.187  0.1223  0.0289  0.5173
20628OCT     C141255   5.281   1.788  17.885 -0.0340  0.0922  0.0174
20628OCT     C241256   5.241   1.370  18.047  0.0767 -0.2080  0.0296
20629OCT     C141257  18.460  13.638  20.320 -0.5619  0.4190 -0.0290
20629OCT     C241258  18.150  13.699  19.939  0.0004 -0.5568  0.2587
20630OCT     C141259  23.543   0.558   6.021 -0.0990  0.2499  0.2618
20630OCT     C241260  23.285   0.720   6.382 -0.0845 -0.2052  0.2187
20631OCT     C141261   9.223  15.234  11.886 -0.2433  0.0730 -0.0340
20631OCT     C241262   8.852  15.007  12.117 -0.2898  0.0234  0.4224
20632OCT     C141263  21.721  23.593  13.911  0.0677 -0.1248 -0.1016
20632OCT     C241264  21.793  23.430  14.360 -0.0394  0.1204  0.1300
20633OCT     C141265  22.620  14.979  14.580  0.0506 -0.3415  0.7175
20633OCT     C241266  22.515  14.976  15.029 -0.2432 -0.0848  0.0153
20634OCT     C141267  17.970   1.375  10.134 -0.0294  0.2046  0.0491
20634OCT     C241268  17.941   0.893  10.116  0.5177  0.5071  0.2916
20635OCT     C141269   1.901  10.040  22.447 -0.1170  0.1047 -0.2155
20635OCT     C241270   2.116  10.398  22.313 -0.2478  0.0544  0.3127
20636OCT     C141271   9.935   7.078  10.630  0.0440 -0.1964 -0.2823
20636OCT     C241272  10.245   7.121  10.281  0.4115  0.1682 -0.0785
20637OCT     C141273  19.904   6.836   0.918  0.2855 -0.0923  0.2484
20637OCT     C241274  19.598   6.837   1.269  0.2266  0.0536  0.0724
20638OCT     C141275  20.278  10.333  19.615  0.1261  0.0881  0.0719
20638OCT     C241276  20.362  10.637  19.951 -0.0676 -0.4525  0.0635
20639OCT     C141277   0.714  14.716   9.024 -0.0227 -0.3369  0.0261
20639OCT     C241278   0.619  14.819   8.589 -0.2698  0.1549 -0.4153
20640OCT     C141279  21.374  19.674  18.134 -0.0395  0.2304  0.1854
20640OCT     C241280  21.390  19.373  18.469 -0.0364 -0.0390 -0.2020
20641OCT     C141281   6.407   1.177  11.598 -0.2346  0.0895 -0.0086
20641OCT     C241282   6.869   1.224  11.573 -0.0436 -0.2594  0.3651
20642OCT     C141283  14.442  23.504  11.574 -0.1093 -0.0670  0.3812
20642OCT     C241284  14.073  23.731  11.294  0.0740  0.0981 -0.0347
20643OCT     C141285  20.969  20.394  14.293 -0.1833 -0.5043 -0.1634
20643OCT     C241286  20.983  20.843  14.202 -0.3772  0.0055  0.3163
20644OCT     C141287   3.298   2.694  16.669  0.0094 -0.1335  0.6473
20644OCT     C241288   3.335   2.462  17.027 -0.2577  0.0416 -0.0931
20645OCT     C141289  16.826  18.820   6.140 -0.1986 -0.1578 -0.0990
20645OCT     C241290  16.527  18.937   5.831 -0.0638  0.0289 -0.3426
20646OCT     C141291  22.578  14.491   3.030 -0.0901  0.1036 -0.0082
20646OCT     C241292  22.359  14.152   3.258 -0.2399 -0.2483  0.2325
20647OCT     C141293  23.180   2.287   6.938  0.0427 -0.1170  0.0914
20647OCT     C241294  22.798   1.962   6.964 -0.5342  0.1612 -0.1666
20648OCT     C141295   2.208   4.817  11.096  0.2742  0.2975  0.3758
20648OCT     C241296   2.096   5.321  11.072 -0.0212  0.0727 -0.2591
20649OCT     C141297  16.698   6.636  15.183  0.2234  0.1712 -0.0688
20649OCT     C241298  16.619   6.856  14.772 -0.3475  0.1121 -0.3389
20650OCT     C141299  19.982   9.608  20.803 -0.2495 -0.0085  0.2171
20650OCT     C241300  20.025  10.011  20.761 -0.2143 -0.4064  0.2076
20651OCT     C141301  15.627  17.947   5.615 -0.1189  0.1965  0.1575
20651OCT     C241302  15.375  18.037   5.179 -0.2863 -0.1171  0.0882
20652OCT     C141303  12.308  10.208  16.399 -0.0921  0.2156 -0.0641
20652OCT     C241304  12.477   9.894  16.138 -0.0622 -0.0616 -0.0117
20653OCT     C141305   3.245   7.424  13.263 -0.1961 -0.2409 -0.4189
20653OCT     C241306   3.396   7.521  13.714  0.1851 -0.1455  0.0491
20654OCT     C141307  19.033  21.840  22.569  0.1598  0.0112 -0.2316
20654OCT     C241308  18.829  21.521  22.341  0.3809 -0.2416 -0.0199
20655OCT     C141309  13.749  16.764   1.509 -0.2031 -0.0521  0.3445
20655OCT     C241310  13.988  16.934   1.156  0.2432 -0.3361 -0.1217
20656OCT     C141311   5.732   2.976  19.734  0.2789  0.1338  0.2606
20656OCT     C241312   5.559   3.372  19.987  0.2452  0.0315  0.3344
20657OCT     C141313  19.225  22.063  16.579 -0.2039 -0.0700  0.1175
20657OCT     C241314  19.367  22.142  17.015  0.0023 -0.1732  0.0308
20658OCT     C141315  22.152  14.015  12.171  0.2243 -0.0670  0.1059
20658OCT     C241316  22.457  14.218  12.480  0.0933  0.2764  0.3840
20659OCT     C141317   8.006  10.713   7.572  0.2232 -0.4410 -0.0656
20659OCT     C241318   8.378  10.460   7.628 -0.2510  0.0853 -0.0300
20660OCT     C141319   7.865   6.098   5.470  0.1668  0.0676 -0.0821
20660OCT     C241320   7.501   6.217   5.780  0.2482 -0.2423  0.2997
20661OCT     C141321  14.135   7.804  20.369 -0.1271  0.0612 -0.0414
20661OCT     C241322  14.605   7.932  20.500  0.0649 -0.1511  0.2571
20662OCT     C141323   4.659  20.932   6.264  0.3188 -0.2575  0.1301
20662OCT     C241324   4.382  21.205   6.039  0.0470  0.0331 -0.3166
20663OCT     C141325  12.916  14.804   0.641  0.1988  0.0139 -0.1254
20663OCT     C241326  13.291  14.721   0.908 -0.3940 -0.2874  0.0805
20664OCT     C141327   0.388  20.735  11.529 -0.1225 -0.3422  0.0643
20664OCT     C241328   0.391  20.913  11.998  0.4274  0.0754 -0.5543
20665OCT     C141329  12.269  12.778  23.681 -0.3658 -0.1351 -0.2552
20665OCT     C241330  12.260  12.320  23.699 -0.2188 -0.0429 -0.3702
20666OCT     C141331   3.513   4.615   1.320 -0.4196 -0.1470 -0.1196
20666OCT     C241332   3.494   4.952   1.629 -0.0215  0.2004 -0.2373
20667OCT     C141333  22.891   6.426   6.607 -0.1489 -0.1589  0.1013
20667OCT     C241334  22.673   5.979   6.609 -0.1160  0.0788 -0.1793
20668OCT     C141335   4.833  22.203  21.801 -0.4716 -0.0291 -0.1051
20668OCT     C241336   4.391  22.052  21.922  0.0473  0.0043  0.2324
20669OCT     C141337   7.536  17.461  10.463  0.0970  0.0256 -0.0736
20669OCT     C241338   7.781  17.290  10.824 -0.2038 -0.3641 -0.0196
20670OCT     C141339  16.726   5.343  16.069 -0.1507 -0.1112 -0.2417
20670OCT     C241340  16.960   4.968  16.217  0.2938 -0.5517  0.4051
20671OCT     C141341   4.513   1.874   1.477  0.2898 -0.2774  0.2387
20671OCT     C241342   4.721   2.180   1.117 -0.1803 -0.0418  0.2901
20672OCT     C141343   9.123  23.229   3.959 -0.3808 -0.1341  0.3410
20672OCT     C241344   9.094  22.943   3.574  0.2133 -0.2625 -0.2301
20673OCT     C141345   2.217  13.803  15.990  0.0835  0.3175 -0.0180
20673OCT     C241346   1.946  13.684  15.664  0.1301  0.4383 -0.0665
20674OCT     C141347   6.881   2.362  15.343  0.3224  0.0234 -0.0804
20674OCT     C241348   6.491   2.106  15.488  0.0151  0.0576 -0.3749
20675OCT     C141349   4.696  13.405  10.400 -0.2201 -0.2508  0.0187
20675OCT     C241350   4.459  13.791  10.590 -0.0770 -0.3753 -0.0575
20676OCT     C141351  23.404  17.163   9.253 -0.2827  0.2304  0.1395
20676OCT     C241352  23.042  17.029   9.105 -0.0731 -0.0562  0.2254
20677OCT     C141353  21.605   9.094  10.766  0.0736 -0.3176 -0.3794
20677OCT     C241354  21.420   8.766  10.442 -0.0708 -0.1704 -0.1569
20678OCT     C141355   7.653  22.896  22.007 -0.1042  0.3641 -0.1212
20678OCT     C241356   7.398  23.277  21.844 -0.0557  0.3406  0.0716
20679OCT     C141357  21.166  14.428  12.622  0.1492 -0.0167 -0.1304
20679OCT     C241358  21.606  14.300  12.696  0.2104 -0.3694  0.3208
20680OCT     C141359  19.682  22.849  17.269 -0.0556 -0.1631  0.0235
20680OCT     C241360  19.791  22.880  16.807 -0.1661 -0.0783  0.0631
20681OCT     C141361   1.658  13.919   1.604 -0.2277 -0.0346 -0.0784
20681OCT     C241362   1.896  14.167   1.286  0.0777  0.0449 -0.0647
20682OCT     C141363  22.654   5.411   9.583 -0.0864 -0.0089 -0.0357
20682OCT     C241364  22.705   5.789   9.293 -0.2245  0.0078 -0.0556
20683OCT     C141365  11.067   8.760   1.936 -0.4532 -0.1569  0.2694
20683OCT     C241366  11.361   8.684   1.629 -0.0849 -0.0174  0.2158
20684OCT     C141367   3.402  17.823   7.277 -0.1257 -0.0997 -0.0687
20684OCT     C241368   3.875  17.653   7.281 -0.2212  0.0212  0.1333
20685OCT     C141369  14.141  13.406  12.554 -0.3710  0.0973 -0.1054
20685OCT     C241370  14.534  13.286  12.541  0.2322  0.0335 -0.1739
20686OCT     C141371  17.203  20.305  11.274  0.2007  0.0340  0.3876
20686OCT     C241372  17.650  20.506  11.039 -0.1694  0.0929 -0.0886
20687OCT     C141373  19.652   5.346   3.483 -0.4490  0.0927  0.0216
20687OCT     C241374  19.220   5.292   3.338 -0.0423 -0.3717  0.1069
20688OCT     C141375  10.069  22.867  12.368  0.2080 -0.1760  0.1319
20688OCT     C241376   9.732  22.720  12.018 -0.1269 -0.0777 -0.0224
20689OCT     C141377   5.076  12.076  14.415  0.0979  0.0385 -0.2313
20689OCT     C241378   5.005  12.494  14.582  0.2587  0.0375  0.2614
20690OCT     C141379   7.921  11.188  16.733 -0.0152  0.3486  0.0730
20690OCT     C241380   8.259  11.544  16.631  0.3886 -0.1572 -0.1089
20691OCT     C141381   5.587   5.559  16.442  0.2508  0.4613  0.1019
20691OCT     C241382   5.246   5.796  16.237  0.0095 -0.0162  0.0770
20692OCT     C141383   3.910   0.444  13.316  0.1663 -0.1944 -0.0106
20692OCT     C241384   4.243   0.700  13.572 -0.0340  0.0097 -0.2306
20693OCT     C141385   3.933  19.339  21.893  0.0522 -0.1820 -0.3545
20693OCT     C241386   3.658  19.516  21.582 -0.1314  0.0677  0.4109
20694OCT     C141387  22.482   7.427   1.891 -0.1342  0.0431  0.0645
20694OCT     C241388  22.163   7.224   1.600  0.2099  0.2115  0.1317
20695OCT     C141389   5.325  14.512  19.743 -0.0862 -0.1448  0.3231
20695OCT     C241390   5.480  14.392  20.143 -0.1664  0.1766 -0.1224
20696OCT     C141391  14.504   2.684  15.931 -0.1443 -0.0366 -0.0294
20696OCT     C241392  14.192   2.666  15.580  0.1305  0.0722 -0.0489
20697OCT     C141393   3.523   7.856   5.493 -0.1462 -0.1080  0.1156
20697OCT     C241394   3.717   7.629   5.096 -0.0944  0.1696 -0.0760
20698OCT     C141395   6.933  10.382   0.455 -0.0740 -0.1026 -0.0611
20698OCT     C241396   6.502  10.088   0.458  0.2689  0.3114 -0.1675
20699OCT     C141397   4.497   0.006  18.589  0.0534  0.0708  0.2878
20699OCT     C241398   4.332  23.725  18.155 -0.3325 -0.3146  0.0488
20700OCT     C141399   3.306   8.313  14.082  0.4946 -0.1421  0.1286
20700OCT     C241400   3.426   8.239  14.518 -0.4811 -0.0159  0.1047
20701OCT     C141401  18.644   5.092   5.449 -0.0835 -0.3977 -0.1728
20701OCT     C241402  19.052   5.271   5.604  0.0187  0.2608  0.0030
20702OCT     C141403   1.459   7.708  10.709  0.0950 -0.1752  0.0181
20702OCT     C241404   1.285   7.993  11.101 -0.3317 -0.4545 -0.2348
20703OCT     C141405   6.490   3.910  13.840 -0.3480 -0.0328  0.1650
20703OCT     C241406   6.332   4.262  13.534 -0.0491  0.2092 -0.2764
20704OCT     C141407   7.664  16.672   2.656 -0.0525 -0.5480 -0.0507
20704OCT     C241408   7.848  16.470   3.063 -0.1587 -0.4008  0.0633
20705OCT     C141409  17.237   8.993  18.749  0.2103 -0.2615  0.0048
20705OCT     C241410  17.581   9.324  18.700  0.0137  0.1896  0.1946
20706OCT     C141411   2.904  23.668  14.800  0.2500 -0.0184  0.2260
20706OCT     C241412   3.128   0.039  15.194 -0.0231 -0.1421  0.4443
20707OCT     C141413  18.635  20.347  22.829  0.0788  0.0704  0.0381
20707OCT     C241414  18.744  20.511  22.439 -0.0287  0.5496  0.2137
20708OCT     C141415   0.710  11.928   1.978 -0.0423  0.2475 -0.3340
20708OCT     C241416   0.400  12.183   1.774 -0.0053  0.0812  0.0377
20709OCT     C141417  13.131   3.000  17.444  0.0149 -0.2822 -0.0828
20709OCT     C241418  12.970   3.123  17.873  0.1158 -0.2284  0.1680
20710OCT     C141419   3.357  19.087  12.353 -0.0847  0.2294 -0.4141
20710OCT     C241420   3.034  19.199  12.039  0.3499 -0.2331  0.2733
20711OCT     C141421   0.204   6.857  21.198  0.1019  0.1729 -0.1629
20711OCT     C241422   0.024   6.431  21.453  0.0010 -0.0924 -0.2811
20712OCT     C141423   7.027   2.902  23.198  0.3312 -0.2918  0.0180
20712OCT     C241424   7.357   2.668  23.010 -0.0795  0.1345 -0.5107
20713OCT     C141425  15.115   5.978   5.851 -0.0927 -0.4028  0.1493
20713OCT     C241426  14.909   5.672   6.146 -0.0679 -0.1902 -0.1231
20714OCT     C141427  15.801   2.696  11.567  0.0572  0.3391 -0.0295
20714OCT     C241428  15.496   3.109  11.630  0.1000 -0.2240  0.0097
20715OCT     C141429  21.677  17.984   1.728 -0.1759 -0.1979 -0.4613
20715OCT     C241430  22.188  18.052   1.814  0.2066  0.2846 -0.3855
20716OCT     C141431  22.914  12.707  13.767 -0.3416  0.4791 -0.2293
20716OCT     C241432  23.289  12.465  13.762  0.1758 -0.0153 -0.3829
20717OCT     C141433  12.426   6.679   6.383 -0.1069  0.1059 -0.3485
20717OCT     C241434  12.234   6.316   6.471 -0.1292  0.3804  0.1491
20718OCT     C141435   1.505   2.827  20.725 -0.0439 -0.4268  0.1888
20718OCT     C241436   1.760   2.780  20.357  0.0093 -0.3486 -0.0857
20719OCT     C141437   8.215  14.681  12.816  0.2681 -0.0887  0.2598
20719OCT     C241438   8.276  14.264  12.542  0.0032 -0.4216 -0.0180
20720OCT     C141439   2.794   0.423  10.774 -0.0400 -0.1975 -0.4045
20720OCT     C241440   2.885   0.746  11.117 -0.0308 -0.0849 -0.1860
20721OCT     C141441   3.463   2.540  16.075  0.2819 -0.0890 -0.3420
20721OCT     C241442   3.855   2.841  16.077 -0.1128  0.2817 -0.2176
20722OCT     C141443  20.661  22.937  12.859  0.3673  0.4219 -0.0540
20722OCT     C241444  20.823  23.253  12.501 -0.0574  0.0448 -0.0592
20723OCT     C141445   4.413  16.473   5.181 -0.1790  0.4155 -0.1172
20723OCT     C241446   4.015  16.777   5.213  0.0331 -0.1629 -0.0850
20724OCT     C141447   5.361   8.379   7.036  0.0384  0.1614 -0.1350
20724OCT     C241448   5.503   8.722   7.292 -0.4634 -0.1520  0.1246
20725OCT     C141449   3.016   2.853   4.341  0.0681  0.0041 -0.1858
20725OCT     C241450   2.636   3.070   4.154 -0.1078 -0.0862 -0.1418
20726OCT     C141451   2.477   2.219   2.260  0.0618  0.0215  0.3208
20726OCT     C241452   2.149   2.336   1.953 -0.3589  0.4971 -0.2092
20727OCT     C141453  22.923  13.729  22.218  0.0442 -0.2670 -0.0132
20727OCT     C241454  22.861  14.152  22.131  0.3599 -0.0099  0.3719
20728OCT     C141455  14.878  19.366  20.826  0.1446 -0.3790  0.0002
20728OCT     C241456  14.797  19.534  20.391 -0.0803 -0.0748 -0.0177
20729OCT     C141457  10.063  12.513   9.721  0.2599  0.0556  0.1836
20729OCT     C241458  10.059  12.971   9.800  0.0603  0.1822  0.0428
20730OCT     C141459  13.817  14.056  22.160 -0.1257  0.1135 -0.3786
20730OCT     C241460  13.854  13.942  22.638 -0.1195  0.4721  0.3074
20731OCT     C141461   8.076   7.468  20.980  0.1214  0.1825 -0.4412
20731OCT     C241462   8.326   7.122  20.815  0.1004  0.1319 -0.1819
20732OCT     C141463  20.216   9.769   0.054 -0.0174  0.4900 -0.1780
20732OCT     C241464  19.987   9.387  23.613  0.0177 -0.1171  0.2187
20733OCT     C141465   8.819  11.271  22.758 -0.0157 -0.3960  0.0141
20733OCT     C241466   8.626  11.330  22.346  0.2349 -0.2487  0.0404
20734OCT     C141467  16.721  14.069  19.493 -0.1210 -0.2492  0.1768
20734OCT     C241468  16.863  13.770  19.158  0.1659  0.2081 -0.0797
20735OCT     C141469   9.968  17.086   3.063  0.1700 -0.2716 -0.2788
20735OCT     C241470  10.145  17.503   3.229 -0.2234  0.2487 -0.1180
20736OCT     C141471   4.083   9.891   3.474  0.0112 -0.0384  0.2332
20736OCT     C241472   4.224  10.287   3.315  0.0795 -0.0175  0.1812
20737OCT     C141473   0.681   8.904   0.168  0.2998  0.0974  0.1712
20737OCT     C241474   0.295   9.204   0.116  0.2159  0.1728  0.1060
20738OCT     C141475  17.365   1.174  10.848 -0.0598  0.1148  0.3155
20738OCT     C241476  17.068   1.138  10.473 -0.1416 -0.2401  0.0420
20739OCT     C141477   5.316  21.621  17.382  0.1849  0.0382  0.0519
20739OCT     C241478   5.350  21.841  17.816  0.0057  0.0641  0.2268
20740OCT     C141479  12.652  17.605   9.189  0.0662  0.2125 -0.2101
20740OCT     C241480  12.358  17.644   8.886 -0.2918 -0.0736 -0.1142
20741OCT     C141481   3.357  22.542   7.310  0.3386 -0.1840 -0.3529
20741OCT     C241482   3.070  22.186   7.326 -0.2019  0.0814  0.4137
20742OCT     C141483  13.478  11.167   0.626 -0.2675 -0.2072 -0.0140
20742OCT     C241484  13.581  11.313   1.007 -0.1379  0.1561  0.1950
20743OCT     C141485  19.185   8.558  20.259  0.0110 -0.1267 -0.1077
20743OCT     C241486  19.614   8.747  20.242 -0.3466 -0.2495 -0.1142
20744OCT     C141487  19.923   7.799  22.187  0.1280  0.0541  0.2706
20744OCT     C241488  20.288   8.067  22.209  0.1019 -0.2131  0.2274
20745OCT     C141489  11.027  18.483  20.288 -0.2056  0.2640  0.1371
20745OCT     C241490  10.621  18.368  20.058 -0.2654  0.0378  0.4940
20746OCT     C141491  16.588   0.009  19.053 -0.0459  0.0365 -0.0817
20746OCT     C241492  16.825  23.484  19.315  0.3426 -0.3324 -0.2501
20747OCT     C141493  16.866   7.818   7.618 -0.2742 -0.1009  0.3057
20747OCT     C241494  16.854   7.829   8.062  0.1929  0.3022  0.0721
20748OCT     C141495   3.025   1.527   1.108 -0.4060 -0.0007 -0.0714
20748OCT     C241496   2.568   1.769   1.207 -0.1876 -0.1698 -0.1066
20749OCT     C141497  13.321  20.700  19.023 -0.0595 -0.1821 -0.3034
20749OCT     C241498  13.111  20.328  18.945 -0.3845 -0.0625  0.0959
20750OCT     C141499  11.066  13.944  14.610  0.1604 -0.0759 -0.3042
20750OCT     C241500  11.454  13.787  14.854  0.1614 -0.2559 -0.1995
20751OCT     C141501   2.218  21.756   0.769 -0.0047  0.1334 -0.1227
20751OCT     C241502   2.635  21.855   0.930  0.1439  0.0191  0.3084
20752OCT     C141503  21.048   8.060   8.129  0.2724  0.2280 -0.4044
20752OCT     C241504  21.086   8.015   7.641  0.0283 -0.0973  0.1368
20753OCT     C141505   0.281  12.366  20.346  0.0046 -0.4041  0.0188
20753OCT     C241506   0.445  12.772  20.271 -0.1905 -0.2971  0.6315
20754OCT     C141507  14.145  15.517   3.393  0.1412  0.2197 -0.0761
20754OCT     C241508  13.975  15.620   2.982 -0.2505  0.0113 -0.1508
20755OCT     C141509   9.021  15.648  21.694  0.1590 -0.0836  0.3202
20755OCT     C241510   8.741  15.435  21.999 -0.5682  0.0959 -0.1097
20756OCT     C141511  11.208  22.589  19.576 -0.1022  0.4872 -0.2830
20756OCT     C241512  11.177  23.009  19.326 -0.1616 -0.2396  0.0936
20757OCT     C141513   5.737  23.140  20.338  0.0158 -0.2663  0.2817
20757OCT     C241514   5.712  22.668  20.308  0.0402  0.1128  0.0661
20758OCT     C141515  12.819  18.417   2.794 -0.3442 -0.0548 -0.0940
20758OCT     C241516  12.723  18.060   2.583 -0.4025 -0.3996 -0.1004
20759OCT     C141517  20.506  12.075  17.772 -0.3375 -0.2438 -0.0189
20759OCT     C241518  20.766  11.659  17.819  0.0792  0.1274 -0.4110
20760OCT     C141519   6.267   2.600  12.426 -0.0276  0.1535 -0.2744
20760OCT     C241520   6.521   2.431  12.754 -0.0542 -0.0839 -0.0055
20761OCT     C141521  11.892  17.322  21.400 -0.1747  0.0945  0.0608
20761OCT     C241522  11.578  17.510  21.170  0.2638 -0.3020 -0.1525
20762OCT     C141523  12.973  11.796  19.975 -0.0241 -0.1131 -0.1287
20762OCT     C241524  12.523  11.648  19.890  0.1974  0.0309 -0.0267
20763OCT     C141525   0.890   2.502  14.943 -0.3169  0.0787 -0.1376
20763OCT     C241526   0.861   2.835  15.303 -0.0578 -0.3868 -0.3454
20764OCT     C141527  18.021  20.934   5.139  0.1391 -0.1603  0.0730
20764OCT     C241528  18.221  20.694   5.465 -0.4028  0.2163  0.0891
20765OCT     C141529  17.165  17.205   1.533 -0.0009 -0.0136 -0.0113
20765OCT     C241530  17.360  17.666   1.560  0.0911  0.0776 -0.1869
20766OCT     C141531  11.762   9.149  14.691  0.1203 -0.4645 -0.1732
20766OCT     C241532  11.781   8.833  15.065  0.0483  0.0243 -0.1534
20767OCT     C141533  23.603  20.825   2.930  0.4961 -0.0154  0.0660
20767OCT     C241534  23.432  21.053   2.585  0.1344 -0.1429 -0.1187
20768OCT     C141535   0.183  22.714  18.413  0.0499 -0.0714 -0.2010
20768OCT     C241536   0.275  22.744  18.887  0.0272  0.1856  0.1876
20769OCT     C141537  17.781   6.566  19.957 -0.4049 -0.2161  0.2180
20769OCT     C241538  18.069   6.174  20.084  0.0927  0.0299  0.0836
20770OCT     C141539   5.712   2.010  17.761 -0.0519  0.1210 -0.0113
20770OCT     C241540   6.017   1.685  17.916 -0.0215  0.1784  0.1074
20771OCT     C141541  14.137  13.834  17.009  0.1876 -0.1034  0.2309
20771OCT     C241542  14.230  14.274  16.941  0.2430  0.2773  0.2416
20772OCT     C141543  11.724  13.314  11.024  0.1456 -0.1895 -0.0581
20772OCT     C241544  12.012  13.254  10.731  0.1670 -0.0569 -0.0428
20773OCT     C141545  14.829   3.094   4.643 -0.0681 -0.2767  0.0263
20773OCT     C241546  14.896   3.557   4.738  0.0053  0.0604  0.1681
20774OCT     C141547   0.680  19.611  14.280 -0.0089 -0.0573 -0.1618
20774OCT     C241548   0.285  19.759  14.573 -0.4429 -0.0865  0.0388
20775OCT     C141549  21.803   3.445  13.319 -0.0434  0.2377  0.3221
20775OCT     C241550  21.555   3.123  13.049 -0.0308  0.1161  0.0770
20776OCT     C141551  14.763  17.064  14.002  0.0215  0.2528  0.5258
20776OCT     C241552  14.658  17.525  14.002 -0.1734 -0.2152  0.1069
20777OCT     C141553   8.500   0.199   2.343  0.1662 -0.2638  0.2351
20777OCT     C241554   8.630   0.517   1.953 -0.0090 -0.1357 -0.1435
20778OCT     C141555   2.977  15.770  20.796  0.1593 -0.0420  0.1314
20778OCT     C241556   3.231  16.131  20.638 -0.2913 -0.0278 -0.4588
20779OCT     C141557   5.979  11.683   7.348  0.3438  0.3279  0.0278
20779OCT     C241558   6.133  11.368   7.607  0.0861 -0.3372 -0.2675
20780OCT     C141559   4.028  19.554   0.795  0.1009  0.0764 -0.2929
20780OCT     C241560   3.868  19.818   0.429  0.0641  0.1835 -0.2872
20781OCT     C141561   1.082   3.621  15.514 -0.1791 -0.0158  0.3114
20781OCT     C241562   0.735   3.836  15.754 -0.1153  0.0206 -0.2514
20782OCT     C141563  21.641  11.089   2.609  0.2303 -0.1486 -0.2049
20782OCT     C241564  21.833  10.713   2.652  0.1714  0.1812  0.3106
20783OCT     C141565  12.893  17.900   8.799  0.1685  0.1326  0.0771
20783OCT     C241566  12.818  18.018   8.376  0.1199 -0.2057  0.1866
20784OCT     C141567  14.262  12.621  17.470 -0.0863 -0.3678  0.4734
20784OCT     C241568  14.512  12.710  17.888  0.2832  0.0006  0.2265
20785OCT     C141569   2.078   9.904   4.380  0.2242 -0.0941  0.0048
20785OCT     C241570   2.393  10.164   4.125 -0.2727 -0.1012  0.1415
20786OCT     C141571  22.929   2.247  17.675  0.3309 -0.4986 -0.1496
20786OCT     C241572  22.671   1.937  17.854 -0.0137  0.0988 -0.3858
20787OCT     C141573   1.399  23.105  16.759  0.0148 -0.0236  0.0802
20787OCT     C241574   1.255  22.656  16.751 -0.0324 -0.6214  0.2540
20788OCT     C141575  22.900  18.465  16.034  0.4320 -0.1525  0.4134
20788OCT     C241576  23.279  18.219  16.069  0.2074 -0.3285  0.0108
20789OCT     C141577   2.514  22.187  13.829 -0.2379 -0.0243 -0.1407
20789OCT     C241578   2.368  22.387  14.238  0.2640  0.2064  0.1301
20790OCT     C141579   3.749  22.711   7.017 -0.1147  0.2393  0.2850
20790OCT     C241580   3.747  23.126   6.881  0.3443 -0.1443 -0.0432
20791OCT     C141581   8.381  20.856  15.976 -0.0528  0.2072 -0.1327
20791OCT     C241582   8.802  20.973  16.104 -0.0590  0.0476  0.3348
20792OCT     C141583   5.610  15.683   3.552 -0.1359  0.2595 -0.1357
20792OCT     C241584   5.593  15.554   4.030  0.1664 -0.0874 -0.0080
20793OCT     C141585  17.444  15.640   0.183  0.1713  0.1415 -0.3813
20793OCT     C241586  17.062  15.400   0.377  0.1405 -0.2084  0.1847
20794OCT     C141587   6.528  17.412  17.015 -0.1810  0.0489  0.0312
20794OCT     C241588   6.885  17.766  17.087  0.3072 -0.1303  0.2230
20795OCT     C141589   2.115  21.320   5.435  0.0977 -0.2700 -0.1490
20795OCT     C241590   2.437  20.993   5.182 -0.1133 -0.2700 -0.3458
20796OCT     C141591   0.474   6.988  13.323 -0.1286  0.2066 -0.1206
20796OCT     C241592   0.730   6.773  12.993  0.0229 -0.1930 -0.2899
20797OCT     C141593   5.570  16.485  12.957 -0.4017  0.2986  0.0901
20797OCT     C241594   5.993  16.162  13.034 -0.0086 -0.5232 -0.0540
20798OCT     C141595   4.827  23.563  20.972  0.0503 -0.2449 -0.0914
20798OCT     C241596   4.381   0.017  21.092 -0.2464  0.3408  0.0985
20799OCT     C141597  16.562   6.871  18.468  0.2818 -0.3622 -0.1405
20799OCT     C241598  16.588   6.920  18.945  0.2453  0.7016  0.1111
20800OCT     C141599  23.394  22.880   5.329 -0.1722  0.2406  0.0734
20800OCT     C241600  23.543  23.263   5.554  0.0127  0.0960 -0.0314
20801OCT     C141601  20.996  21.507   7.609 -0.0586  0.2216 -0.0030
20801OCT     C241602  21.035  21.244   8.052 -0.1950 -0.1785 -0.0261
20802OCT     C141603   8.052  21.177   2.380 -0.0479 -0.0708 -0.0744
20802OCT     C241604   8.004  20.905   1.980  0.0483  0.0820  0.0918
20803OCT     C141605   3.936   7.167  17.673 -0.2779  0.2126  0.0248
20803OCT     C241606   3.978   7.580  17.570 -0.3705 -0.1070 -0.0237
20804OCT     C141607  15.461  15.948  13.641  0.0160  0.0295 -0.0331
20804OCT     C241608  15.776  16.014  13.971  0.4673  0.3169 -0.2696
20805OCT     C141609  12.945   6.954  12.896 -0.0892  0.4095  0.0990
20805OCT     C241610  12.813   7.034  12.473  0.6490 -0.3307 -0.0914
20806OCT     C141611  15.495   1.245  15.936 -0.1344 -0.3879  0.2537
20806OCT     C241612  15.734   1.644  15.933 -0.2171 -0.0731 -0.0812
20807OCT     C141613   2.671  12.486  15.684 -0.1633  0.0650 -0.0880
20807OCT     C241614   2.604  12.860  15.998 -0.0100  0.0565 -0.2658
20808OCT     C141615   9.320  12.827   5.413 -0.6585  0.5443 -0.1257
20808OCT     C241616   9.106  12.445   5.545 -0.1685  0.3372 -0.1202
20809OCT     C141617  16.983   4.035  22.434 -0.0671  0.2860  0.0404
20809OCT     C241618  16.610   4.350  22.324  0.0465  0.4178  0.1530
20810OCT     C141619  18.873  18.447   6.195 -0.2184  0.0824  0.0326
20810OCT     C241620  18.429  18.595   6.299  0.1839 -0.0950  0.2494
20811OCT     C141621  23.297  15.918   8.408 -0.0230 -0.1587 -0.0991
20811OCT     C241622  23.548  16.067   7.995  0.1353  0.1047  0.0705
20812OCT     C141623  22.471   8.774   3.126  0.1791 -0.4526  0.1639
20812OCT     C241624  22.837   8.509   2.976 -0.0519 -0.1416  0.0560
20813OCT     C141625  21.209  15.274  17.879  0.1531 -0.0583 -0.1362
20813OCT     C241626  20.889  14.959  17.926  0.0978  0.1619 -0.1336
20814OCT     C141627   7.790  22.521  13.806  0.0990  0.0315  0.1268
20814OCT     C241628   8.105  22.491  13.529  0.0672 -0.1331 -0.7070
20815OCT     C141629  11.321  23.448  23.471  0.2074  0.1512 -0.1961
20815OCT     C241630  11.724  23.244  23.554  0.0521  0.1526 -0.4604
20816OCT     C141631  18.051   7.220  12.549 -0.1791 -0.0208  0.2155
20816OCT     C241632  18.213   7.106  12.134  0.0284 -0.3567  0.0294
20817OCT     C141633   0.298   3.236  12.559  0.0090 -0.1354 -0.3889
20817OCT     C241634   0.363   3.610  12.337 -0.1420 -0.3115  0.0506
20818OCT     C141635   1.312   0.026  18.985 -0.0611 -0.0533  0.1932
20818OCT     C241636   1.501  23.446  18.672  0.1084 -0.0279  0.2698
20819OCT     C141637  23.729  13.550  10.567  0.3746  0.1007 -0.1753
20819OCT     C241638   0.175  13.148  10.653 -0.1256 -0.1202 -0.2968
20820OCT     C141639   1.086   7.136   5.006 -0.1047 -0.0170  0.0627
20820OCT     C241640   1.425   7.339   5.293  0.0190 -0.2099  0.2161
20821OCT     C141641  17.529   6.098  19.969 -0.0905 -0.0345 -0.2560
20821OCT     C241642  17.871   5.735  19.794  0.1772  0.2066  0.3130
20822OCT     C141643  20.706   0.397  11.537 -0.3321 -0.0240 -0.0714
20822OCT     C241644  20.368   0.089  11.522  0.2082 -0.2772  0.1183
20823OCT     C141645  10.273   1.955  17.061 -0.3554  0.2788 -0.3855
20823OCT     C241646  10.063   2.166  17.430 -0.4633  0.1428  0.0626
20824OCT     C141647   4.461  13.239  19.228 -0.1186 -0.0339  0.0369
20824OCT     C241648   4.376  13.069  18.779 -0.3262 -0.0939 -0.2794
20825OCT     C141649   9.593  23.070   9.839  0.0741 -0.1299  0.2234
20825OCT     C241650   9.161  23.006   9.815  0.4777  0.0533  0.0265
20826OCT     C141651  22.491   3.322   8.138  0.4599  0.3025  0.4778
20826OCT     C241652  22.922   3.470   8.146  0.4917  0.1219 -0.1793
20827OCT     C141653   6.482   3.543  19.560  0.1145 -0.2327  0.2104
20827OCT     C241654   6.758   3.352  19.881 -0.2080  0.1406  0.3370
20828OCT     C141655   5.924   5.769   7.504 -0.1510  0.3250 -0.1260
20828OCT     C241656   6.277   5.522   7.562 -0.4402  0.0613  0.2231
20829OCT     C141657   4.680  10.213   0.311  0.1341  0.0274  0.0099
20829OCT     C241658   4.940   9.831   0.447 -0.1101  0.0125  0.0130
20830OCT     C141659   1.271   2.267  17.219 -0.4185  0.1030 -0.2587
20830OCT     C241660   1.382   2.156  16.741  0.2223 -0.4329  0.3903
20831OCT     C141661   1.085  13.663  10.394 -0.3240  0.1241 -0.0857
20831OCT     C241662   0.943  13.882  10.824  0.0148  0.0484  0.0844
20832OCT     C141663  22.329   7.856   2.064  0.0422  0.1365 -0.0135
20832OCT     C241664  21.929   7.882   2.318 -0.1488 -0.1493  0.5118
20833OCT     C141665  12.645  22.569   7.380  0.0028 -0.2087 -0.0897
20833OCT     C241666  12.655  22.175   7.122 -0.0729  0.0110  0.1984
20834OCT     C141667   2.908   5.146  21.169  0.0157 -0.0028 -0.1309
20834OCT     C241668   2.687   4.738  21.116  0.2161 -0.0799  0.5155
20835OCT     C141669   4.897  19.325  14.471  0.1617  0.5039 -0.1832
20835OCT     C241670   4.835  19.622  14.101 -0.1754  0.1677 -0.0817
20836OCT     C141671  14.274   5.145  17.400  0.1016  0.1119  0.1054
20836OCT     C241672  13.840   4.998  17.417 -0.0619  0.3497  0.0105
20837OCT     C141673  21.493   2.636  11.109  0.0321  0.0118 -0.0464
20837OCT     C241674  21.763   3.024  10.993  0.0223 -0.0759 -0.2629
20838OCT     C141675  23.577   7.886   5.260 -0.2094 -0.0232 -0.1014
20838OCT     C241676  23.364   7.517   5.496  0.0090 -0.2380 -0.2788
20839OCT     C141677   6.851  13.822   7.185 -0.0951  0.1092  0.3124
20839OCT     C241678   7.058  14.103   7.506 -0.0814 -0.2377  0.0765
20840OCT     C141679  15.701  22.348   7.312 -0.0142  0.0285 -0.4102
20840OCT     C241680  15.899  22.674   7.126 -0.3146 -0.1832 -0.1984
20841OCT     C141681  15.873  21.410   7.486  0.0111 -0.0525  0.4112
20841OCT     C241682  16.151  21.225   7.171 -0.0557 -0.2563 -0.4682
20842OCT     C141683  23.656   3.164   0.889 -0.2729 -0.0542 -0.0298
20842OCT     C241684   0.328   3.281   0.982 -0.0582 -0.1753 -0.2372
20843OCT     C141685  18.600  12.128   3.264  0.3025 -0.4969 -0.0831
20843OCT     C241686  18.835  11.715   3.193 -0.2492  0.1075  0.0757
20844OCT     C141687  11.635   2.665  10.857  0.1936  0.2348 -0.1732
20844OCT     C241688  11.578   2.994  10.547 -0.2309 -0.3187 -0.0301
20845OCT     C141689  21.549  10.617   7.057  0.0746 -0.0519  0.2804
20845OCT     C241690  21.867  10.914   7.006  0.1272  0.1048  0.1037
20846OCT     C141691   4.938  11.093   4.297  0.1727 -0.1395  0.0764
20846OCT     C241692   5.037  11.372   4.671  0.2299  0.1112 -0.0703
20847OCT     C141693  11.053   9.499   8.668  0.1622  0.3792 -0.0078
20847OCT     C241694  11.163   9.031   8.964  0.0824  0.1113 -0.0282
20848OCT     C141695   4.385  16.764   6.508  0.1379 -0.0736 -0.0310
20848OCT     C241696   4.715  16.457   6.466 -0.0102  0.0755 -0.3179
20849OCT     C141697  23.065   9.988   3.768 -0.4513  0.0602 -0.5123
20849OCT     C241698  22.699  10.216   4.009  0.2204  0.1213 -0.1133
20850OCT     C141699  10.090  18.594   5.742 -0.0450  0.0500 -0.0127
20850OCT     C241700  10.445  18.858   5.609  0.2228 -0.0265 -0.2151
20851OCT     C141701  12.210   7.993  11.024 -0.0478 -0.2691 -0.4388
20851OCT     C241702  12.315   7.870  10.581  0.1408  0.0503 -0.2512
20852OCT     C141703   0.038  16.350   6.620 -0.3163 -0.0565  0.0665
20852OCT     C241704   0.423  16.141   6.603  0.2245 -0.3675 -0.1874
20853OCT     C141705   9.221  15.334   7.909  0.1019  0.0643 -0.2013
20853OCT     C241706   9.314  14.909   8.114  0.0418 -0.0363  0.3185
20854OCT     C141707  19.984  15.567  17.157 -0.0297  0.0309 -0.1361
20854OCT     C241708  20.270  15.724  16.887 -0.2868  0.1587 -0.2248
20855OCT     C141709  16.400   8.234   0.322  0.1757 -0.1672  0.3431
20855OCT     C241710  16.776   8.549   0.393 -0.1447 -0.0771  0.3248
20856OCT     C141711   1.386  20.478   6.103 -0.0452 -0.1895  0.0600
20856OCT     C241712   1.391  20.408   5.650 -0.5309 -0.3412  0.4830
20857OCT     C141713  15.162  12.482  22.954  0.0206 -0.1457 -0.0343
20857OCT     C241714  15.085  12.916  22.991  0.3378  0.1393  0.1281
20858OCT     C141715  14.753   3.092  15.292  0.0879  0.1066 -0.0504
20858OCT     C241716  14.762   3.565  15.274 -0.1392 -0.4819 -0.0375
20859OCT     C141717   4.783   4.225  19.187  0.0806  0.0955 -0.1329
20859OCT     C241718   4.332   4.292  19.356 -0.3925  0.0104 -0.0957
20860OCT     C141719   0.413  21.384   4.531 -0.2744 -0.2033  0.0378
20860OCT     C241720   0.668  20.967   4.609 -0.2808  0.0997  0.2086
20861OCT     C141721   3.789   2.080   0.810 -0.1985  0.3108  0.0017
20861OCT     C241722   4.195   1.992   1.002 -0.0701  0.0793  0.0983
20862OCT     C141723  16.051   3.112  11.761  0.6986  0.0328 -0.1099
20862OCT     C241724  16.107   2.824  12.117 -0.4115  0.0302 -0.0895
20863OCT     C141725  12.525  15.515  11.638 -0.0951  0.0506 -0.0853
20863OCT     C241726  12.536  15.324  12.066  0.2303  0.2094 -0.1295
20864OCT     C141727   1.513   0.843  12.381  0.1691 -0.1667 -0.4415
20864OCT     C241728   1.339   1.121  12.723  0.4312 -0.2577 -0.2295
20865OCT     C141729  16.203  18.549  15.290  0.1453 -0.1608 -0.1568
20865OCT     C241730  16.257  18.668  14.809  0.2243  0.3299 -0.4309
20866OCT     C141731   9.418   0.522   9.928  0.0031  0.2051  0.3366
20866OCT     C241732   8.979   0.368   9.962 -0.1941  0.2327  0.1713
20867OCT     C141733  13.887  13.103  21.879  0.2039  0.0634  0.0474
20867OCT     C241734  14.103  13.131  21.459  0.1782 -0.2121  0.2812
20868OCT     C141735  14.116  14.679  15.986 -0.0618  0.1253  0.1540
20868OCT     C241736  13.772  14.359  15.876  0.3000  0.0261  0.2879
20869OCT     C141737  13.222  18.020   7.189 -0.2420 -0.1093 -0.1711
20869OCT     C241738  13.209  18.438   7.380  0.1982 -0.1059  0.1045
20870OCT     C141739   5.208   9.955  19.948 -0.0430  0.4831  0.2562
20870OCT     C241740   5.168   9.874  20.402 -0.1568 -0.3568 -0.1106
20871OCT     C141741  15.770  22.397  11.055 -0.1158 -0.2524 -0.0940
20871OCT     C241742  15.583  22.326  11.546  0.1360 -0.0465 -0.0570
20872OCT     C141743  14.366   2.879  19.600 -0.1296  0.0202  0.1931
20872OCT     C241744  14.608   2.891  19.213 -0.2015 -0.1003 -0.3455
20873OCT     C141745   8.346   5.550   9.604  0.2081 -0.0252 -0.3058
20873OCT     C241746   8.615   5.803   9.901  0.1375  0.0263 -0.1210
20874OCT     C141747  12.950   3.114  21.885 -0.2465  0.0059 -0.0513
20874OCT     C241748  13.356   2.900  21.872  0.1796 -0.0733  0.2303
20875OCT     C141749   6.818   9.212  16.191  0.1597 -0.0144 -0.0040
20875OCT     C241750   6.906   8.772  16.386 -0.0809 -0.1586 -0.1710
20876OCT     C141751  12.181  14.921  17.977  0.1221 -0.0411  0.1266
20876OCT     C241752  12.094  15.317  17.885 -0.0520  0.3203  0.0008
20877OCT     C141753  16.063   8.844   5.530  0.0146  0.1357  0.0386
20877OCT     C241754  15.886   9.274   5.599  0.1514  0.4141 -0.0372
20878OCT     C141755   9.831  15.036  23.634  0.0405  0.2824  0.0840
20878OCT     C241756  10.217  14.992   0.255  0.0406  0.0509 -0.1185
20879OCT     C141757  17.886   9.097  23.517  0.0710 -0.2268 -0.0664
20879OCT     C241758  17.694   8.734  23.318  0.2461 -0.2195 -0.1674
20880OCT     C141759   2.735  13.672  21.634 -0.2912 -0.3038 -0.0299
20880OCT     C241760   2.942  13.206  21.703  0.1075 -0.2629 -0.1521
20881OCT     C141761  11.897  16.690  13.330 -0.1298  0.1991  0.1017
20881OCT     C241762  12.249  16.770  13.004  0.0400 -0.2470 -0.2874
20882OCT     C141763   8.098   8.497  17.761  0.0525  0.1493  0.2860
20882OCT     C241764   8.516   8.734  17.859  0.1623 -0.1910  0.1582
20883OCT     C141765  20.530  19.878  18.459 -0.0883 -0.2444 -0.2262
20883OCT     C241766  20.540  19.665  18.872  0.0130 -0.3037  0.0725
20884OCT     C141767  10.953  18.326  23.432  0.0940  0.2502  0.3967
20884OCT     C241768  10.523  18.360  23.258 -0.0135  0.0361 -0.1068
20885OCT     C141769   9.289   4.136  11.341 -0.1089  0.0978 -0.0489
20885OCT     C241770   9.243   3.931  11.719 -0.0309 -0.0401 -0.3390
20886OCT     C141771   4.510   3.404   6.611 -0.1181 -0.1614 -0.5179
20886OCT     C241772   4.691   3.173   6.944 -0.0097  0.2234 -0.0768
20887OCT     C141773   5.181  18.714   1.834  0.3262 -0.0066 -0.0476
20887OCT     C241774   4.960  18.871   1.403 -0.0673  0.2618  0.0642
20888OCT     C141775  16.550   1.788   2.425  0.3798 -0.1058 -0.6053
20888OCT     C241776  16.415   1.538   2.038 -0.1309 -0.0913 -0.2266
20889OCT     C141777   1.140  20.499  19.968  0.3777 -0.0568 -0.2447
20889OCT     C241778   0.947  20.893  19.739  0.0428 -0.0305  0.0596
20890OCT     C141779   8.118  21.101  20.075  0.0565  0.1817  0.4392
20890OCT     C241780   8.519  20.840  19.933 -0.0475 -0.4307  0.1498
20891OCT     C141781   3.787   4.418   0.030 -0.3567  0.2822 -0.2331
20891OCT     C241782   3.333   4.355   0.154 -0.2094 -0.2281 -0.1791
20892OCT     C141783  23.245   8.857   2.656 -0.2059  0.0279  0.0628
20892OCT     C241784  23.585   8.548   2.701 -0.0813  0.3459  0.0504
20893OCT     C141785   4.694  19.660  19.845 -0.0885 -0.0979 -0.1918
20893OCT     C241786   4.298  19.470  19.949 -0.0809  0.0715  0.0478
20894OCT     C141787  21.018   2.545   3.100 -0.1153 -0.1500  0.0419
20894OCT     C241788  20.958   2.950   2.863  0.1777 -0.0558 -0.4752
20895OCT     C141789   6.793   7.072  15.040  0.0725  0.0136 -0.0521
20895OCT     C241790   6.540   7.160  14.643 -0.2361 -0.2901  0.0415
20896OCT     C141791   5.758  13.378  18.365  0.3570 -0.1363 -0.2192
20896OCT     C241792   5.773  13.587  18.022  0.3305 -0.1702 -0.0705
20897OCT     C141793  10.809   1.786  18.983 -0.3251  0.3052 -0.0942
20897OCT     C241794  10.391   1.919  18.782 -0.3025 -0.1168 -0.0809
20898OCT     C141795  22.134  11.518  15.414 -0.1307  0.4527  0.1119
20898OCT     C241796  21.673  11.417  15.323  0.2015 -0.1080 -0.2498
20899OCT     C141797   3.393   0.849   9.792 -0.2136 -0.1820  0.1942
20899OCT     C241798   3.461   0.747  10.244  0.2974 -0.2296  0.0918
20900OCT     C141799  23.141  22.999   7.207 -0.0717 -0.1104 -0.2100
20900OCT     C241800  23.507  23.077   7.463 -0.2692  0.0428  0.2578
20901OCT     C141801  12.788   8.804  11.436 -0.1302  0.2826  0.0186
20901OCT     C241802  12.623   9.291  11.452 -0.4038 -0.1381 -0.1317
20902OCT     C141803  17.473  11.529   8.463  0.0596 -0.3033  0.0374
20902OCT     C241804  17.648  11.433   8.033  0.1364 -0.0491 -0.1364
20903OCT     C141805   6.281  18.977  23.363 -0.2579 -0.1813  0.1051
20903OCT     C241806   5.943  18.603  23.345  0.0053  0.0524 -0.1125
20904OCT     C141807  10.167   0.717   1.402 -0.0295 -0.0728  0.2740
20904OCT     C241808  10.011   0.750   1.815 -0.1018  0.2163 -0.1024
20905OCT     C141809  20.258   4.078   1.923  0.3401  0.0491  0.1933
20905OCT     C241810  20.543   3.813   1.792  0.0573  0.4557  0.4642
20906OCT     C141811   1.495  12.695  11.005 -0.3181  0.3408  0.1457
20906OCT     C241812   1.423  13.203  10.942  0.0088  0.0596 -0.0459
20907OCT     C141813  15.431  14.974   9.694 -0.1584 -0.2302  0.0601
20907OCT     C241814  15.638  14.669   9.977 -0.1377  0.1484  0.1882
20908OCT     C141815  14.434  16.943   9.022 -0.3532 -0.3496 -0.1565
20908OCT     C241816  14.647  16.528   9.020  0.2790  0.2180 -0.0575
20909OCT     C141817  13.371  18.273   8.863 -0.0510  0.0634 -0.1258
20909OCT     C241818  13.278  18.219   8.404 -0.0581  0.1073 -0.0729
20910OCT     C141819   4.925  23.173  19.831 -0.1078  0.0252  0.1781
20910OCT     C241820   4.449  23.131  19.990  0.2243 -0.1246  0.0320
20911OCT     C141821  14.969  15.677   5.699  0.2277  0.0899 -0.0504
20911OCT     C241822  14.563  15.433   5.608  0.2513  0.0165 -0.0512
20912OCT     C141823  19.795  13.023   7.692 -0.3337 -0.0760  0.1402
20912OCT     C241824  19.585  12.613   7.738 -0.1143 -0.6257  0.2351
20913OCT     C141825  22.966  17.327   3.943  0.1181 -0.2408  0.2392
20913OCT     C241826  23.169  17.708   4.095 -0.2029 -0.2131 -0.2262
20914OCT     C141827  18.626   9.335  13.135 -0.0918  0.1127  0.2176
20914OCT     C241828  18.190   9.373  13.105 -0.1405  0.1603  0.0475
20915OCT     C141829  12.415   7.870  12.949 -0.0744  0.4604 -0.0334
20915OCT     C241830  12.837   7.904  12.661 -0.2590 -0.2000 -0.0176
20916OCT     C141831  18.810  17.160  15.148 -0.0814 -0.2840 -0.0611
20916OCT     C241832  18.325  17.125  15.158 -0.1867 -0.1787 -0.1785
20917OCT     C141833   3.177  10.506  15.351  0.2028  0.2110  0.2721
20917OCT     C241834   2.706  10.391  15.211  0.0045 -0.0265 -0.2799
20918OCT     C141835  18.039   6.357  18.346 -0.1417 -0.1480 -0.1188
20918OCT     C241836  18.518   6.519  18.314  0.3877  0.0742 -0.1749
20919OCT     C141837   7.014  16.288   1.568  0.1288 -0.1211  0.1332
20919OCT     C241838   7.458  16.459   1.503 -0.1044 -0.4827  0.1600
20920OCT     C141839  20.440  12.117  12.530 -0.1197  0.4624  0.1620
20920OCT     C241840  20.817  11.842  12.556  0.2475 -0.0551 -0.1902
20921OCT     C141841   2.394  16.027  14.876 -0.1647 -0.0130 -0.0883
20921OCT     C241842   2.206  15.841  14.539 -0.1280 -0.0137  0.2401
20922OCT     C141843   3.908  20.861   5.241  0.0043  0.2991  0.3823
20922OCT     C241844   3.993  20.524   5.543  0.0235  0.1103  0.1334
20923OCT     C141845   5.823   8.498  17.677  0.0776 -0.2795  0.1011
20923OCT     C241846   6.197   8.581  17.850  0.6991  0.1129  0.1373
20924OCT     C141847   9.275  22.401  12.771 -0.0099  0.0862 -0.3601
20924OCT     C241848   9.659  22.605  12.634  0.4139  0.2530  0.0327
20925OCT     C141849   3.546   2.318  20.633  0.0134 -0.2869  0.1169
20925OCT     C241850   3.958   2.001  20.706 -0.0915  0.0665 -0.0549
20926OCT     C141851  23.651   4.731  16.395  0.0177 -0.1683 -0.2052
20926OCT     C241852  23.614   4.627  16.819 -0.0730 -0.0018  0.0480
20927OCT     C141853  20.976   3.528  18.373 -0.0384 -0.0445  0.0321
20927OCT     C241854  20.540   3.392  18.331 -0.0159 -0.1798 -0.0947
20928OCT     C141855  17.948  22.353  16.192  0.5266  0.1886 -0.1070
20928OCT     C241856  18.140  22.273  15.796 -0.3245 -0.1370  0.1074
20929OCT     C141857  22.816   3.781  14.665 -0.0010 -0.0832  0.4509
20929OCT     C241858  22.704   3.556  14.297 -0.3787 -0.3171 -0.4349
20930OCT     C141859   5.620   7.795  15.790 -0.2511  0.1504 -0.1383
20930OCT     C241860   5.277   7.997  15.597  0.3050 -0.1311  0.0812
20931OCT     C141861   3.124   4.387  17.727  0.1728  0.0113 -0.2360
20931OCT     C241862   3.522   4.568  17.570  0.0561 -0.1479  0.0565
20932OCT     C141863  14.853  10.766  11.138  0.2867 -0.0677  0.2353
20932OCT     C241864  15.147  10.542  10.849  0.0714 -0.0883 -0.3104
20933OCT     C141865  23.136  14.055  23.190 -0.3970  0.1317 -0.2753
20933OCT     C241866  22.986  13.610  23.148  0.1570  0.1481  0.0783
20934OCT     C141867   8.228  22.152   6.491  0.3814  0.1335 -0.0450
20934OCT     C241868   8.301  21.843   6.109  0.1622  0.1127  0.2073
20935OCT     C141869  18.053  11.227  14.178 -0.1338 -0.2125  0.2537
20935OCT     C241870  17.622  11.096  14.095  0.4521  0.1304 -0.2591
20936OCT     C141871  17.057  11.516  15.936  0.1194  0.1643  0.2128
20936OCT     C241872  17.239  11.882  15.809  0.1518  0.1312 -0.0910
20937OCT     C141873   5.179   7.791  23.518  0.1050 -0.1332 -0.2576
20937OCT     C241874   5.607   7.602  23.476 -0.0015 -0.0119  0.0975
20938OCT     C141875  22.084  14.971   2.113 -0.0234 -0.1722 -0.1028
20938OCT     C241876  22.220  14.755   1.755  0.2357  0.0204  0.0860
20939OCT     C141877  19.950   7.501  23.487 -0.0209 -0.0479  0.0813
20939OCT     C241878  20.156   7.821  23.206  0.1765  0.1596  0.1708
20940OCT     C141879   9.370   6.860   6.596  0.0971 -0.4328 -0.6010
20940OCT     C241880   9.000   6.763   6.384 -0.1507 -0.0525 -0.1891
20941OCT     C141881  12.211   2.101  20.530  0.1871 -0.1494  0.0382
20941OCT     C241882  12.651   1.929  20.548  0.0981  0.1969  0.1277
20942OCT     C141883  13.387  20.869  13.669 -0.2435  0.1234  0.3361
20942OCT     C241884  13.322  20.454  13.456  0.0956  0.1197  0.0573
20943OCT     C141885   4.014  12.457  19.915  0.3811  0.1284  0.1342
20943OCT     C241886   4.126  12.497  19.449  0.1486 -0.0022  0.2825
20944OCT     C141887   5.523  16.331  22.361 -0.0822 -0.2547 -0.0492
20944OCT     C241888   5.166  16.531  22.674 -0.2450 -0.0608 -0.2799
20945OCT     C141889  20.036  10.495  18.594 -0.4428 -0.0132 -0.2164
20945OCT     C241890  19.911  10.823  18.998  0.1512 -0.0363 -0.0584
20946OCT     C141891   0.383   4.959   8.947 -0.1217 -0.1443  0.0569
20946OCT     C241892   0.177   4.843   8.542 -0.0310 -0.1971  0.3568
20947OCT     C141893   2.182   0.263  12.539  0.1851 -0.0471  0.0863
20947OCT     C241894   2.088   0.665  12.389  0.1479 -0.5299  0.2933
20948OCT     C141895   9.840  18.069  12.584 -0.4955 -0.2115  0.0876
20948OCT     C241896  10.063  18.394  12.823  0.2963  0.1132 -0.3069
20949OCT     C141897  15.914  13.001   4.391 -0.0935  0.1072  0.3496
20949OCT     C241898  16.256  12.777   4.488 -0.3122 -0.0214  0.0293
20950OCT     C141899   5.258   0.125   6.920 -0.0127  0.4175 -0.1856
20950OCT     C241900   5.418  23.713   7.359  0.0315 -0.1190  0.3305
20951OCT     C141901  22.155   0.182   7.811 -0.4529 -0.0333 -0.1807
20951OCT     C241902  21.740  23.733   7.806 -0.1406 -0.1991 -0.2509
20952OCT     C141903  18.377  12.943   3.074  0.2726  0.0906  0.2307
20952OCT     C241904  18.542  12.927   2.631 -0.0497  0.1119 -0.0004
20953OCT     C141905   5.457   8.196  20.342  0.0748 -0.0449 -0.1275
20953OCT     C241906   5.706   8.578  20.441  0.2599 -0.1648  0.0049
20954OCT     C141907  13.872  16.176  10.916 -0.1327 -0.0497 -0.0151
20954OCT     C241908  14.336  16.214  10.713  0.1536 -0.1369  0.1273
20955OCT     C141909  22.595   6.236  22.142 -0.1400  0.0317 -0.3978
20955OCT     C241910  22.551   6.637  22.082 -0.2181  0.1529 -0.2294
20956OCT     C141911  13.357   2.386   8.632  0.2982 -0.2552 -0.1100
20956OCT     C241912  13.123   2.802   8.586  0.3578  0.2370 -0.4366
20957OCT     C141913   5.464   7.478  16.174 -0.0382 -0.1798 -0.3324
20957OCT     C241914   5.782   7.761  16.296 -0.1077  0.2653 -0.2341
20958OCT     C141915  11.738  15.666  19.861 -0.0552  0.3897  0.1336
20958OCT     C241916  11.812  15.818  20.355  0.1864  0.2329 -0.1197
20959OCT     C141917   1.399   6.262  10.133 -0.2859 -0.0635 -0.1779
20959OCT     C241918   0.988   6.057  10.169  0.1064  0.1665 -0.2213
20960OCT     C141919   2.460   7.886  19.435 -0.0863  0.0121  0.2237
20960OCT     C241920   2.095   7.825  19.188 -0.0476  0.0067  0.2439
20961OCT     C141921  21.386  11.421  20.790 -0.0065 -0.4605 -0.0708
20961OCT     C241922  21.472  11.015  21.006  0.1361  0.3170 -0.2835
20962OCT     C141923   9.680  20.377  22.086 -0.0097 -0.1477  0.1880
20962OCT     C241924   9.777  20.369  22.540 -0.0290  0.4010  0.2084
20963OCT     C141925  23.282  12.113  14.422  0.0212  0.1305  0.1516
20963OCT     C241926  23.259  11.851  14.802 -0.0306 -0.1849 -0.0252
20964OCT     C141927  20.300   4.556   1.183  0.0084  0.1939 -0.0754
20964OCT     C241928  20.627   4.297   1.004  0.0931  0.1196  0.1717
20965OCT     C141929  20.314  11.106  16.701 -0.2041  0.1282 -0.0154
20965OCT     C241930  20.236  11.289  17.124  0.3285  0.1433 -0.2380
20966OCT     C141931  15.068  17.493   8.909  0.0006  0.0826 -0.0339
20966OCT     C241932  14.753  17.838   8.969  0.2281  0.0764  0.1489
20967OCT     C141933   4.878  13.534  17.677  0.2596 -0.1266 -0.1193
20967OCT     C241934   4.486  13.777  17.606 -0.0112  0.0212  0.0140
20968OCT     C141935  17.296  15.427   5.750 -0.0831 -0.0021  0.0739
20968OCT     C241936  16.946  15.175   5.511  0.0807 -0.0384  0.2176
20969OCT     C141937   4.378  10.309  21.533 -0.0782 -0.0008  0.1651
20969OCT     C241938   4.637  10.144  21.206 -0.1929  0.1979  0.0960
20970OCT     C141939  10.639  10.711   8.506 -0.5373 -0.0838  0.0420
20970OCT     C241940  10.622  10.314   8.828  0.1367  0.0688  0.1690
20971OCT     C141941   3.139   3.948  11.751 -0.0026 -0.0754  0.0978
20971OCT     C241942   3.326   3.833  11.306 -0.2875 -0.4417  0.0470
20972OCT     C141943  15.534  17.359   2.848 -0.2259 -0.3373  0.1651
20972OCT     C241944  15.285  17.628   3.121  0.1241  0.1506 -0.1990
20973OCT     C141945   0.427  23.422  23.480 -0.0219 -0.1978 -0.2306
20973OCT     C241946   0.020  23.327   0.012  0.0381 -0.2031  0.0314
20974OCT     C141947   0.911  12.159  18.563 -0.3509  0.2800 -0.2080
20974OCT     C241948   0.837  11.775  18.308 -0.1158 -0.1593  0.1739
20975OCT     C141949  18.620   0.854  21.134 -0.1742 -0.1774  0.0834
20975OCT     C241950  18.322   0.856  20.788 -0.1812 -0.1209  0.2611
20976OCT     C141951  23.439  20.024   1.379 -0.0268  0.0529 -0.3663
20976OCT     C241952  23.618  19.935   1.828 -0.1202  0.1003  0.2194
20977OCT     C141953   2.225   2.601  14.480 -0.2767 -0.1327  0.1924
20977OCT     C241954   1.970   2.418  14.793 -0.0027  0.0960 -0.5913
20978OCT     C141955  23.278  23.520  21.417 -0.2646 -0.2348  0.2249
20978OCT     C241956  23.068  23.142  21.360  0.0425  0.0889 -0.0660
20979OCT     C141957  11.916  16.422   4.204  0.2971  0.0312 -0.2142
20979OCT     C241958  12.059  16.833   3.990  0.1870  0.1983  0.1959
20980OCT     C141959   7.629  12.293   4.259 -0.3205 -0.1843 -0.0679
20980OCT     C241960   7.559  11.826   4.122 -0.0728 -0.1877 -0.0158
20981OCT     C141961  11.254  10.477  14.357  0.0066 -0.1987 -0.1568
20981OCT     C241962  11.684  10.467  14.565  0.1469 -0.1475  0.1229
20982OCT     C141963  11.198   9.358  13.125  0.2087  0.0504  0.2963
20982OCT     C241964  11.146   8.857  13.046 -0.2011  0.1203  0.4421
20983OCT     C141965  16.908  21.432  11.865  0.0194  0.2803  0.1303
20983OCT     C241966  16.977  21.883  11.738 -0.1660  0.4635 -0.1630
20984OCT     C141967  13.665   2.642  12.442  0.0220 -0.4345 -0.0733
20984OCT     C241968  14.048   2.468  12.732  0.3582  0.1929  0.1650
20985OCT     C141969   4.208   0.748   9.287 -0.4468 -0.2067 -0.0279
20985OCT     C241970   3.997   1.069   9.120 -0.2419 -0.0474  0.0557
20986OCT     C141971   0.377  20.610  17.861 -0.3818 -0.0588  0.0505
20986OCT     C241972   0.630  20.994  17.786 -0.2017 -0.1418  0.1045
20987OCT     C141973  23.360  19.232  21.492  0.2383 -0.0866  0.2399
20987OCT     C241974  23.353  18.822  21.308 -0.0171  0.0582 -0.0016
20988OCT     C141975  13.431  23.736  16.440 -0.3966  0.0624  0.1602
20988OCT     C241976  13.612  23.469  16.065 -0.4375  0.0784 -0.1756
20989OCT     C141977   3.036  19.062  18.389 -0.3059 -0.0648  0.1027
20989OCT     C241978   3.013  18.604  18.523  0.0153  0.2258 -0.1762
20990OCT     C141979   4.126   3.094  20.280  0.3500 -0.0143  0.0237
20990OCT     C241980   4.470   2.799  20.199  0.1593 -0.0614 -0.2775
20991OCT     C141981  21.332   9.470   4.686  0.0865  0.1255  0.1019
20991OCT     C241982  20.938   9.227   4.700  0.1998  0.0429 -0.1536
20992OCT     C141983  11.046   7.089   9.179 -0.1000 -0.1181  0.3528
20992OCT     C241984  11.036   6.904   8.728 -0.1013  0.2878 -0.1106
20993OCT     C141985  11.003   3.404   4.884  0.1406  0.0471 -0.0640
20993OCT     C241986  11.405   3.307   4.681 -0.1359  0.1715 -0.2138
20994OCT     C141987   8.969   4.883  16.968  0.0120 -0.2184 -0.0451
20994OCT     C241988   9.165   5.108  17.308 -0.1937 -0.1662 -0.2017
20995OCT     C141989   7.921  13.929  11.036 -0.1198 -0.1474 -0.2744
20995OCT     C241990   8.081  13.519  10.864 -0.4556 -0.2834  0.1724
20996OCT     C141991   1.610  11.170   1.398  0.2338 -0.0799  0.4124
20996OCT     C241992   2.046  11.134   1.292 -0.1088 -0.0860 -0.1926
20997OCT     C141993  12.161  17.450  17.547 -0.0904 -0.1990  0.0292
20997OCT     C241994  12.422  17.301  17.140 -0.4496 -0.1294 -0.3163
20998OCT     C141995   1.284   0.910   1.267 -0.3741 -0.2282 -0.0883
20998OCT     C241996   1.574   0.663   1.521 -0.0742 -0.4082  0.2737
20999OCT     C141997  22.808   6.187   8.420 -0.0365  0.4106  0.1767
20999OCT     C241998  22.564   5.849   8.115  0.0750  0.2828  0.0736
21000OCT     C141999  13.742  13.478  22.838  0.2645 -0.0018 -0.1639
21000OCT     C242000  13.771  13.075  22.679  0.0820  0.1489  0.2801
21001OCT     C142001   8.994  10.309  10.155  0.0484 -0.2142 -0.2070
21001OCT     C242002   9.265  10.050  10.458 -0.0088  0.1351  0.1559
21002OCT     C142003  20.963  12.550  22.844 -0.1228  0.1026  0.5405
21002OCT     C242004  21.307  12.876  22.803 -0.2080 -0.2358  0.3313
21003OCT     C142005   0.242   1.652  21.343  0.1622  0.1449  0.2314
21003OCT     C242006  23.563   1.717  21.568  0.0625  0.1016 -0.1503
21004OCT     C142007   3.713  14.788   4.398 -0.1889 -0.1468 -0.2045
21004OCT     C242008   3.448  14.644   4.751  0.1544 -0.2924 -0.0061
21005OCT     C142009   2.887   6.254  21.592  0.1882  0.0738 -0.0192
21005OCT     C242010   2.873   6.613  21.968 -0.2458  0.1909 -0.2709
21006OCT     C142011  14.455  19.644   1.659  0.0267  0.0380  0.0444
21006OCT     C242012  14.944  19.826   1.738  0.1487  0.0445 -0.0482
21007OCT     C142013   0.735   7.817   3.194 -0.2226  0.3586 -0.1081
21007OCT     C242014   0.816   7.668   2.764  0.1275 -0.2151  0.2932
21008OCT     C142015  12.409  22.137  15.120  0.0794  0.2837 -0.3228
21008OCT     C242016  12.758  21.910  15.323  0.0695  0.1255 -0.1303
21009OCT     C142017  18.573  21.556  18.074 -0.2817 -0.0001  0.0220
21009OCT     C242018  18.669  21.440  17.641  0.0800 -0.2654  0.3076
21010OCT     C142019  19.058  23.008  20.320 -0.0062 -0.2503 -0.2800
21010OCT     C242020  19.157  23.040  19.886  0.2908 -0.0837 -0.2567
21011OCT     C142021  19.295  23.569   9.468  0.1015  0.2794 -0.0941
21011OCT     C242022  19.656  23.716   9.278 -0.0680 -0.0228  0.1373
21012OCT     C142023   8.591  12.629   1.380  0.1311  0.1563  0.3473
21012OCT     C242024   8.746  13.102   1.546  0.1803 -0.2511 -0.0039
21013OCT     C142025  10.614   6.789  10.077 -0.3341 -0.0335 -0.0207
21013OCT     C242026  10.933   6.830  10.463 -0.0247  0.0695 -0.0531
21014OCT     C142027  20.892  11.551  15.843 -0.1535 -0.2212 -0.0047
21014OCT     C242028  20.806  12.025  15.813  0.2608  0.3778  0.0231
21015OCT     C142029  23.371  15.809   9.666  0.5403 -0.1053 -0.0433
21015OCT     C242030  23.367  16.185   9.384 -0.2239 -0.1493 -0.1063
21016OCT     C142031  10.824   7.774  10.107 -0.2677 -0.2863  0.1829
21016OCT     C242032  10.958   8.063   9.714 -0.0069 -0.0033 -0.1984
21017OCT     C142033  14.535   1.630   3.091  0.0279  0.3293 -0.3661
21017OCT     C242034  14.372   1.963   2.797 -0.0818  0.5292 -0.2247
21018OCT     C142035  16.115  18.462  19.094  0.1692  0.0944  0.1243
21018OCT     C242036  15.980  18.279  18.739 -0.4991  0.1404 -0.2885
21019OCT     C142037   9.243   8.172   9.006 -0.2066  0.0417 -0.2483
21019OCT     C242038   9.085   8.400   9.329  0.1951 -0.3474  0.0161
21020OCT     C142039   4.042  20.057   6.277 -0.0005 -0.0867 -0.0312
21020OCT     C242040   4.159  19.759   6.545 -0.3841 -0.0860  0.0076
21021OCT     C142041   3.499  20.751   8.503  0.1135  0.0778  0.1177
21021OCT     C242042   3.641  20.723   8.957  0.0082  0.0836 -0.2823
21022OCT     C142043   1.759  17.300   8.486 -0.2124 -0.1111 -0.0927
21022OCT     C242044   1.364  17.472   8.690 -0.0673 -0.1821  0.2009
21023OCT     C142045  15.276  18.341  19.952  0.0877  0.3544 -0.1161
21023OCT     C242046  15.257  18.284  20.442  0.2526 -0.3281  0.0779
21024OCT     C142047   2.511  21.359  15.577 -0.2537  0.1203 -0.1030
21024OCT     C242048   2.835  21.281  15.300  0.1696  0.2369  0.0707
21025OCT     C142049  16.230   3.950  20.033 -0.0852  0.1978 -0.0241
21025OCT     C242050  15.871   3.834  19.739  0.3647 -0.0670 -0.2383
21026OCT     C142051   2.210  20.026  20.639  0.0369  0.2494 -0.0918
21026OCT     C242052   2.678  19.997  20.740 -0.2620  0.0796  0.0010
21027OCT     C142053   4.626  20.400  10.487 -0.0149 -0.0458  0.1866
21027OCT     C242054   5.076  20.339  10.373  0.0155 -0.0307 -0.1890
21028OCT     C142055  10.002   1.243   9.779 -0.0785  0.2386 -0.1103
21028OCT     C242056  10.200   1.584   9.949  0.0160  0.1674  0.1327
21029OCT     C142057  21.446  13.015   4.579 -0.1620  0.0110 -0.0923
21029OCT     C242058  21.795  13.337   4.632 -0.1236 -0.0890 -0.2110
21030OCT     C142059  17.490   8.963   2.772 -0.2472  0.3139 -0.0598
21030OCT     C242060  17.235   8.778   3.103 -0.2216  0.2087  0.1456
21031OCT     C142061   4.414  17.712  11.997 -0.0811  0.0728 -0.3786
21031OCT     C242062   4.619  17.449  12.332  0.0372  0.1853 -0.1224
21032OCT     C142063   8.102   0.029  18.159  0.2963  0.3296  0.0989
21032OCT     C242064   8.030  23.685  18.602  0.2642 -0.4142  0.1461
21033OCT     C142065  18.343   9.983  16.609 -0.0876  0.3453 -0.2289
21033OCT     C242066  18.129   9.774  16.192 -0.0050  0.1176 -0.2594
21034OCT     C142067   6.720  15.615  16.731 -0.0137 -0.0776  0.1208
21034OCT     C242068   6.610  15.500  17.192 -0.0425  0.3153 -0.0216
21035OCT     C142069   9.528   2.304  12.464  0.1346 -0.0599 -0.2871
21035OCT     C242070   9.486   2.616  12.848 -0.0931 -0.0274  0.0303
21036OCT     C142071  11.697  20.017   1.299  0.0377 -0.1241 -0.0885
21036OCT     C242072  11.396  20.272   1.065 -0.2856  0.1541 -0.4163
21037OCT     C142073  10.108  10.628  11.673  0.2019  0.0028 -0.1133
21037OCT     C242074   9.773  10.376  11.919  0.1606  0.3190  0.0680
21038OCT     C142075  13.128  16.247   7.854 -0.1338 -0.2860  0.2644
21038OCT     C242076  13.594  16.419   7.906  0.1890  0.0900  0.1210
21039OCT     C142077  22.356   4.285   8.324 -0.0595 -0.2187  0.2248
21039OCT     C242078  22.429   4.114   8.803 -0.0886 -0.2861 -0.2651
21040OCT     C142079   6.223   5.937  21.091  0.0325  0.0284  0.1927
21040OCT     C242080   6.417   5.854  20.693 -0.2680 -0.1708 -0.0447
21041OCT     C142081  12.576  14.113   9.675 -0.1239  0.2601 -0.0828
21041OCT     C242082  12.068  14.077   9.690 -0.1925  0.3479 -0.0992
21042OCT     C142083   3.779  12.829  14.594  0.1837  0.3018 -0.1145
21042OCT     C242084   3.967  12.448  14.476 -0.0978  0.1294 -0.0688
21043OCT     C142085   0.656  17.393  22.192 -0.1533  0.4682  0.0449
21043OCT     C242086   0.270  17.561  22.308  0.0419  0.0638  0.0491
21044OCT     C142087   3.724  22.903   2.857  0.0353 -0.2780 -0.0762
21044OCT     C242088   3.411  22.599   3.001 -0.2349 -0.1653 -0.1399
21045OCT     C142089   1.308  14.916  16.748 -0.2119 -0.0112  0.2317
21045OCT     C242090   1.033  14.682  17.033 -0.0342  0.1156  0.1601
21046OCT     C142091   2.328  16.744  12.529 -0.0521  0.3455  0.1332
21046OCT     C242092   2.295  16.707  12.030  0.1731  0.1592 -0.0168
21047OCT     C142093   2.296   2.084  16.565 -0.0078  0.2882 -0.2217
21047OCT     C242094   2.527   2.278  16.182  0.2399  0.2891 -0.1936
21048OCT     C142095  11.148   6.981  14.103 -0.0325  0.0960  0.5242
21048OCT     C242096  11.493   6.724  14.171 -0.1560  0.0006 -0.0900
21049OCT     C142097  20.322   7.117   9.147  0.1826 -0.0545 -0.4116
21049OCT     C242098  19.978   6.933   9.335 -0.1884 -0.2900  0.2990
21050OCT     C142099   2.800  16.996  14.520  0.0605  0.0788  0.3672
21050OCT     C242100   2.606  16.969  14.968 -0.2304  0.2841  0.0740
21051OCT     C142101  20.945  12.844  17.321  0.0170 -0.0421 -0.0966
21051OCT     C242102  20.545  12.882  17.088 -0.1515  0.0448 -0.4855
21052OCT     C142103  14.855   9.091  23.210 -0.1971  0.2041  0.1060
21052OCT     C242104  14.556   9.201  22.892 -0.2578  0.1379  0.1388
21053OCT     C142105  19.814  11.466  20.261  0.0346  0.4542 -0.3083
21053OCT     C242106  20.055  11.853  20.226 -0.0664  0.2703  0.1130
21054OCT     C142107  11.475   7.870  17.398 -0.2513  0.0226 -0.2974
21054OCT     C242108  11.465   7.725  17.894 -0.0314 -0.2881  0.2194
21055OCT     C142109   3.290  19.127  14.322 -0.0693 -0.1958  0.0356
21055OCT     C242110   2.937  19.384  14.373  0.3697  0.0873 -0.0023
21056OCT     C142111   4.613  19.631  10.524 -0.0720  0.0685 -0.3595
21056OCT     C242112   4.862  19.961  10.721  0.1369  0.3004 -0.2280
21057OCT     C142113  22.851  19.912   7.476 -0.2804  0.3051 -0.1051
21057OCT     C242114  23.076  20.352   7.392 -0.1949  0.1769 -0.2850
21058OCT     C142115   7.071   5.350  13.540 -0.0819 -0.1579 -0.0379
21058OCT     C242116   6.598   5.538  13.525  0.1829 -0.1070  0.0711
21059OCT     C142117  11.247  10.200   2.126 -0.2998  0.2672 -0.0873
21059OCT     C242118  11.204   9.939   2.538  0.0038  0.1616 -0.0728
21060OCT     C142119  14.947   2.704  14.271 -0.1723  0.1398  0.4479
21060OCT     C242120  14.704   2.374  14.444 -0.0508 -0.1173  0.4305
21061OCT     C142121  22.740   6.739   9.813 -0.0104  0.5609  0.1625
21061OCT     C242122  22.527   7.008   9.536  0.1866  0.1107  0.3111
21062OCT     C142123   7.424   9.823  18.366  0.1155  0.2486 -0.1393
21062OCT     C242124   7.726  10.160  18.515  0.1358  0.1139  0.0277
21063OCT     C142125  23.339  17.779   1.583 -0.3682 -0.0266 -0.1334
21063OCT     C242126   0.056  17.927   1.613  0.1374 -0.1986 -0.0688
21064OCT     C142127   7.808   2.748  20.043  0.0657 -0.0986  0.3739
21064OCT     C242128   8.177   2.453  20.018 -0.2953 -0.1278 -0.1362
21065OCT     C142129   3.084   5.099   9.425 -0.0287  0.0087 -0.6295
21065OCT     C242130   3.298   5.076   9.022  0.2696  0.0072  0.3936
21066OCT     C142131  13.823   7.464   9.217  0.2040 -0.1470 -0.0391
21066OCT     C242132  14.180   7.698   9.421  0.1201 -0.0242  0.0191
21067OCT     C142133  23.010   9.908   4.790  0.2046 -0.1252  0.0273
21067OCT     C242134  22.872  10.171   5.130 -0.0735 -0.4597 -0.2872
21068OCT     C142135  17.293   1.828   5.832 -0.1210  0.1750 -0.1234
21068OCT     C242136  17.682   2.037   5.644  0.0623 -0.3462 -0.3965
21069OCT     C142137  23.422  14.160  10.300  0.1807 -0.0225 -0.2601
21069OCT     C242138   0.063  14.411  10.149  0.1537  0.0115 -0.2213
21070OCT     C142139  21.570   3.003  12.500 -0.2068  0.0048 -0.0589
21070OCT     C242140  21.687   2.601  12.837  0.1964  0.1595 -0.1585
21071OCT     C142141  17.485  19.829  21.789  0.0844 -0.0698  0.0061
21071OCT     C242142  17.588  19.934  21.381 -0.1474  0.0484  0.1690
21072OCT     C142143   4.712   5.241   8.677 -0.1253  0.0721  0.2485
21072OCT     C242144   5.083   5.082   8.943 -0.2088 -0.2160  0.4322
21073OCT     C142145  21.295   0.127   1.719 -0.2616  0.1155  0.1551
21073OCT     C242146  21.019   0.258   2.017  0.2295  0.1837 -0.1487
21074OCT     C142147   2.159  12.396   5.276  0.1520  0.1553 -0.1378
21074OCT     C242148   2.381  12.384   5.701 -0.4344 -0.1812  0.2129
21075OCT     C142149  14.600  21.740   5.791 -0.3987  0.0376  0.1074
21075OCT     C242150  14.432  22.076   6.098  0.4795 -0.2760 -0.2890
21076OCT     C142151   7.379   8.547  16.272 -0.3017  0.2985  0.0801
21076OCT     C242152   7.691   8.829  16.002 -0.1351  0.0072  0.1295
21077OCT     C142153   6.238   0.587   6.355  0.1389 -0.0922 -0.0010
21077OCT     C242154   6.183   0.293   5.999 -0.1170 -0.1850  0.1920
21078OCT     C142155  17.500  15.142  22.902 -0.0637 -0.0149  0.1283
21078OCT     C242156  17.222  15.002  23.267 -0.2890 -0.0709 -0.0373
21079OCT     C142157  22.698   6.334  15.814 -0.4261  0.4469 -0.1063
21079OCT     C242158  22.277   6.416  15.747  0.4014  0.0989  0.2583
21080OCT     C142159  22.092  23.148  15.397 -0.3404  0.1461 -0.0501
21080OCT     C242160  22.103  22.704  15.496 -0.1656 -0.0546  0.5240
21081OCT     C142161  11.138  15.033   6.997  0.1246 -0.0083 -0.0822
21081OCT     C242162  11.341  15.367   7.220  0.0707  0.2076 -0.1620
21082OCT     C142163  11.107   0.623   4.193  0.0915  0.0506  0.3004
21082OCT     C242164  11.466   0.401   4.236  0.2656 -0.0576  0.3794
21083OCT     C142165  13.201  19.041  12.393 -0.1645 -0.2624 -0.1793
21083OCT     C242166  13.497  19.207  12.158 -0.2825 -0.3525 -0.0625
21084OCT     C142167   9.855  23.366  21.035 -0.0946  0.0185 -0.2395
21084OCT     C242168  10.279  23.343  20.877  0.0440  0.1237  0.1891
21085OCT     C142169   1.577   3.568  11.383 -0.2736  0.1016  0.1785
21085OCT     C242170   2.001   3.485  11.051 -0.4658 -0.1992 -0.5779
21086OCT     C142171  18.656  14.020  23.714 -0.2057 -0.0823  0.0628
21086OCT     C242172  18.411  14.130   0.351  0.2607 -0.0491  0.2109
21087OCT     C142173  10.422   6.136  14.357  0.0501  0.4257  0.0655
21087OCT     C242174  10.638   5.800  14.573 -0.1295 -0.0088  0.1237
21088OCT     C142175  19.993  14.321  20.564 -0.1789  0.0898  0.0207
21088OCT     C242176  20.355  14.563  20.459  0.1959  0.0090  0.1331
21089OCT     C142177   9.166  15.060   3.563  0.0630  0.1957  0.1121
21089OCT     C242178   9.246  14.735   3.249  0.4356  0.1857  0.3691
21090OCT     C142179  16.022  14.599  10.850  0.2195  0.0773  0.4099
21090OCT     C242180  15.692  14.660  11.189  0.2594  0.3229  0.0047
21091OCT     C142181  13.584  20.520  10.176 -0.1232 -0.1392 -0.3983
21091OCT     C242182  13.329  20.840  10.423  0.0250 -0.1481  0.0940
21092OCT     C142183  12.488  12.430  10.764 -0.0013  0.0688 -0.2159
21092OCT     C242184  12.575  12.254  11.183 -0.0704  0.1654 -0.0665
21093OCT     C142185   0.951  17.610  13.201 -0.0524 -0.0176  0.0698
21093OCT     C242186   0.898  17.266  13.518 -0.0670  0.1896  0.0330
21094OCT     C142187  20.213  11.752  13.958  0.4594  0.1700  0.0426
21094OCT     C242188  20.628  11.676  13.642  0.3988 -0.4048 -0.0924
21095OCT     C142189   5.170   4.060  19.527  0.5891 -0.1475  0.1589
21095OCT     C242190   5.417   4.493  19.539 -0.2639 -0.0137 -0.1740
21096OCT     C142191   8.170  22.981   6.983  0.0593  0.0900 -0.2140
21096OCT     C242192   8.145  22.600   6.762  0.1847 -0.1895 -0.0389
21097OCT     C142193   1.558   4.996   2.562 -0.0931 -0.1203 -0.0760
21097OCT     C242194   1.851   4.974   2.195 -0.3125  0.2487  0.1025
21098OCT     C142195   4.940  18.105  23.378  0.2865 -0.0011  0.2099
21098OCT     C242196   5.221  17.729  23.446  0.4107  0.2055 -0.1682
21099OCT     C142197  22.540  22.266  19.884  0.3291  0.0135 -0.1761
21099OCT     C242198  22.912  22.182  19.618 -0.1397 -0.0158  0.2447
21100OCT     C142199  23.261   5.012  18.650  0.1579 -0.0984  0.1375
21100OCT     C242200  23.359   4.902  18.197  0.2855 -0.1777  0.2148
21101OCT     C142201  22.946  12.166  17.842  0.0594  0.0904  0.0626
21101OCT     C242202  22.588  12.310  18.184  0.0729  0.2585 -0.0849
21102OCT     C142203   1.637   0.887  16.362  0.0189 -0.1352 -0.0129
21102OCT     C242204   1.563   1.343  16.385 -0.3292  0.0470 -0.5447
21103OCT     C142205  21.984  17.497  11.796  0.1878 -0.0569  0.1504
21103OCT     C242206  22.145  17.113  11.905  0.4658  0.0742 -0.1408
21104OCT     C142207  13.860  21.337  17.965 -0.1177  0.0725 -0.2151
21104OCT     C242208  13.582  21.414  17.616 -0.1079 -0.3511  0.0844
21105OCT     C142209  13.003  16.743  13.410  0.0853  0.0402  0.1407
21105OCT     C242210  13.123  16.383  13.238  0.3138  0.0293 -0.3423
21106OCT     C142211   1.000   3.411   2.338 -0.1461  0.1670  0.0799
21106OCT     C242212   0.675   3.666   2.098  0.2494 -0.1979 -0.0834
21107OCT     C142213  23.185   4.447  12.526 -0.1114 -0.2434  0.2621
21107OCT     C242214  23.497   4.200  12.348  0.0340 -0.1289 -0.1187
21108OCT     C142215  22.039  22.554   1.112 -0.0562  0.0291  0.2469
21108OCT     C242216  22.316  22.694   0.770  0.1503 -0.2095 -0.0492
21109OCT     C142217   2.059  20.515  20.458 -0.3900 -0.0614  0.0630
21109OCT     C242218   1.605  20.569  20.262  0.0247 -0.4527 -0.1990
21110OCT     C142219  12.866  14.297   2.568  0.0243 -0.1705  0.0311
21110OCT     C242220  12.777  14.441   3.000  0.1440  0.1409 -0.2709
21111OCT     C142221   9.338   4.900  15.452  0.0753  0.0820 -0.1366
21111OCT     C242222   9.147   4.563  15.233  0.2671  0.0224  0.1014
21112OCT     C142223  19.455  15.267   7.497 -0.1551  0.1919 -0.0619
21112OCT     C242224  19.769  14.967   7.679 -0.1115 -0.1193  0.2669
21113OCT     C142225   9.064  21.565  18.592  0.0487 -0.1596 -0.1503
21113OCT     C242226   9.407  21.494  18.878 -0.1943 -0.0223 -0.3059
21114OCT     C142227  16.288  11.653   7.181  0.2753  0.3216  0.1711
21114OCT     C242228  15.819  11.677   7.136 -0.3011  0.1577  0.0561
21115OCT     C142229   5.309  12.353   4.797 -0.0933  0.2804  0.1728
21115OCT     C242230   5.484  12.448   4.334 -0.1133 -0.1227  0.1127
21116OCT     C142231   4.810  11.308  18.090 -0.0416  0.2312  0.0530
21116OCT     C242232   4.354  11.422  18.236 -0.3390  0.1151  0.0462
21117OCT     C142233   7.878   1.504   6.708  0.0573 -0.1643  0.2418
21117OCT     C242234   7.603   1.315   6.450 -0.0221 -0.1639  0.3713
21118OCT     C142235  10.030  16.533  10.032  0.4754 -0.2379  0.1926
21118OCT     C242236  10.099  16.732  10.450  0.0213  0.0180  0.3124
21119OCT     C142237   5.784  19.491  21.507 -0.0756 -0.3909  0.0789
21119OCT     C242238   5.832  19.619  21.950  0.0898  0.0343  0.2450
21120OCT     C142239  11.714  14.203   0.934  0.1452 -0.2472  0.0990
21120OCT     C242240  11.975  14.569   0.754  0.3079  0.0451 -0.2699
21121OCT     C142241   8.070   6.464  16.209 -0.0793 -0.0234 -0.0125
21121OCT     C242242   7.844   6.875  16.059 -0.2750  0.0718  0.3005
21122OCT     C142243   9.454  17.571  18.972  0.2613  0.2023 -0.0070
21122OCT     C242244   9.696  17.570  19.393 -0.1003 -0.0192  0.1569
21123OCT     C142245   7.670   7.940   4.434  0.1731  0.1614  0.1543
21123OCT     C242246   7.553   7.949   4.955  0.1416  0.0243  0.0428
21124OCT     C142247   5.061   7.285  22.533  0.2603  0.0647  0.1137
21124OCT     C242248   4.629   7.107  22.674  0.1249  0.1176 -0.1682
21125OCT     C142249   9.673   7.535   0.828  0.2235 -0.2722  0.1472
21125OCT     C242250   9.599   7.985   0.884  0.0137  0.2698  0.2942
21126OCT     C142251   4.535  10.305  18.409  0.0955 -0.0179 -0.0835
21126OCT     C242252   4.265  10.553  18.719  0.0676 -0.0689 -0.3702
21127OCT     C142253  20.998  23.015   4.254  0.0205  0.2894  0.0423
21127OCT     C242254  21.045  22.847   3.826 -0.0303  0.2389 -0.1221
21128OCT     C142255  11.695  14.203  20.958 -0.0199  0.2742  0.2608
21128OCT     C242256  11.903  13.982  21.304 -0.1893  0.0194  0.2378
21129OCT     C142257   0.346  20.352  11.142  0.1354  0.0663  0.1611
21129OCT     C242258   0.446  20.738  10.937  0.3152 -0.0033  0.4091
21130OCT     C142259  19.913   2.898  12.282  0.2347 -0.0491  0.0871
21130OCT     C242260  20.051   2.836  11.861  0.1119 -0.0321 -0.0806
21131OCT     C142261  12.559   7.254  22.729  0.3339  0.1201 -0.0153
21131OCT     C242262  12.280   7.558  22.492 -0.0376 -0.1142  0.0937
21132OCT     C142263   1.029  15.073  21.211  0.5932  0.0805  0.0221
21132OCT     C242264   1.013  15.510  21.397  0.3257 -0.0025  0.2727
21133OCT     C142265   7.188  21.648  13.442 -0.3776 -0.1783  0.2274
21133OCT     C242266   7.022  21.572  13.859 -0.3589  0.1626 -0.1512
21134OCT     C142267  18.323  12.704  10.251 -0.1682  0.0790  0.0889
21134OCT     C242268  18.789  12.679  10.380  0.2562  0.1882 -0.1205
21135OCT     C142269   5.602   1.590   4.431 -0.0207 -0.1392 -0.0261
21135OCT     C242270   5.405   1.686   4.865  0.1919  0.1372 -0.1288
21136OCT     C142271  11.120  15.807  10.312  0.1275  0.0340  0.2630
21136OCT     C242272  10.891  16.223  10.155 -0.0503  0.2707  0.0066
21137OCT     C142273  11.583  14.535  10.414 -0.0049 -0.0328  0.1628
21137OCT     C242274  11.437  14.556  10.879 -0.1529  0.2079 -0.2538
21138OCT     C142275  22.456  14.039  21.239  0.0641  0.1317  0.0447
21138OCT     C242276  22.520  13.886  21.676 -0.2048  0.3417 -0.0784
21139OCT     C142277  15.753  20.699  20.296 -0.0664 -0.0207  0.1797
21139OCT     C242278  16.043  20.587  19.925  0.4593 -0.2895  0.1670
21140OCT     C142279   9.783   6.119  12.482 -0.2906 -0.4882 -0.0137
21140OCT     C242280   9.985   6.182  12.154  0.0838  0.2117  0.0890
21141OCT     C142281  20.186   7.822   7.908  0.4472 -0.1626  0.1090
21141OCT     C242282  20.069   7.573   8.284 -0.2502 -0.1916 -0.2577
21142OCT     C142283  23.694  18.467  20.915 -0.1350 -0.1312 -0.0871
21142OCT     C242284   0.034  18.061  21.067 -0.4297 -0.0046  0.1820
21143OCT     C142285  21.473  20.702  14.483  0.4791  0.1142 -0.4326
21143OCT     C242286  21.326  21.150  14.549 -0.3546 -0.0679  0.0747
21144OCT     C142287  22.387  16.893  12.285  0.2251  0.1093  0.1304
21144OCT     C242288  22.529  16.456  12.369  0.4052  0.1299 -0.2541
21145OCT     C142289  17.962   4.392  17.515 -0.0633  0.2483  0.1022
21145OCT     C242290  17.962   4.523  17.076  0.5757  0.1202  0.1541
21146OCT     C142291  12.585  15.268   0.760  0.0638 -0.0354 -0.1475
21146OCT     C242292  12.359  14.870   0.752 -0.0566  0.2770  0.0501
21147OCT     C142293  15.978   3.913  14.199  0.0156  0.2296 -0.2255
21147OCT     C242294  15.526   3.875  14.103  0.2023 -0.1786  0.0187
21148OCT     C142295   5.733   2.737  18.649 -0.0303  0.2762 -0.0372
21148OCT     C242296   5.738   2.945  18.201  0.4120  0.2328  0.2803
21149OCT     C142297   0.164  15.881  10.957 -0.1861 -0.4166 -0.0160
21149OCT     C242298  23.658  16.205  11.186 -0.0278 -0.2510  0.0325
21150OCT     C142299  18.990  12.363  12.773  0.0103  0.1087 -0.3596
21150OCT     C242300  19.373  12.077  12.919 -0.6075 -0.1490  0.1431
21151OCT     C142301  11.250  14.251  13.960  0.1875 -0.2948 -0.0242
21151OCT     C242302  11.121  14.204  13.502 -0.1109 -0.0213  0.0669
21152OCT     C142303   3.670  15.929  14.192  0.4172  0.7479  0.1466
21152OCT     C242304   3.500  16.283  13.958  0.3329  0.0067 -0.1400
21153OCT     C142305  14.351  17.845  22.975  0.3294 -0.2646  0.3086
21153OCT     C242306  14.310  18.011  23.432  0.1454  0.1753  0.3936
21154OCT     C142307  18.779   5.461  21.667 -0.3327 -0.0342 -0.0621
21154OCT     C242308  18.750   5.388  21.170 -0.3624  0.1204  0.1710
21155OCT     C142309  13.212   7.839   3.208 -0.0324  0.4144  0.2755
21155OCT     C242310  13.273   7.426   3.478  0.2680  0.2482 -0.1297
21156OCT     C142311   7.125  21.159  11.019 -0.0379  0.1677 -0.0501
21156OCT     C242312   6.689  21.401  10.996  0.2147  0.0296  0.5012
21157OCT     C142313  21.307  12.699   4.950 -0.2767 -0.2964 -0.0491
21157OCT     C242314  21.066  13.023   5.200 -0.1200 -0.0538  0.1385
21158OCT     C142315   3.302   4.913  12.007 -0.0501  0.3548 -0.2467
21158OCT     C242316   3.314   5.347  11.946 -0.1132 -0.3418 -0.1967
21159OCT     C142317   0.923  14.708  23.265  0.1944  0.0949  0.2766
21159OCT     C242318   0.981  14.654   0.002  0.0886  0.0778 -0.1142
21160OCT     C142319  18.295  10.784   0.781  0.1111  0.0633 -0.0086
21160OCT     C242320  18.715  10.744   0.855 -0.1057 -0.0393 -0.2378
21161OCT     C142321  23.236   6.260  17.901  0.2305 -0.0176  0.2373
21161OCT     C242322  23.367   6.569  17.504 -0.0078 -0.0606  0.0603
21162OCT     C142323  13.798  19.129  22.327 -0.2212 -0.1900  0.0513
21162OCT     C242324  14.118  19.372  22.134  0.1210  0.1523  0.2532
21163OCT     C142325   4.022  23.604  11.199 -0.0930 -0.4912  0.2212
21163OCT     C242326   3.727  23.514  11.547  0.2499 -0.0576 -0.0119
21164OCT     C142327  23.565  12.573  23.636 -0.0238 -0.0059  0.0334
21164OCT     C242328  23.581  12.184   0.190  0.1620  0.0546  0.2712
21165OCT     C142329   6.193  19.047   8.579 -0.0618 -0.0691 -0.3265
21165OCT     C242330   6.110  19.405   8.840  0.1990 -0.2980  0.2154
21166OCT     C142331  10.818  13.801  16.630 -0.0271 -0.0306  0.1803
21166OCT     C242332  11.081  13.671  16.259  0.0017 -0.0279 -0.4127
21167OCT     C142333   9.019  19.201  17.775 -0.0485 -0.2702  0.1597
21167OCT     C242334   8.923  19.145  17.284  0.0034 -0.1992 -0.0255
21168OCT     C142335  16.822  13.265  22.066  0.1329 -0.1001  0.0586
21168OCT     C242336  16.837  13.634  22.309  0.2699  0.3554 -0.0285
21169OCT     C142337  22.925   1.419  15.257 -0.0557  0.1178 -0.0429
21169OCT     C242338  22.643   1.120  15.510 -0.3022 -0.0648  0.0213
21170OCT     C142339  14.004  13.701   8.771 -0.0744  0.0508 -0.1151
21170OCT     C242340  14.434  13.836   8.653 -0.4711  0.2011 -0.3884
21171OCT     C142341  22.888  20.931   4.034 -0.3766  0.1767  0.3680
21171OCT     C242342  23.120  21.187   3.669 -0.2118  0.4242  0.0990
21172OCT     C142343  23.133  22.718   7.783 -0.1758  0.0283 -0.2068
21172OCT     C242344  22.744  22.486   7.620  0.1015 -0.1928 -0.3727
21173OCT     C142345   1.868   9.565   7.866  0.2630  0.0364 -0.0552
21173OCT     C242346   1.480   9.414   8.051  0.1727 -0.0448  0.0919
21174OCT     C142347   2.998   5.168   0.853 -0.1850  0.0942  0.0068
21174OCT     C242348   3.343   5.051   1.131  0.2486 -0.2277 -0.0423
21175OCT     C142349  10.118   3.926   4.046  0.0083  0.0753  0.3669
21175OCT     C242350  10.240   3.551   4.214  0.4267  0.0295  0.0711
21176OCT     C142351  18.481   9.258   9.664  0.0163 -0.3206  0.3584
21176OCT     C242352  18.315   9.543  10.079  0.1542  0.0378  0.1414
21177OCT     C142353  10.717  14.832  19.968  0.3880 -0.0254 -0.1479
21177OCT     C242354  10.360  14.692  20.225  0.1512 -0.2360 -0.0585
21178OCT     C142355  20.813   8.434   2.612 -0.3239 -0.3288  0.0161
21178OCT     C242356  20.610   8.855   2.698  0.1863  0.0262 -0.1448
21179OCT     C142357  21.791  19.391   9.964 -0.2105  0.0399 -0.1545
21179OCT     C242358  21.845  19.459  10.444 -0.2075 -0.0476 -0.3695
21180OCT     C142359  21.305  11.472  14.256 -0.0955 -0.4511  0.1508
21180OCT     C242360  21.440  11.865  14.474 -0.1645  0.0599 -0.0469
21181OCT     C142361  11.621  12.121  23.410 -0.1350 -0.1340 -0.1837
21181OCT     C242362  11.246  12.420  23.363 -0.1688  0.0877  0.1989
21182OCT     C142363   8.118  23.659   4.602  0.0856 -0.1338  0.0584
21182OCT     C242364   7.991  23.207   4.538 -0.0718 -0.3113 -0.1012
21183OCT     C142365   1.886  17.905   1.882  0.0312 -0.1672  0.3206
21183OCT     C242366   1.817  17.705   2.245 -0.0299 -0.3034 -0.1414
21184OCT     C142367  19.759  17.427   6.027  0.0730 -0.2174  0.0650
21184OCT     C242368  19.584  17.613   5.595 -0.0318  0.1033 -0.1273
21185OCT     C142369  11.854   6.297  20.018 -0.2778 -0.1265 -0.0212
21185OCT     C242370  12.187   6.562  20.244  0.2139 -0.1203  0.1054
21186OCT     C142371   3.031   0.906  22.966  0.0073  0.0753 -0.3216
21186OCT     C242372   2.560   1.150  22.933 -0.1088 -0.3629  0.0366
21187OCT     C142373   1.400  20.195  14.753  0.4902 -0.1116  0.0101
21187OCT     C242374   1.009  20.233  15.001 -0.0187  0.2788 -0.0600
21188OCT     C142375   1.408  19.423   1.973  0.1241  0.1163  0.3775
21188OCT     C242376   1.565  19.003   1.859 -0.0448  0.1295 -0.2928
21189OCT     C142377   7.773  13.498  19.716  0.0150  0.2425 -0.1382
21189OCT     C242378   7.287  13.581  19.874 -0.0548  0.1767  0.2881
21190OCT     C142379  21.821  21.759  17.972  0.1113  0.3322 -0.1545
21190OCT     C242380  22.192  21.736  17.713 -0.2222  0.1880  0.2062
21191OCT     C142381  13.142   5.262  19.054  0.2370  0.2553  0.2534
21191OCT     C242382  13.538   5.392  18.862 -0.3648 -0.2627  0.3451
21192OCT     C142383   6.759  13.702  13.021 -0.0917  0.1431 -0.2537
21192OCT     C242384   7.176  13.927  13.074  0.0200 -0.1290 -0.4813
21193OCT     C142385   4.093  18.931  11.691 -0.2303 -0.0499 -0.3453
21193OCT     C242386   4.257  19.127  12.021  0.0453 -0.2007 -0.1991
21194OCT     C142387  10.114   0.246  13.569 -0.0366  0.0404  0.1605
21194OCT     C242388  10.503   0.072  13.635 -0.1015 -0.1266 -0.1816
21195OCT     C142389  13.266  11.004   5.806 -0.1335  0.0156 -0.1989
21195OCT     C242390  13.592  11.043   5.526 -0.0881 -0.0703  0.0421
21196OCT     C142391   0.490  20.286  10.068  0.1039  0.2598 -0.2012
21196OCT     C242392   0.594  20.212   9.641 -0.2168  0.3760  0.1444
21197OCT     C142393   4.359  20.123   2.935 -0.2379  0.3145  0.2399
21197OCT     C242394   4.192  19.706   3.084  0.0305  0.1556 -0.0257
21198OCT     C142395  15.833  18.904   5.915 -0.2487 -0.0802 -0.4473
21198OCT     C242396  16.134  18.627   5.700  0.0967 -0.2149 -0.1360
21199OCT     C142397  21.821   5.188  16.775  0.2833  0.0030 -0.0214
21199OCT     C242398  21.791   5.422  16.345  0.1087 -0.0481 -0.1775
21200OCT     C142399  20.705  16.334   1.040 -0.0090 -0.1312 -0.2318
21200OCT     C242400  21.094  16.095   0.852  0.2614 -0.0177  0.0659
21201OCT     C142401  19.160   2.444  19.176  0.2907 -0.3285  0.1432
21201OCT     C242402  19.373   2.143  19.447  0.1777  0.1005 -0.3129
21202OCT     C142403  20.340  16.796  10.387  0.1827 -0.0242  0.1164
21202OCT     C242404  20.733  16.723  10.119 -0.1288  0.4102  0.3039
21203OCT     C142405   9.853   1.567  18.859  0.0911  0.1748  0.1707
21203OCT     C242406  10.195   1.322  18.978 -0.0465  0.0280  0.0166
21204OCT     C142407  11.274   8.731  10.867  0.1427  0.2128 -0.0124
21204OCT     C242408  10.918   8.690  10.558  0.1357  0.0479 -0.1728
21205OCT     C142409   8.924  21.178  10.735 -0.1605  0.1013 -0.4379
21205OCT     C242410   9.096  20.931  10.376  0.2625 -0.1136  0.2589
21206OCT     C142411  19.691  12.288   0.632 -0.1484 -0.2905 -0.1331
21206OCT     C242412  19.375  11.925   0.547 -0.0407 -0.3453 -0.1234
21207OCT     C142413  20.312  20.010   1.299  0.4318 -0.0712  0.0628
21207OCT     C242414  19.954  19.896   1.618  0.1603 -0.3107 -0.3230
21208OCT     C142415  11.198  18.811  21.958 -0.0651  0.2476 -0.0818
21208OCT     C242416  10.741  18.865  22.035  0.0763  0.1401  0.1829
21209OCT     C142417   6.913  19.701  13.617 -0.1368 -0.1738 -0.0579
21209OCT     C242418   7.211  19.810  13.320 -0.2137 -0.3568 -0.1457
21210OCT     C142419   0.614   1.914  17.306  0.2695  0.0609  0.3548
21210OCT     C242420   0.654   2.311  16.991 -0.1193 -0.5293  0.0588
21211OCT     C142421  15.642   2.399  21.704 -0.3727  0.0203  0.0900
21211OCT     C242422  15.342   2.557  22.015  0.1294  0.0052  0.2790
21212OCT     C142423   7.861  15.528   4.828 -0.1457 -0.0093 -0.0274
21212OCT     C242424   8.245  15.715   4.632  0.3071 -0.0538  0.1102
21213OCT     C142425   3.524   0.881   0.267 -0.3524 -0.1039 -0.0585
21213OCT     C242426   4.002   0.970   0.131  0.6831  0.1601  0.2885
21214OCT     C142427  17.935   0.869  11.984 -0.0016  0.2673  0.0364
21214OCT     C242428  18.059   1.331  11.910 -0.0256  0.0232  0.1690
21215OCT     C142429  11.071   6.455  11.716 -0.2446  0.3609  0.4438
21215OCT     C242430  11.419   6.606  11.978 -0.0666  0.2868 -0.5590
21216OCT     C142431  10.070  22.673   1.213  0.1006  0.1156  0.0608
21216OCT     C242432   9.883  22.908   1.557  0.1207  0.2459  0.0036
21217OCT     C142433   9.563  14.631   1.340  0.0485  0.1737  0.0846
21217OCT     C242434   9.536  15.059   1.204  0.3646 -0.0664  0.2679
21218OCT     C142435  14.184  14.521  23.336  0.0672 -0.1583 -0.3038
21218OCT     C242436  14.472  14.871  23.369 -0.2398  0.0303 -0.4512
21219OCT     C142437  16.804  17.711   4.809  0.0058 -0.0816 -0.2070
21219OCT     C242438  16.619  17.928   5.195  0.0270  0.1918 -0.0609
21220OCT     C142439   8.753   7.896  13.593  0.0558  0.0095  0.1476
21220OCT     C242440   8.520   7.618  13.320  0.0773 -0.2904  0.2053
21221OCT     C142441   0.263  18.204   8.468  0.0042 -0.3312 -0.0338
21221OCT     C242442   0.102  18.340   8.887 -0.0598  0.1872 -0.0027
21222OCT     C142443  14.502  16.953  22.193  0.2660  0.2019 -0.1911
21222OCT     C242444  14.221  17.210  22.417  0.4233  0.2080 -0.2016
21223OCT     C142445  13.576  18.170  17.924  0.5121  0.3707  0.0023
21223OCT     C242446  13.699  17.687  17.889  0.1289 -0.1584 -0.0005
21224OCT     C142447   2.889  21.807   6.052 -0.0170  0.0297 -0.2112
21224OCT     C242448   2.499  21.755   6.311  0.0665 -0.1033  0.2615
21225OCT     C142449   6.101   3.201  23.710  0.0548  0.1554  0.0991
21225OCT     C242450   6.262   3.402  23.396  0.1206  0.2169  0.0795
21226OCT     C142451  19.744   2.289  21.380 -0.2098  0.2097  0.1249
21226OCT     C242452  19.486   2.006  21.066 -0.3717 -0.0513 -0.1311
21227OCT     C142453   4.903  14.757   6.766 -0.0748  0.0647  0.1915
21227OCT     C242454   4.518  14.925   6.626  0.2178  0.2778  0.1923
21228OCT     C142455  16.589   0.212  15.881 -0.2476  0.0596 -0.1719
21228OCT     C242456  16.668   0.663  15.817  0.3999 -0.0516  0.0705
21229OCT     C142457   6.009  17.316  15.563 -0.1664  0.0498 -0.4014
21229OCT     C242458   6.250  16.953  15.609  0.0459 -0.5629 -0.0214
21230OCT     C142459   9.431   1.183  19.540  0.0767  0.1684  0.3785
21230OCT     C242460   9.465   1.547  19.279  0.2131 -0.1347  0.0240
21231OCT     C142461   1.455   3.828  18.386 -0.0178  0.0543  0.1316
21231OCT     C242462   1.291   4.214  18.646  0.3724  0.0057  0.2623
21232OCT     C142463   3.139  15.958   8.502  0.1163 -0.5032 -0.1703
21232OCT     C242464   2.975  16.423   8.517  0.3288 -0.2953  0.1980
21233OCT     C142465   0.074  19.125   4.605 -0.1715 -0.1627 -0.0143
21233OCT     C242466   0.465  19.120   4.852  0.0773  0.0327  0.2012
21234OCT     C142467   9.947   0.001  17.771 -0.1288 -0.2011  0.2249
21234OCT     C242468   9.911   0.286  18.166  0.2356 -0.1258  0.1264
21235OCT     C142469   5.702   9.064   9.060 -0.2215  0.4180 -0.2258
21235OCT     C242470   6.042   8.918   9.364 -0.4433  0.0536 -0.1045
21236OCT     C142471  15.512  11.204   6.777  0.1843 -0.0932 -0.3715
21236OCT     C242472  15.087  11.164   6.527 -0.1691 -0.1240 -0.0265
21237OCT     C142473   4.675  14.251   1.045 -0.2826  0.0076 -0.0093
21237OCT     C242474   5.082  14.325   1.278 -0.2191  0.2654 -0.3775
21238OCT     C142475  15.656   7.348   2.542 -0.2929  0.1381 -0.3062
21238OCT     C242476  15.883   7.504   2.155  0.2446 -0.1946 -0.1169
21239OCT     C142477   4.392   8.480   7.690  0.0938 -0.2932 -0.1004
21239OCT     C242478   4.673   8.207   7.409 -0.0571 -0.4314  0.1720
21240OCT     C142479  17.950   6.550  22.841 -0.0825  0.2894  0.0786
21240OCT     C242480  18.094   6.839  22.529  0.1283  0.0248  0.0723
21241OCT     C142481  14.588   5.409  23.007 -0.1369 -0.2591  0.3278
21241OCT     C242482  14.767   5.853  23.004  0.0287  0.3622  0.5085
21242OCT     C142483   9.438  22.546  15.838  0.2325 -0.1013  0.4078
21242OCT     C242484   9.849  22.670  15.848  0.1105  0.1879  0.0083
21243OCT     C142485   9.531   2.109   6.557 -0.1295  0.2411 -0.0447
21243OCT     C242486   9.625   1.740   6.758  0.0621 -0.0197 -0.0130
21244OCT     C142487  19.889  14.844  12.802 -0.0514 -0.0198  0.0243
21244OCT     C242488  19.989  14.976  13.227  0.0125  0.1105 -0.0360
21245OCT     C142489  20.962   7.439  12.866 -0.1137  0.3359  0.5024
21245OCT     C242490  20.790   7.414  12.445  0.1291  0.0577 -0.3950
21246OCT     C142491  10.471  13.978   9.893  0.3942 -0.0238 -0.2663
21246OCT     C242492  10.416  13.596  10.097 -0.0275  0.2480 -0.0253
21247OCT     C142493   9.968  11.227  10.394 -0.1450  0.1690  0.0748
21247OCT     C242494   9.993  10.795  10.476 -0.1404 -0.0111 -0.1782
21248OCT     C142495   3.452  19.437   2.978 -0.1227  0.1158 -0.1007
21248OCT     C242496   3.186  19.845   2.808  0.0265  0.2031 -0.4037
21249OCT     C142497  12.343   2.010   9.290  0.1507  0.3104 -0.3115
21249OCT     C242498  12.116   1.883   8.943 -0.0911  0.1897  0.5628
21250OCT     C142499   5.676   8.275   7.628 -0.2107 -0.2999 -0.4519
21250OCT     C242500   5.214   8.119   7.558 -0.1937  0.3532 -0.2831
21251OCT     C142501   7.135   5.478  11.962 -0.0639  0.7465 -0.0791
21251OCT     C242502   7.467   5.604  12.305 -0.2039  0.1415  0.1509
21252OCT     C142503   9.254   4.899  22.960  0.0907  0.3953  0.0059
21252OCT     C242504   8.874   4.645  22.895 -0.2602 -0.0021  0.0169
21253OCT     C142505  22.941   5.448   1.125 -0.0669  0.1773  0.0652
21253OCT     C242506  23.057   5.315   1.574  0.4368 -0.3628 -0.0065
21254OCT     C142507  21.338  17.946  13.110  0.3272 -0.0041 -0.4638
21254OCT     C242508  21.418  17.482  13.220 -0.4026  0.1418 -0.3218
21255OCT     C142509  21.566  17.167   0.608 -0.2096  0.2617  0.2032
21255OCT     C242510  21.775  17.075   0.173 -0.1703  0.1167 -0.2716
21256OCT     C142511  22.102  18.514   6.821  0.0164 -0.1306  0.0699
21256OCT     C242512  22.470  18.390   6.549 -0.1132  0.2781  0.3041
21257OCT     C142513  10.651  22.830  17.961  0.2304 -0.0357  0.0448
21257OCT     C242514  10.363  22.551  18.254 -0.1747 -0.1447  0.0382
21258OCT     C142515   4.655  19.864   1.520  0.4420 -0.0327  0.1446
21258OCT     C242516   4.887  19.904   1.136  0.2663 -0.1053 -0.5319
21259OCT     C142517  19.831   7.559   4.300 -0.1741  0.1759  0.2793
21259OCT     C242518  19.448   7.439   4.046  0.0937  0.1345 -0.3287
21260OCT     C142519  12.502  21.808  22.363 -0.1517  0.1792 -0.0611
21260OCT     C242520  12.258  21.868  22.003 -0.2606 -0.1162  0.0396
21261OCT     C142521  23.582   1.405   7.799 -0.0566 -0.1017  0.2630
21261OCT     C242522  23.680   1.617   7.445  0.3406 -0.0921  0.1223
21262OCT     C142523  22.648   6.609   7.462  0.2013 -0.0271 -0.2997
21262OCT     C242524  22.911   6.982   7.723 -0.2754 -0.1497  0.0957
21263OCT     C142525  13.749  22.126  13.460 -0.0802  0.1347 -0.3328
21263OCT     C242526  13.591  22.407  13.902 -0.2402  0.3653  0.2294
21264OCT     C142527  11.525  10.544  10.782  0.0377 -0.0824 -0.1922
21264OCT     C242528  11.316  10.689  11.209 -0.2094 -0.2458 -0.0937
21265OCT     C142529  10.696  15.974  17.728  0.3660 -0.4539 -0.5140
21265OCT     C242530  11.029  15.722  17.804  0.1757 -0.1457  0.0359
21266OCT     C142531  14.548  13.246   7.923  0.0774  0.3269 -0.3574
21266OCT     C242532  14.129  13.302   8.014  0.1353  0.0619  0.2070
21267OCT     C142533   2.392   8.782  17.665  0.0353  0.5449 -0.0375
21267OCT     C242534   2.800   8.896  17.765  0.0800 -0.3079  0.0883
21268OCT     C142535  17.571   7.262  15.699 -0.0659  0.1045 -0.0095
21268OCT     C242536  17.202   7.202  15.948 -0.1580  0.1410  0.0301
21269OCT     C142537  12.145   1.527  10.303  0.0934 -0.0994  0.2637
21269OCT     C242538  12.337   1.173  10.502  0.3493 -0.2397 -0.2325
21270OCT     C142539  18.146   8.297  18.508  0.3438 -0.0315 -0.0518
21270OCT     C242540  18.328   8.767  18.434 -0.0058  0.3290 -0.0565
21271OCT     C142541  18.717  14.288  12.817 -0.0309 -0.0124 -0.3637
21271OCT     C242542  18.489  13.885  12.946 -0.2377 -0.3145 -0.2658
21272OCT     C142543   1.094  20.569  12.921 -0.0469 -0.2725  0.1272
21272OCT     C242544   1.514  20.600  12.633 -0.0041 -0.1439 -0.3413
21273OCT     C142545   7.881  15.750   8.310 -0.2808  0.1083 -0.2785
21273OCT     C242546   8.176  15.997   8.018  0.1370 -0.1222  0.5046
21274OCT     C142547  20.484  16.867   2.658  0.3833 -0.0458  0.0063
21274OCT     C242548  20.213  16.887   2.324 -0.0067  0.1387  0.1850
21275OCT     C142549  21.743  22.003   5.514  0.1693  0.2330 -0.0216
21275OCT     C242550  21.862  21.625   5.214 -0.0396 -0.0457  0.0335
21276OCT     C142551   2.184  22.045   5.127 -0.2843 -0.1075 -0.0075
21276OCT     C242552   2.447  22.009   4.726  0.1870  0.0590 -0.0108
21277OCT     C142553  10.533   6.737  18.856  0.1916 -0.2261  0.3715
21277OCT     C242554  10.065   6.753  18.842  0.1726 -0.3821  0.1993
21278OCT     C142555   1.083  10.111  12.114  0.1035  0.2276  0.3034
21278OCT     C242556   1.121  10.435  11.753  0.1816  0.3302 -0.2771
21279OCT     C142557  21.956   9.796  13.697  0.0411 -0.0997 -0.2141
21279OCT     C242558  22.424   9.879  13.650 -0.1045 -0.3015 -0.2589
21280OCT     C142559   7.405   9.830  15.022  0.1867  0.2328 -0.1601
21280OCT     C242560   7.611  10.102  14.681 -0.1364  0.2362  0.1103
21281OCT     C142561  22.696   1.153  18.342  0.0268  0.3145 -0.1543
21281OCT     C242562  22.860   1.562  18.406  0.0266  0.0896 -0.1644
21282OCT     C142563   2.439   3.702  14.751  0.1942  0.2297  0.0743
21282OCT     C242564   2.839   3.407  14.647  0.1996 -0.0813 -0.0007
21283OCT     C142565  16.102  19.757  20.271 -0.0733  0.1530  0.1582
21283OCT     C242566  16.144  19.389  20.539 -0.1145  0.1392 -0.0707
21284OCT     C142567   6.073  20.936   0.848  0.1903  0.2173  0.1406
21284OCT     C242568   6.114  20.468   0.658 -0.2943 -0.0623  0.1195
21285OCT     C142569  21.333  13.184  23.732  0.1662  0.2287  0.1447
21285OCT     C242570  21.622  13.519   0.133 -0.1499 -0.1177  0.0890
21286OCT     C142571   1.786  23.183  19.042  0.1623 -0.2554 -0.1491
21286OCT     C242572   1.493  22.913  19.314  0.0430  0.2872  0.2036
21287OCT     C142573   3.624  19.937   5.043  0.0448  0.3141  0.1082
21287OCT     C242574   3.537  20.066   5.435 -0.0349 -0.0844 -0.0553
21288OCT     C142575  22.339   4.576  14.419 -0.0223  0.0771 -0.1705
21288OCT     C242576  22.560   4.427  14.033  0.2300  0.1719  0.0394
21289OCT     C142577   8.845   5.861  17.857 -0.2156 -0.1029  0.1402
21289OCT     C242578   8.392   6.023  17.825  0.1250  0.0005 -0.1163
21290OCT     C142579  20.101   2.068  21.065 -0.2648  0.2069 -0.1724
21290OCT     C242580  20.408   1.771  20.845  0.1068 -0.1290  0.1787
21291OCT     C142581   8.630   3.874   7.837 -0.1092 -0.1648 -0.2492
21291OCT     C242582   9.074   3.863   8.040  0.1196  0.1493 -0.0790
21292OCT     C142583  15.367   7.844   2.300 -0.0909  0.0478 -0.0857
21292OCT     C242584  15.803   7.845   2.525 -0.1571  0.0308 -0.0892
21293OCT     C142585  11.211  10.689  13.516  0.0219  0.0808 -0.0377
21293OCT     C242586  11.373  10.274  13.468 -0.1033 -0.0185 -0.0332
21294OCT     C142587   6.436  19.753  13.433  0.0954  0.0290 -0.1699
21294OCT     C242588   6.006  19.564  13.520 -0.0196 -0.1282 -0.1609
21295OCT     C142589  23.522   0.293  23.638  0.0739  0.2826 -0.1269
21295OCT     C242590  23.284   0.283   0.286 -0.1694  0.0499 -0.1836
21296OCT     C142591  18.539  17.210   4.663  0.0380 -0.1728  0.0691
21296OCT     C242592  18.097  17.244   4.790  0.1540 -0.1064  0.1213
21297OCT     C142593  20.239  21.210   0.768 -0.2105 -0.0039 -0.0410
21297OCT     C242594  20.281  21.707   0.857  0.1613  0.2800 -0.1886
21298OCT     C142595  15.041  11.369   9.553 -0.0605  0.1266  0.1221
21298OCT     C242596  14.748  11.212   9.899  0.2789 -0.2815  0.0323
21299OCT     C142597  14.452  18.143  22.552 -0.2353  0.2303 -0.0188
21299OCT     C242598  14.464  17.713  22.429 -0.0626 -0.1200 -0.4679
21300OCT     C142599  13.076  22.549  12.846  0.1058  0.6253 -0.1178
21300OCT     C242600  12.630  22.441  13.006 -0.1479  0.1082  0.0843
21301OCT     C142601  14.104  23.524  16.380 -0.0233 -0.3625  0.1298
21301OCT     C242602  13.775  23.592  16.770 -0.4824  0.1617  0.0331
21302OCT     C142603  11.866   5.600  15.724 -0.1078  0.0092  0.2689
21302OCT     C242604  12.181   5.729  15.439 -0.4432 -0.2740 -0.1369
21303OCT     C142605   5.386   4.055   6.598 -0.1009  0.0432 -0.0294
21303OCT     C242606   5.361   3.740   6.247 -0.3353 -0.0451  0.4860
21304OCT     C142607  14.349  18.672  20.099  0.2171  0.0155  0.3707
21304OCT     C242608  14.778  18.669  19.905 -0.1212  0.3262 -0.0436
21305OCT     C142609  18.938  15.520  17.830  0.2029  0.0657  0.0389
21305OCT     C242610  19.144  15.873  17.653 -0.3209  0.0603 -0.1493
21306OCT     C142611   0.599  15.057  22.295 -0.2573  0.2628  0.0813
21306OCT     C242612   0.761  15.314  22.640  0.2644  0.1515  0.4069
21307OCT     C142613  15.849   6.884   0.789 -0.1114  0.1872 -0.0880
21307OCT     C242614  16.192   6.898   0.454 -0.0114  0.2857 -0.0596
21308OCT     C142615   6.973  16.997  15.130 -0.2286 -0.0457  0.2298
21308OCT     C242616   6.941  16.768  15.489  0.1150 -0.5141  0.0884
21309OCT     C142617   4.405  18.115  19.711  0.0684  0.0557  0.0120
21309OCT     C242618   4.419  18.570  19.576 -0.2611  0.0821 -0.1341
21310OCT     C142619  12.513  13.208   1.755  0.0706 -0.2158  0.1017
21310OCT     C242620  12.309  13.229   2.167  0.1727  0.1970  0.2369
21311OCT     C142621  23.659   7.937  15.989  0.3355 -0.4284 -0.3214
21311OCT     C242622  23.437   7.515  15.930 -0.0340 -0.0642 -0.1237
21312OCT     C142623   3.313  19.094   6.320  0.3497  0.1608 -0.0539
21312OCT     C242624   3.272  18.872   6.761 -0.1003  0.4528  0.1218
21313OCT     C142625   6.342  11.889  10.659 -0.1292 -0.3091  0.3800
21313OCT     C242626   6.536  11.951  11.092  0.2923  0.2550 -0.4107
21314OCT     C142627   3.195  20.971  10.116 -0.1018  0.0979  0.1842
21314OCT     C242628   3.522  21.317  10.180 -0.0362  0.0559 -0.0661
21315OCT     C142629  20.194  20.978  19.044 -0.2499  0.0029 -0.0535
21315OCT     C242630  19.991  21.386  18.948 -0.1139  0.0404 -0.0546
21316OCT     C142631  20.894   4.803  17.287 -0.2958 -0.0021  0.3100
21316OCT     C242632  20.938   4.659  17.724  0.0256 -0.2982  0.2206
21317OCT     C142633   4.664  22.563  22.115 -0.3664  0.1403 -0.0140
21317OCT     C242634   4.517  22.921  22.385  0.1645  0.1198 -0.0563
21318OCT     C142635   2.673   1.204  21.178  0.0708 -0.2364 -0.3721
21318OCT     C242636   2.223   1.399  21.135 -0.4968 -0.0109  0.3033
21319OCT     C142637   7.210  18.072   2.666 -0.1530  0.4360  0.0258
21319OCT     C242638   7.153  18.113   3.147 -0.0265 -0.1991  0.2135
21320OCT     C142639  13.875   5.702  18.646  0.0925 -0.5330 -0.2764
21320OCT     C242640  13.596   5.988  18.490 -0.1008  0.1335 -0.1341
21321OCT     C142641   4.359  16.036   2.341  0.2020 -0.0583  0.1405
21321OCT     C242642   4.296  16.463   2.576 -0.1252  0.1235 -0.2453
21322OCT     C142643  12.430   4.657   3.978  0.0396  0.2695 -0.3603
21322OCT     C242644  12.696   4.953   3.727 -0.0513 -0.4806 -0.2397
21323OCT     C142645  17.122  13.269  18.696 -0.2482 -0.1796  0.0461
21323OCT     C242646  17.091  13.719  18.702  0.0715  0.0504 -0.3365
21324OCT     C142647  13.139   6.226   9.719 -0.1782  0.2150  0.1502
21324OCT     C242648  12.765   6.441   9.688  0.1860  0.0279  0.0711
21325OCT     C142649  21.378   7.679  17.873  0.0115  0.0014  0.1603
21325OCT     C242650  21.113   7.597  17.463 -0.0688  0.0758  0.2999
21326OCT     C142651   8.200  23.528   8.114  0.0997  0.2558  0.0526
21326OCT     C242652   8.307   0.075   7.756 -0.2160 -0.0014 -0.0371
21327OCT     C142653  10.218  20.061   8.918  0.2043  0.2892  0.3439
21327OCT     C242654  10.525  20.449   8.906 -0.0089 -0.1977 -0.0352
21328OCT     C142655   1.694  22.991   4.173 -0.2213 -0.2855  0.0426
21328OCT     C242656   1.395  23.036   3.769 -0.0451 -0.1495 -0.1208
21329OCT     C142657  12.056   3.744   7.540  0.0184  0.0433  0.1410
21329OCT     C242658  12.314   3.383   7.498  0.2426 -0.2544  0.3758
21330OCT     C142659   4.801  18.969   9.311 -0.3293  0.0274 -0.3974
21330OCT     C242660   4.782  19.371   9.590  0.0380 -0.1173  0.0510
21331OCT     C142661  15.280  14.590   8.980 -0.3548 -0.3999  0.0905
21331OCT     C242662  15.179  15.022   9.107 -0.0250 -0.2940  0.0391
21332OCT     C142663  14.492   9.473  12.080 -0.1265 -0.0837 -0.0815
21332OCT     C242664  14.449   9.518  11.616  0.2400  0.0149 -0.0366
21333OCT     C142665  16.217   9.047   6.534  0.0131 -0.1066 -0.2172
21333OCT     C242666  16.584   9.310   6.382 -0.0380 -0.3030  0.2167
21334OCT     C142667  14.115  22.476   8.032 -0.1843  0.0779 -0.2530
21334OCT     C242668  14.331  22.917   7.949 -0.0417  0.2303  0.0807
21335OCT     C142669   9.044  13.256  12.673 -0.3621 -0.1427 -0.1178
21335OCT     C242670   8.776  13.287  12.238 -0.1602  0.3380 -0.2484
21336OCT     C142671   3.506  19.512  11.883  0.3146 -0.3476 -0.0457
21336OCT     C242672   3.609  19.888  12.153 -0.0285  0.2344 -0.1592
21337OCT     C142673  16.319  10.657  12.485 -0.0566 -0.1494 -0.4357
21337OCT     C242674  15.891  10.809  12.461 -0.0047  0.1146  0.0968
21338OCT     C142675   3.351  11.331   8.676  0.1365  0.0871  0.0219
21338OCT     C242676   3.052  11.378   8.329 -0.1588  0.0485 -0.4748
21339OCT     C142677  14.962   4.826  13.693 -0.3036 -0.1019  0.5242
21339OCT     C242678  14.804   4.413  13.591 -0.0113 -0.0797 -0.0111
21340OCT     C142679   9.426  14.120   7.227 -0.1358 -0.1525 -0.0481
21340OCT     C242680   9.094  13.901   6.933 -0.2419 -0.1039 -0.0770
21341OCT     C142681  10.307   1.659   9.504  0.0598 -0.0570  0.1485
21341OCT     C242682  10.375   1.280   9.201  0.2924 -0.1788 -0.1368
21342OCT     C142683  11.585   4.607  23.552  0.2367 -0.0985  0.1103
21342OCT     C242684  11.874   4.491  23.279 -0.0275  0.4080 -0.0530
21343OCT     C142685   5.628  12.074  15.471 -0.2961 -0.0783 -0.1042
21343OCT     C242686   5.703  12.449  15.169  0.0509 -0.1350 -0.1232
21344OCT     C142687  18.500   6.569  22.849  0.2607 -0.3101 -0.5743
21344OCT     C242688  18.316   6.289  22.516  0.0532 -0.0635  0.2373
21345OCT     C142689  20.805  17.339   3.386 -0.2485  0.0665  0.0826
21345OCT     C242690  20.350  17.323   3.346 -0.2109  0.1665 -0.2106
21346OCT     C142691  22.634  14.711   5.133  0.2877 -0.0980  0.1292
21346OCT     C242692  22.881  15.099   5.341  0.0628 -0.0247 -0.0216
21347OCT     C142693  11.875   2.198  22.876  0.1555 -0.2920  0.1615
21347OCT     C242694  12.066   2.561  22.712 -0.1397  0.2842 -0.2433
21348OCT     C142695  22.671  12.110   4.010  0.1276  0.3806 -0.4398
21348OCT     C242696  22.808  11.693   3.861 -0.0216  0.0753 -0.3591
21349OCT     C142697  10.759   8.704   4.767  0.1074 -0.4590  0.2332
21349OCT     C242698  10.429   8.966   4.547  0.2288  0.0584  0.1627
21350OCT     C142699   8.785   5.627   6.711  0.0727  0.1425 -0.5087
21350OCT     C242700   8.403   5.698   6.491  0.1308 -0.0380  0.1057
21351OCT     C142701  17.025  22.697   9.466  0.2932  0.0966 -0.2177
21351OCT     C242702  17.157  22.317   9.175  0.0828  0.0654 -0.3223
21352OCT     C142703   4.485   1.916  18.957  0.2710 -0.0160  0.4448
21352OCT     C242704   4.058   1.879  19.101 -0.0305  0.2475 -0.0168
21353OCT     C142705  13.120   5.044  23.455  0.2003  0.4346  0.1887
21353OCT     C242706  13.001   4.951   0.187 -0.3769 -0.0718 -0.0235
21354OCT     C142707  22.968  21.329  19.093 -0.0328 -0.5102  0.1664
21354OCT     C242708  23.214  21.555  18.812  0.0100  0.5199  0.5620
21355OCT     C142709  12.104   5.960  13.680  0.1295 -0.1240 -0.2790
21355OCT     C242710  11.709   5.876  13.434 -0.0323 -0.1865  0.0697
21356OCT     C142711  16.775  17.647   3.460 -0.1142  0.4625 -0.4035
21356OCT     C242712  16.486  17.996   3.562 -0.2624  0.4131  0.3991
21357OCT     C142713   7.014   3.779  15.939  0.0854  0.0725  0.3011
21357OCT     C242714   6.990   4.042  15.557  0.3939 -0.0526 -0.1230
21358OCT     C142715  21.550  19.886  22.617  0.2876  0.2036 -0.4815
21358OCT     C242716  21.231  19.558  22.456  0.1361  0.3434  0.0946
21359OCT     C142717   7.353  19.314   3.370 -0.2299 -0.2315  0.1976
21359OCT     C242718   6.899  19.211   3.490 -0.0252 -0.3222  0.1355
21360OCT     C142719   1.149   0.750  14.659  0.2180  0.1711 -0.1270
21360OCT     C242720   0.880   0.342  14.487  0.0971  0.1197  0.0532
21361OCT     C142721  11.448  11.309  10.228 -0.1555  0.1780  0.2842
21361OCT     C242722  11.562  11.768  10.130  0.1020 -0.1353  0.1813
21362OCT     C142723  20.063   2.326   2.801  0.3972 -0.1630  0.1010
21362OCT     C242724  20.152   2.358   2.299 -0.3525 -0.3271  0.2938
21363OCT     C142725  18.170  13.473   1.044 -0.1239 -0.2421  0.2211
21363OCT     C242726  18.003  13.280   0.654  0.2863 -0.0840  0.4548
21364OCT     C142727   9.686  15.126   0.630  0.1716  0.0098  0.2659
21364OCT     C242728   9.878  14.843   0.930 -0.1437 -0.2874  0.3086
21365OCT     C142729  16.705   3.464  13.309 -0.0840 -0.2689 -0.2446
21365OCT     C242730  16.754   3.715  12.885 -0.2407 -0.2069 -0.0339
21366OCT     C142731   9.635   5.932  11.401  0.1690  0.3527  0.1662
21366OCT     C242732   9.755   5.642  11.060 -0.3828 -0.1547  0.0202
21367OCT     C142733   1.310  10.104  17.591  0.0692  0.1390 -0.2603
21367OCT     C242734   1.481   9.653  17.545  0.0526  0.0665  0.1702
21368OCT     C142735  14.109  13.673   6.663 -0.0587 -0.0977  0.3070
21368OCT     C242736  14.127  14.122   6.568 -0.4601  0.3583  0.2869
21369OCT     C142737  23.661   2.790  17.723 -0.1154 -0.0383 -0.0645
21369OCT     C242738  23.707   2.720  18.212  0.0602 -0.0496  0.2005
21370OCT     C142739   1.209  11.391  11.608  0.3136  0.2974  0.0943
21370OCT     C242740   0.801  11.298  11.392 -0.4079 -0.0612 -0.1285
21371OCT     C142741  15.903  17.420  12.889  0.2103 -0.4977  0.1694
21371OCT     C242742  16.220  17.075  13.007  0.0595 -0.3553  0.3259
21372OCT     C142743   2.413  18.730  19.373  0.1692 -0.0155  0.3570
21372OCT     C242744   2.642  18.631  18.955  0.3282  0.0134 -0.1871
21373OCT     C142745   5.728   2.419   8.480 -0.2170 -0.0105  0.3205
21373OCT     C242746   5.273   2.378   8.495  0.1661 -0.4205  0.0380
21374OCT     C142747   0.558   7.795  15.056  0.2012  0.0698  0.0308
21374OCT     C242748   0.252   8.106  15.130 -0.0291 -0.0120  0.0531
21375OCT     C142749  23.471  21.633  23.126 -0.1167 -0.0060  0.0842
21375OCT     C242750   0.211  21.576  23.188 -0.1583 -0.1745  0.0763
21376OCT     C142751   4.229   8.113   6.980 -0.1620 -0.2931  0.4502
21376OCT     C242752   4.212   8.009   7.406  0.1436 -0.1808  0.4028
21377OCT     C142753   5.868   9.459  20.945  0.1284  0.3043 -0.2656
21377OCT     C242754   5.929   8.997  20.832 -0.0520  0.1278  0.3407
21378OCT     C142755  17.598   8.930  17.728  0.4223 -0.2411 -0.1587
21378OCT     C242756  17.583   9.051  17.301 -0.0328 -0.1392  0.2253
21379OCT     C142757  16.029  11.529  22.272  0.2318  0.4521 -0.1374
21379OCT     C242758  16.339  11.467  22.589  0.2169  0.0529 -0.1883
21380OCT     C142759  17.883   1.525   0.133 -0.1624 -0.0440 -0.2602
21380OCT     C242760  17.662   1.596  23.557 -0.0567 -0.0363  0.4607
21381OCT     C142761   4.857   5.358   4.871  0.3884  0.0404 -0.1386
21381OCT     C242762   5.220   5.498   4.685 -0.1340  0.1286  0.2521
21382OCT     C142763   5.339  19.904   9.084 -0.3001 -0.1400 -0.0176
21382OCT     C242764   5.041  20.200   8.845  0.0347  0.0962 -0.1523
21383OCT     C142765  11.755   4.238  13.280 -0.2913 -0.2512 -0.3278
21383OCT     C242766  12.030   4.554  13.530 -0.2192 -0.0401  0.1056
21384OCT     C142767  12.164   5.418  14.400  0.1414  0.3350  0.1564
21384OCT     C242768  12.427   4.963  14.451  0.0632 -0.1181 -0.2089
21385OCT     C142769   6.443  17.645   0.905 -0.0077 -0.1020 -0.0065
21385OCT     C242770   6.040  17.368   0.953 -0.0882 -0.1827 -0.0330
21386OCT     C142771  21.968   3.007   4.938  0.1689  0.0415  0.1157
21386OCT     C242772  22.098   2.572   5.012 -0.3192  0.0797 -0.4945
21387OCT     C142773   8.701   3.432   4.940 -0.1021  0.0015  0.0228
21387OCT     C242774   8.782   3.544   4.474  0.0260  0.4971 -0.1180
21388OCT     C142775  19.061   0.372   6.756  0.4056 -0.3866  0.1013
21388OCT     C242776  18.980   0.313   6.315 -0.3660 -0.1835  0.3943
21389OCT     C142777  15.634  17.711   7.508 -0.0867  0.0127  0.1741
21389OCT     C242778  15.789  17.802   7.073  0.4537  0.3718 -0.2535
21390OCT     C142779   4.969   9.120  14.391  0.2189 -0.0193  0.3886
21390OCT     C242780   5.085   8.699  14.213  0.2294  0.3685 -0.3481
21391OCT     C142781  17.954   3.459  19.434 -0.3660  0.1857 -0.4658
21391OCT     C242782  18.011   3.074  19.138  0.3756  0.2265 -0.2741
21392OCT     C142783  16.981  13.899   4.006 -0.1719  0.0180 -0.2246
21392OCT     C242784  16.692  14.199   3.715 -0.0768  0.1879 -0.2015
21393OCT     C142785  15.319   5.786   5.310  0.1565 -0.1800 -0.0482
21393OCT     C242786  15.096   5.503   5.606  0.1749  0.4995  0.1997
21394OCT     C142787  19.933  14.913   5.047 -0.1438  0.0848 -0.0407
21394OCT     C242788  20.177  15.219   4.736 -0.1753  0.1359  0.1688
21395OCT     C142789  19.056  11.394   0.026 -0.1016 -0.1059  0.0192
21395OCT     C242790  19.241  11.162   0.422 -0.4482 -0.0703  0.2090
21396OCT     C142791  16.761   6.643   7.599 -0.1670  0.1398 -0.5306
21396OCT     C242792  16.350   6.523   7.803  0.0482 -0.0608  0.2484
21397OCT     C142793   6.411   0.319  19.377 -0.2154 -0.1841  0.1427
21397OCT     C242794   6.627   0.144  19.753  0.1764 -0.2745  0.0255
21398OCT     C142795  16.858  13.261  13.246  0.0364 -0.0450 -0.0099
21398OCT     C242796  16.615  13.454  13.603  0.2287 -0.0484 -0.1970
21399OCT     C142797   6.616   7.313   0.854 -0.3673  0.0488 -0.2170
21399OCT     C242798   6.186   7.169   0.740  0.3556  0.0728 -0.2772
21400OCT     C142799  14.499  15.034  14.233 -0.1821  0.4158  0.0663
21400OCT     C242800  14.071  14.848  14.163  0.3429 -0.2197 -0.0657
21401OCT     C142801  14.702  11.644  13.568  0.1759 -0.3221  0.0505
21401OCT     C242802  14.621  12.095  13.626  0.0233 -0.2531 -0.1848
21402OCT     C142803   1.341   8.744  18.788 -0.0351  0.0602 -0.2150
21402OCT     C242804   1.416   8.794  18.335  0.5262  0.1515 -0.1001
21403OCT     C142805  16.236  13.550  15.967  0.2233 -0.0162  0.1925
21403OCT     C242806  16.664  13.624  15.891 -0.1538 -0.1987  0.1434
21404OCT     C142807  22.494  14.063   7.947  0.0472 -0.2059  0.0006
21404OCT     C242808  22.903  14.132   7.661  0.2399  0.5104  0.1372
21405OCT     C142809  17.779   9.392  10.825 -0.5201 -0.0538 -0.1335
21405OCT     C242810  18.013   8.966  10.835 -0.2994  0.0213  0.3855
21406OCT     C142811  13.876  11.892  10.690  0.1213 -0.0903 -0.2187
21406OCT     C242812  14.071  12.359  10.633  0.2696  0.0227 -0.0582
21407OCT     C142813  13.850   4.983  16.654 -0.1217  0.0539  0.0947
21407OCT     C242814  13.781   4.996  16.184  0.5746  0.0179 -0.2473
21408OCT     C142815  16.514  16.189   0.701 -0.3000 -0.2999 -0.3121
21408OCT     C242816  16.946  16.054   0.957  0.3291 -0.2081 -0.0346
21409OCT     C142817  21.302  17.293   4.228 -0.0244 -0.2830 -0.0558
21409OCT     C242818  21.398  17.671   4.476  0.0101  0.1687  0.0843
21410OCT     C142819  19.804  10.301  21.177 -0.2886 -0.1632  0.0518
21410OCT     C242820  19.632  10.477  20.795 -0.0613 -0.2809 -0.0302
21411OCT     C142821  13.810   6.180   4.229  0.1163  0.0199 -0.4369
21411OCT     C242822  14.048   5.766   4.144 -0.0459 -0.2294  0.0717
21412OCT     C142823   9.284   7.074  16.923  0.2177  0.1282 -0.0627
21412OCT     C242824   9.296   7.242  17.305  0.2852  0.0480  0.1075
21413OCT     C142825   4.799   7.255  21.594 -0.0702 -0.1493 -0.1692
21413OCT     C242826   4.668   7.610  21.275  0.1508 -0.1087 -0.1586
21414OCT     C142827  13.020  20.318   4.081 -0.0660 -0.2125 -0.3526
21414OCT     C242828  13.030  19.835   4.120 -0.0407 -0.2138  0.0575
21415OCT     C142829   1.978  22.435   5.459 -0.0229 -0.2392  0.1336
21415OCT     C242830   2.026  22.277   5.840 -0.0941  0.1606  0.1681
21416OCT     C142831   7.388  22.422  11.623  0.3431 -0.3269  0.0232
21416OCT     C242832   7.442  22.243  11.174 -0.2224  0.1377  0.4777
21417OCT     C142833  13.657   2.339  19.924  0.0742 -0.4218  0.0781
21417OCT     C242834  14.090   2.517  19.828 -0.3574 -0.1238  0.0309
21418OCT     C142835   5.695   6.321   8.196 -0.3025  0.0727 -0.0216
21418OCT     C242836   6.099   6.441   7.897  0.1371 -0.4136  0.1015
21419OCT     C142837   0.951  13.735  14.010  0.1989 -0.2021  0.0855
21419OCT     C242838   0.759  13.912  13.644 -0.2592  0.1277  0.0276
21420OCT     C142839   0.865  11.302  18.095  0.1744 -0.0516  0.2690
21420OCT     C242840   0.499  11.592  17.899  0.3469  0.1898 -0.1489
21421OCT     C142841  18.765   2.070  23.196  0.0887  0.2398 -0.1383
21421OCT     C242842  18.408   1.732  23.047 -0.0195  0.2342 -0.2033
21422OCT     C142843   7.396  21.737  12.422  0.1293 -0.1229 -0.0457
21422OCT     C242844   7.159  21.316  12.344 -0.0170 -0.2816 -0.2566
21423OCT     C142845   2.849  19.398  15.256  0.0219 -0.4833  0.1319
21423OCT     C242846   2.675  19.799  15.122  0.0894  0.2472 -0.0950
21424OCT     C142847  11.856  20.564  22.686  0.1572  0.2691  0.1765
21424OCT     C242848  11.916  20.209  22.964  0.0242  0.2699 -0.4187
21425OCT     C142849  18.600   9.972  15.925 -0.2914  0.2316 -0.0511
21425OCT     C242850  18.636   9.678  16.335 -0.2411  0.4446 -0.2351
21426OCT     C142851  19.455  19.930   1.860 -0.2148  0.1340  0.2913
21426OCT     C242852  19.456  20.021   1.402  0.1988 -0.0292  0.0003
21427OCT     C142853  11.691  10.663  23.033  0.0555 -0.1693 -0.0459
21427OCT     C242854  11.942  10.534  23.383 -0.2056 -0.0413 -0.1416
21428OCT     C142855   0.667  19.993   1.561 -0.2199 -0.2766  0.2443
21428OCT     C242856   0.266  19.731   1.630 -0.0654  0.1484 -0.2141
21429OCT     C142857   2.321   4.291  21.693 -0.3386  0.3612  0.3119
21429OCT     C242858   2.751   4.215  21.586 -0.0587  0.3390 -0.0233
21430OCT     C142859   4.402   1.214  19.447  0.1703 -0.0104  0.0786
21430OCT     C242860   4.138   1.031  19.747 -0.3151  0.0860 -0.2534
21431OCT     C142861  15.415   5.927  22.300  0.2463  0.1097 -0.1512
21431OCT     C242862  15.585   6.378  22.378  0.0556 -0.0173  0.2044
21432OCT     C142863  12.760  19.441  12.375 -0.2721 -0.4163 -0.0166
21432OCT     C242864  12.686  19.031  12.625 -0.3836 -0.7327 -0.1975
21433OCT     C142865  16.583  18.964  15.985 -0.1704 -0.1484 -0.2463
21433OCT     C242866  16.962  18.965  16.265 -0.0846  0.0134 -0.0505
21434OCT     C142867  21.743  19.966  10.597  0.1108  0.0852 -0.1856
21434OCT     C242868  21.377  20.326  10.518 -0.3932  0.1362  0.2552
21435OCT     C142869  12.528   8.453   3.036 -0.0103 -0.2294  0.1573
21435OCT     C242870  12.431   8.429   3.508 -0.1679 -0.1372 -0.0213
21436OCT     C142871   9.373   1.887   6.124 -0.1316  0.0116  0.0777
21436OCT     C242872   9.666   2.087   5.832 -0.2843 -0.0371 -0.1060
21437OCT     C142873   5.393  23.377  11.908 -0.0956 -0.2986 -0.3599
21437OCT     C242874   5.008  23.636  11.713 -0.1907 -0.0972 -0.3274
21438OCT     C142875  17.716   9.712   9.351 -0.1747  0.0830 -0.0855
21438OCT     C242876  17.821  10.173   9.269 -0.0503 -0.0430 -0.3197
21439OCT     C142877  23.152   3.112   9.889 -0.0184  0.0714  0.2097
21439OCT     C242878  23.153   3.571   9.716 -0.1589 -0.0321 -0.0466
21440OCT     C142879  11.882   8.347  14.955 -0.0584  0.2394  0.0685
21440OCT     C242880  11.896   8.314  14.472 -0.3446  0.2325  0.1659
21441OCT     C142881  11.055   9.807  15.191 -0.4844  0.2834 -0.0696
21441OCT     C242882  11.321  10.191  14.943 -0.1536  0.3998  0.2157
21442OCT     C142883  10.207  16.339   4.721 -0.3628  0.0753  0.3346
21442OCT     C242884  10.289  16.722   4.958  0.1576 -0.2465 -0.1793
21443OCT     C142885  19.284  15.243   3.164 -0.0822  0.4953 -0.2088
21443OCT     C242886  19.466  14.976   3.478 -0.0343  0.1437 -0.4150
21444OCT     C142887  19.771  23.241   1.475  0.0310 -0.2122  0.1884
21444OCT     C242888  19.688  22.915   1.831 -0.1312  0.1415 -0.2526
21445OCT     C142889  19.511  14.260  20.474  0.1875 -0.0701  0.1478
21445OCT     C242890  19.616  14.408  20.873  0.1737 -0.2948  0.0991
21446OCT     C142891   8.093   2.904   2.739  0.2958 -0.3420 -0.2957
21446OCT     C242892   8.379   2.560   2.928 -0.0812  0.0654  0.2763
21447OCT     C142893   2.561  16.776   0.709 -0.3563 -0.1315  0.0038
21447OCT     C242894   2.668  16.660   0.270  0.1250  0.1100 -0.4002
21448OCT     C142895  12.314  21.657   9.606 -0.0670  0.1445  0.1053
21448OCT     C242896  12.303  21.560   9.141 -0.1700  0.3146  0.0540
21449OCT     C142897  23.438  14.859   4.890  0.1309 -0.2297 -0.0525
21449OCT     C242898  23.139  14.516   5.053 -0.1645 -0.4239  0.1733
21450OCT     C142899  11.313  11.833  12.605  0.1171 -0.1070  0.1736
21450OCT     C242900  11.655  12.053  12.379  0.4495 -0.0506  0.1946
21451OCT     C142901   3.418  13.016  20.910 -0.4432 -0.3800 -0.2241
21451OCT     C242902   3.663  12.644  21.040  0.0820 -0.0926  0.0596
21452OCT     C142903   3.032  11.842   8.866 -0.0273 -0.6653  0.0348
21452OCT     C242904   3.059  12.232   9.051 -0.1855  0.2032 -0.3206
21453OCT     C142905  23.625   6.191  22.702  0.1144  0.3137  0.3322
21453OCT     C242906  23.683   5.752  22.787 -0.2062  0.0813 -0.0046
21454OCT     C142907  16.096   5.196   1.780  0.0909 -0.1139  0.2044
21454OCT     C242908  16.155   5.388   2.191  0.2773 -0.0660  0.0403
21455OCT     C142909   4.473  23.608  17.540  0.1606 -0.2105 -0.3423
21455OCT     C242910   3.975  23.477  17.520  0.2506  0.4089 -0.0828
21456OCT     C142911  20.488  15.044  21.627 -0.0331 -0.1525  0.3399
21456OCT     C242912  20.112  14.699  21.634  0.2721  0.0786  0.0487
21457OCT     C142913  20.276   2.153  22.082  0.1856 -0.1421  0.0078
21457OCT     C242914  20.108   1.797  22.344  0.2533  0.1513  0.0306
21458OCT     C142915  18.073  14.446  10.382  0.2990  0.2934 -0.1054
21458OCT     C242916  18.161  14.081  10.640 -0.0852  0.1915  0.0907
21459OCT     C142917   4.723  10.062  13.814  0.0495 -0.2573 -0.6252
21459OCT     C242918   4.520  10.468  13.622  0.0540  0.0063 -0.1833
21460OCT     C142919  11.215  19.671  22.607  0.3066  0.0401 -0.1305
21460OCT     C242920  11.528  19.635  22.957 -0.2020  0.0398  0.1528
21461OCT     C142921  23.646  23.550  20.632 -0.1053 -0.0563 -0.0843
21461OCT     C242922  23.629   0.057  20.240 -0.0354 -0.2878  0.2381
21462OCT     C142923  18.497   2.014   7.678  0.0452  0.2657  0.2007
21462OCT     C242924  18.024   1.844   7.770  0.0482 -0.2992  0.2326
21463OCT     C142925  16.694  21.722   6.687  0.3055  0.1472  0.0616
21463OCT     C242926  17.127  21.534   6.615 -0.2085  0.1432 -0.0287
21464OCT     C142927  19.607   0.324  22.891 -0.0893 -0.1281 -0.3653
21464OCT     C242928  19.464  23.613  23.035 -0.2243  0.1875 -0.1821
21465OCT     C142929  16.528   9.887  14.160 -0.1016  0.0663 -0.0577
21465OCT     C242930  16.257   9.548  14.360 -0.2634 -0.1166  0.1406
21466OCT     C142931  19.402   2.070   1.541  0.2045  0.2483  0.1965
21466OCT     C242932  19.698   1.720   1.521  0.3086  0.1683 -0.1653
21467OCT     C142933  12.285  18.573  15.567  0.1846  0.2340  0.0262
21467OCT     C242934  12.632  18.910  15.644 -0.1204 -0.1023  0.3716
21468OCT     C142935   6.964   0.611  21.211 -0.0734  0.3527  0.0096
21468OCT     C242936   6.837   0.175  21.196  0.4569  0.3387 -0.0212
21469OCT     C142937  17.839  19.883  13.868  0.2801  0.2295 -0.0723
21469OCT     C242938  17.962  19.487  13.629 -0.2967 -0.1056 -0.0185
21470OCT     C142939  21.082  17.644  22.982  0.0195  0.1271 -0.1787
21470OCT     C242940  20.692  17.744  22.799 -0.1806  0.1030 -0.3687
21471OCT     C142941   4.297   3.186   9.328  0.1349 -0.2339  0.1683
21471OCT     C242942   4.508   3.597   9.324  0.0242  0.3057  0.1536
21472OCT     C142943   5.450   5.075  13.433 -0.2673 -0.1792 -0.0384
21472OCT     C242944   5.280   5.075  13.912  0.2106 -0.2270 -0.0510
21473OCT     C142945  22.597  18.755  10.342 -0.2886 -0.0225  0.1527
21473OCT     C242946  22.949  18.773   9.976  0.2563  0.0321  0.1642
21474OCT     C142947   1.841   4.035  21.816 -0.0788  0.0139 -0.0443
21474OCT     C242948   1.836   4.458  22.039 -0.2154 -0.4752  0.1430
21475OCT     C142949  19.657  21.584  15.927  0.1599  0.0375  0.2582
21475OCT     C242950  19.981  21.238  15.985 -0.2028 -0.1055  0.0279
21476OCT     C142951  10.430   7.037   2.710  0.3124  0.3599 -0.0700
21476OCT     C242952  10.292   7.293   3.085 -0.2830 -0.3010  0.1803
21477OCT     C142953   7.099   7.806  17.294  0.3002  0.0441 -0.0412
21477OCT     C242954   7.534   7.813  17.469 -0.0492  0.2615 -0.0719
21478OCT     C142955   1.109   2.969   4.763  0.2757  0.0449  0.1018
21478OCT     C242956   1.556   2.989   4.962 -0.1292 -0.0078  0.1824
21479OCT     C142957  15.806  17.667   3.208 -0.0688  0.1691  0.4805
21479OCT     C242958  16.257  17.612   3.243 -0.0861 -0.2854  0.3582
21480OCT     C142959  15.189   1.737  14.507  0.1894 -0.1059 -0.0262
21480OCT     C242960  14.826   1.842  14.825 -0.0786 -0.6653  0.3238
21481OCT     C142961   2.070   1.632  14.965  0.0233 -0.0416 -0.0109
21481OCT     C242962   1.700   1.488  14.674  0.1531 -0.3033  0.2260
21482OCT     C142963  18.164   2.262  21.115 -0.3531 -0.1601 -0.2398
21482OCT     C242964  18.017   2.214  20.676 -0.0867 -0.0872  0.0748
21483OCT     C142965  11.146   7.824  20.265 -0.1247 -0.1262 -0.4947
21483OCT     C242966  11.582   7.758  20.420 -0.1120 -0.1895  0.0361
21484OCT     C142967  23.591   2.508   5.249 -0.1011  0.0383 -0.2703
21484OCT     C242968  23.163   2.661   5.094 -0.5825 -0.4415 -0.4024
21485OCT     C142969   3.564  21.126   4.475 -0.1808 -0.0584 -0.4249
21485OCT     C242970   3.487  20.960   4.944 -0.0975 -0.0288 -0.1204
21486OCT     C142971   7.833  22.710   4.536  0.3102 -0.3226 -0.1249
21486OCT     C242972   7.810  22.697   4.064 -0.0098 -0.2058 -0.0797
21487OCT     C142973  12.827  12.957   5.384  0.0846  0.0637  0.1394
21487OCT     C242974  12.764  12.830   5.888  0.0549 -0.0035  0.2260
21488OCT     C142975  20.238   1.046   8.045 -0.1731  0.0334  0.3836
21488OCT     C242976  20.345   1.478   8.095 -0.3545  0.2409 -0.1372
21489OCT     C142977  15.979   8.510   0.754 -0.2176 -0.1557 -0.1111
21489OCT     C242978  16.155   8.640   0.374  0.1429  0.1492  0.5634
21490OCT     C142979  14.904   5.677   0.571  0.2830  0.0636  0.4951
21490OCT     C242980  14.892   5.929   0.196  0.1019 -0.3622 -0.0723
21491OCT     C142981  12.181   7.563  14.961 -0.0186  0.1235 -0.1016
21491OCT     C242982  12.443   7.389  15.287  0.2731  0.2028  0.3810
21492OCT     C142983   4.762   4.387  23.235  0.0738  0.0426 -0.3128
21492OCT     C242984   5.177   4.603  23.443  0.1658 -0.2880  0.0949
21493OCT     C142985   6.751   4.818  14.249 -0.2454  0.1674 -0.2717
21493OCT     C242986   6.506   4.737  14.651  0.2716  0.2222 -0.0841
21494OCT     C142987  15.933   0.198   4.478 -0.3993 -0.1356  0.2038
21494OCT     C242988  16.304   0.347   4.754  0.1962 -0.0158 -0.1167
21495OCT     C142989   1.582  14.005  15.350 -0.2031  0.1751 -0.1404
21495OCT     C242990   1.494  13.577  15.462 -0.0025  0.0919  0.2623
21496OCT     C142991  23.636  13.875   1.176  0.2468  0.1434  0.2172
21496OCT     C242992   0.111  13.720   1.601  0.5260  0.3542  0.3383
21497OCT     C142993  13.239  21.590  16.605  0.0616 -0.1637 -0.2662
21497OCT     C242994  12.878  21.661  16.913  0.2102  0.4299  0.0281
21498OCT     C142995  20.702   3.343  10.797  0.0644  0.3223 -0.0373
21498OCT     C242996  20.287   3.152  10.774  0.1354  0.1347 -0.1954
21499OCT     C142997   9.715   4.572   0.259  0.0360 -0.1465 -0.0916
21499OCT     C242998  10.074   4.753   0.030  0.2587 -0.0098  0.0829
21500OCT     C142999   0.443  22.221  16.319  0.2453  0.3115  0.1972
21500OCT     C243000  23.722  22.228  16.508 -0.1138  0.1555  0.2175
21501OCT     C143001  14.883  16.778   0.881 -0.2106 -0.3838  0.2287
21501OCT     C243002  14.927  16.371   0.632 -0.0401 -0.0288 -0.2859
21502OCT     C143003  18.629  12.671  14.554 -0.1445  0.1444 -0.1444
21502OCT     C243004  18.384  13.047  14.706 -0.0154 -0.1189  0.0717
21503OCT     C143005   9.297   8.799  20.396 -0.3765  0.0546  0.0009
21503OCT     C243006   9.524   8.622  20.739  0.2066  0.1891 -0.1780
21504OCT     C143007   5.768  12.620   7.764 -0.0676  0.1511  0.0830
21504OCT     C243008   5.989  12.522   7.333 -0.0597  0.1061  0.1435
21505OCT     C143009   5.706  11.165  16.779 -0.0330 -0.3981 -0.2410
21505OCT     C243010   6.129  11.075  17.016  0.1569 -0.1135  0.2546
21506OCT     C143011  17.349  13.254  18.171  0.0675 -0.3753 -0.1147
21506OCT     C243012  17.407  12.877  17.869  0.2614  0.2488 -0.1781
21507OCT     C143013  18.942   0.478  14.335 -0.2255  0.2320  0.0157
21507OCT     C243014  18.898   0.651  13.890 -0.0519  0.1913 -0.1292
21508OCT     C143015  19.646  15.362   4.690 -0.2831  0.0785 -0.3341
21508OCT     C243016  19.990  15.620   4.497 -0.2335  0.2310 -0.1381
21509OCT     C143017   9.485   9.434   2.928  0.1713 -0.0465  0.0136
21509OCT     C243018   9.868   9.238   2.654 -0.0826  0.0174  0.3518
21510OCT     C143019   5.201   6.558  13.656  0.2991 -0.0344 -0.2924
21510OCT     C243020   4.793   6.277  13.740  0.1957 -0.2824 -0.1607
21511OCT     C143021  23.130   7.774   7.092 -0.0869  0.2666  0.0119
21511OCT     C243022  23.211   7.536   7.499 -0.4811 -0.2233 -0.0999
21512OCT     C143023   8.009   3.550  12.318 -0.0415 -0.3683  0.4270
21512OCT     C243024   7.991   3.143  12.177  0.2514 -0.1701 -0.1372
21513OCT     C143025  18.111  11.856  13.121 -0.0493  0.1069  0.0028
21513OCT     C243026  18.120  12.264  13.301  0.3868 -0.1106 -0.3139
21514OCT     C143027   5.690  20.218   3.970 -0.0856  0.0227  0.3278
21514OCT     C243028   5.520  19.969   4.291  0.1280  0.1071  0.2427
21515OCT     C143029  12.756  15.680  16.901 -0.3988  0.2550 -0.4898
21515OCT     C243030  12.615  16.045  17.088 -0.1824  0.1919 -0.2178
21516OCT     C143031  10.587   5.541  15.477  0.1735 -0.0660  0.1325
21516OCT     C243032  10.818   5.281  15.780 -0.2156 -0.2714 -0.1419
21517OCT     C143033   1.766  10.994  21.684  0.2502 -0.0341  0.2542
21517OCT     C243034   1.821  11.248  22.026  0.0171  0.0716  0.4342
21518OCT     C143035  17.338  23.572  22.901 -0.0608 -0.1999  0.1559
21518OCT     C243036  17.170  23.721  23.322  0.0078  0.0393  0.0537
21519OCT     C143037   6.452  13.322   1.098 -0.1095  0.2433  0.0293
21519OCT     C243038   6.407  13.756   1.366  0.0627 -0.0445  0.1423
21520OCT     C143039   7.712  20.540  14.201  0.1914 -0.0619 -0.0822
21520OCT     C243040   8.121  20.239  14.215  0.1022 -0.2770  0.0810
21521OCT     C143041   5.428   5.454  15.920 -0.2152  0.1399 -0.0893
21521OCT     C243042   5.378   5.391  15.463 -0.1951 -0.0636 -0.2095
21522OCT     C143043   8.138   1.999   0.469  0.2130  0.0083 -0.2719
21522OCT     C243044   7.752   2.155   0.565 -0.0833  0.1643 -0.2709
21523OCT     C143045  18.510  11.828   8.621  0.5009 -0.0341  0.0627
21523OCT     C243046  18.629  12.156   8.851 -0.5141 -0.2276  0.2624
21524OCT     C143047   1.054  16.077  14.944  0.3843  0.0179 -0.3585
21524OCT     C243048   0.626  16.263  15.039 -0.1827  0.5952 -0.1123
21525OCT     C143049   7.832  17.096  15.855  0.0551  0.0548  0.2105
21525OCT     C243050   8.297  17.110  15.744  0.1201 -0.2294 -0.0769
21526OCT     C143051   5.949  14.579   2.664 -0.0191 -0.0539 -0.0646
21526OCT     C243052   5.550  14.745   2.742 -0.0151  0.0311  0.0540
21527OCT     C143053  12.196  12.279  10.232  0.0844 -0.1170 -0.0021
21527OCT     C243054  11.745  12.246  10.079  0.0652  0.1368  0.1749
21528OCT     C143055  18.620  15.019   7.639 -0.0786  0.0400  0.2373
21528OCT     C243056  18.475  15.271   7.323  0.1429  0.1763  0.0902
21529OCT     C143057  10.349  12.256   8.109 -0.1625 -0.0625  0.1989
21529OCT     C243058  10.611  12.054   8.408 -0.1577 -0.1891 -0.0638
21530OCT     C143059   1.003  17.816   8.460  0.0303  0.1773  0.4223
21530OCT     C243060   0.831  17.552   8.809 -0.0145  0.0333 -0.0099
21531OCT     C143061   2.888  19.249  15.808 -0.0967 -0.2211  0.1243
21531OCT     C243062   2.534  19.511  16.061 -0.1204 -0.1276  0.0714
21532OCT     C143063  15.246   7.802   1.774 -0.1956 -0.2811  0.0082
21532OCT     C243064  14.825   8.018   1.762 -0.0633 -0.1622 -0.2182
21533OCT     C143065  19.084   9.535  12.324  0.3034  0.0094  0.0893
21533OCT     C243066  19.252   9.922  12.536 -0.4082  0.0665 -0.0443
21534OCT     C143067   4.956  12.520   4.513 -0.0673  0.1719  0.2829
21534OCT     C243068   5.179  12.911   4.356  0.1224 -0.1998 -0.0986
21535OCT     C143069  19.540   6.433   4.982 -0.0089  0.2491 -0.1984
21535OCT     C243070  19.604   6.896   4.858 -0.2684  0.2168  0.2032
21536OCT     C143071  16.436   7.079   1.510 -0.1922 -0.0494 -0.0252
21536OCT     C243072  16.492   7.500   1.337 -0.3477  0.0388  0.1091
21537OCT     C143073   6.677  21.339  18.764 -0.0395 -0.1947 -0.0353
21537OCT     C243074   6.495  21.002  18.524  0.0135  0.0977 -0.1585
21538OCT     C143075  11.733  13.450  18.570  0.2302 -0.2353  0.1798
21538OCT     C243076  11.943  13.374  19.032 -0.0281  0.0421 -0.0487
21539OCT     C143077  20.210   9.664   3.658 -0.2136 -0.2410 -0.3684
21539OCT     C243078  20.542   9.471   3.554  0.2157  0.2335  0.2472
21540OCT     C143079  17.003   0.650  12.173 -0.2790 -0.1406  0.0464
21540OCT     C243080  16.970   0.301  11.848 -0.0716 -0.0441 -0.0235
21541OCT     C143081  23.470  14.122   3.160 -0.1712  0.2299  0.3517
21541OCT     C243082  23.670  13.724   2.936  0.1203 -0.0743 -0.1330
21542OCT     C143083   6.123   3.490   2.073 -0.2100 -0.0597 -0.2093
21542OCT     C243084   6.552   3.482   1.898  0.0531  0.0182  0.1933
21543OCT     C143085  19.247  13.407  15.972  0.0991 -0.0759 -0.1395
21543OCT     C243086  19.491  13.542  15.599  0.1529  0.2472  0.0044
21544OCT     C143087  13.340  14.888  21.235 -0.0715 -0.0039  0.0861
21544OCT     C243088  13.403  14.579  21.579  0.3155 -0.5128  0.0920
21545OCT     C143089   1.517  10.386   2.326 -0.0180 -0.0230  0.0104
21545OCT     C243090   1.700  10.375   1.909 -0.0166  0.1192  0.3546
21546OCT     C143091  23.224   5.032  15.522 -0.0628 -0.1788  0.1924
21546OCT     C243092  22.783   5.179  15.398  0.1122 -0.0904 -0.1287
21547OCT     C143093  10.434  20.924   5.365 -0.1452 -0.3894 -0.1178
21547OCT     C243094  10.363  20.612   5.743  0.0640 -0.0337  0.1572
21548OCT     C143095  22.848  19.353  12.778 -0.1097 -0.0643 -0.3385
21548OCT     C243096  22.562  19.056  12.812  0.1501  0.0168 -0.2279
21549OCT     C143097  20.874   4.152   8.713 -0.2975  0.2611 -0.3012
21549OCT     C243098  20.506   4.430   8.821 -0.2551 -0.1148 -0.2064
21550OCT     C143099  21.986  20.847   4.509 -0.1032 -0.3400  0.0515
21550OCT     C243100  22.372  20.888   4.180  0.1927  0.1212  0.2180
21551OCT     C143101   9.555  17.863  14.875 -0.1107 -0.4841 -0.0230
21551OCT     C243102   9.242  18.051  14.544  0.1015 -0.0524  0.1121
21552OCT     C143103   9.928  19.713   5.727  0.1358 -0.4314 -0.0336
21552OCT     C243104   9.972  19.654   6.180 -0.0189 -0.1488 -0.0283
21553OCT     C143105   4.291  13.402   5.841  0.0513 -0.4762 -0.1242
21553OCT     C243106   4.126  13.211   6.247  0.2018 -0.2077 -0.4049
21554OCT     C143107   4.780  20.420  22.184 -0.0340 -0.0539 -0.4040
21554OCT     C243108   5.154  20.573  21.903  0.2063  0.1076  0.2405
21555OCT     C143109   1.025  14.237  23.434  0.2687 -0.3198  0.2592
21555OCT     C243110   0.851  13.957  23.037 -0.2061 -0.0370 -0.2013
21556OCT     C143111  20.351  21.445   2.371 -0.0279 -0.3597  0.0078
21556OCT     C243112  20.644  21.165   2.186 -0.1151 -0.2896 -0.1356
21557OCT     C143113  12.213  12.685  18.730 -0.4709  0.1690 -0.0489
21557OCT     C243114  11.918  12.354  18.766 -0.0376  0.0373 -0.2304
21558OCT     C143115   5.245   5.762  10.611  0.2842 -0.0518 -0.2244
21558OCT     C243116   5.510   5.781  10.278 -0.0259 -0.0811 -0.0232
21559OCT     C143117  13.288   6.787  16.913 -0.0119  0.1650 -0.1290
21559OCT     C243118  12.997   6.816  17.247  0.2137  0.1318  0.2271
21560OCT     C143119   0.252   9.976   9.326 -0.0108 -0.3607  0.0709
21560OCT     C243120   0.484  10.375   9.494 -0.1240 -0.2620 -0.0761
21561OCT     C143121  18.489  21.731  11.115  0.2175  0.4656 -0.1256
21561OCT     C243122  18.325  21.662  11.559  0.4900  0.3502 -0.0322
21562OCT     C143123   0.680   4.307   1.518 -0.2496  0.0784  0.1184
21562OCT     C243124   0.432   4.559   1.822 -0.0776 -0.1146  0.2561
21563OCT     C143125  22.369   8.710   7.969 -0.0372 -0.2570  0.3790
21563OCT     C243126  22.693   8.422   7.728 -0.0419 -0.0794 -0.0084
21564OCT     C143127  11.949   6.577  21.840 -0.0765 -0.0458 -0.2777
21564OCT     C243128  11.563   6.306  21.719 -0.2534 -0.1804 -0.1100
21565OCT     C143129  12.262  15.038   2.483 -0.1752  0.2266  0.0175
21565OCT     C243130  12.471  14.631   2.644  0.2948  0.1845  0.2078
21566OCT     C143131   5.485  10.285  19.066 -0.0759  0.1539 -0.1363
21566OCT     C243132   5.927  10.143  19.107  0.0342  0.2603  0.0427
21567OCT     C143133   3.645  20.932   5.690 -0.1525  0.2579 -0.0972
21567OCT     C243134   3.885  21.258   5.914  0.0911  0.0458  0.3338
21568OCT     C143135  18.248   7.018   5.839  0.3587  0.6831 -0.5563
21568OCT     C243136  18.318   6.738   6.170  0.2591  0.0100  0.4219
21569OCT     C143137   5.157   4.589   4.184 -0.1637 -0.2365  0.0421
21569OCT     C243138   5.143   4.389   3.858  0.1978 -0.1224 -0.0481
21570OCT     C143139   0.835  17.288  10.968 -0.2529 -0.1841  0.4785
21570OCT     C243140   0.843  17.627  10.663  0.1259  0.1625  0.2658
21571OCT     C143141  12.746   6.353  15.126 -0.3577  0.2500 -0.1987
21571OCT     C243142  12.708   6.068  15.506 -0.3067 -0.0302  0.0652
21572OCT     C143143  13.673  13.389  14.198 -0.2348  0.1194  0.0807
21572OCT     C243144  14.059  13.452  13.962  0.0514  0.2665  0.1205
21573OCT     C143145   0.080   1.752   0.020  0.1142  0.1620 -0.0017
21573OCT     C243146  23.469   1.887  23.541 -0.3251  0.4829  0.2483
21574OCT     C143147  17.580  17.508   2.430 -0.2855  0.4421 -0.4871
21574OCT     C243148  17.808  17.128   2.647  0.2144 -0.0704 -0.1607
21575OCT     C143149   8.091   2.185   5.708  0.0498 -0.0328 -0.0847
21575OCT     C243150   7.744   1.848   5.651 -0.2484 -0.0139 -0.0982
21576OCT     C143151   5.427   8.694   2.104 -0.1071  0.0922  0.2504
21576OCT     C243152   5.411   8.214   2.191 -0.2762  0.4318 -0.0216
21577OCT     C143153   6.278  17.124   9.230  0.0806  0.2945  0.0348
21577OCT     C243154   6.623  17.081   8.916  0.1132  0.2573  0.2236
21578OCT     C143155  10.757  11.949  14.573  0.3434  0.1560 -0.0449
21578OCT     C243156  10.411  11.672  14.689 -0.1527 -0.0915 -0.2900
21579OCT     C143157  15.595  16.873  19.373 -0.3363 -0.0291 -0.4443
21579OCT     C243158  15.459  16.696  19.810 -0.0223  0.2147 -0.1293
21580OCT     C143159  21.388  21.540  12.144  0.2385 -0.1212  0.0383
21580OCT     C243160  21.027  21.763  12.252  0.2131  0.0748 -0.1549
21581OCT     C143161   4.763  12.304  12.350  0.2163  0.0135  0.1719
21581OCT     C243162   5.167  12.434  12.105  0.1352 -0.1276 -0.1295
21582OCT     C143163   6.969   9.789  16.427  0.1559 -0.1488  0.2808
21582OCT     C243164   7.444   9.920  16.560  0.3576  0.1691 -0.1257
21583OCT     C143165  15.886   7.142   4.712  0.4180 -0.2418  0.1247
21583OCT     C243166  16.363   7.097   4.712 -0.1015  0.2548 -0.3100
21584OCT     C143167  13.185  23.248   3.908  0.1335 -0.0320 -0.0145
21584OCT     C243168  13.462  22.848   3.821  0.1479 -0.0921 -0.0326
21585OCT     C143169  19.338   1.187  14.562 -0.4477  0.1356  0.1787
21585OCT     C243170  18.938   1.022  14.322  0.0960 -0.1572  0.3568
21586OCT     C143171  20.137  20.799  17.485 -0.0009  0.0784  0.1367
21586OCT     C243172  19.953  21.120  17.862  0.0433 -0.0503 -0.3908
21587OCT     C143173  11.817  16.439  14.474  0.1962  0.5051  0.1000
21587OCT     C243174  11.801  16.192  14.865  0.2736 -0.1255 -0.0750
21588OCT     C143175   3.352   0.158  20.077  0.0181  0.0624 -0.1062
21588OCT     C243176   3.501   0.555  19.963  0.2603  0.0322  0.2779
21589OCT     C143177  12.886  22.988  15.341 -0.3381  0.2389 -0.0184
21589OCT     C243178  12.512  22.820  15.558  0.0149  0.0110 -0.4206
21590OCT     C143179  11.462  12.085   7.198 -0.1333 -0.3277 -0.2503
21590OCT     C243180  11.402  11.727   6.877 -0.0845 -0.1118 -0.0512
21591OCT     C143181   6.427  12.219  10.254 -0.1760 -0.3450 -0.2369
21591OCT     C243182   6.003  12.215   9.888  0.0303  0.2555 -0.2377
21592OCT     C143183   8.709   9.486  21.818  0.0083  0.2689 -0.0066
21592OCT     C243184   8.634   9.326  22.281  0.1236 -0.1667 -0.0017
21593OCT     C143185  23.393   4.329  19.903  0.1529  0.3244 -0.0747
21593OCT     C243186   0.024   4.544  19.712 -0.0615  0.1384 -0.6001
21594OCT     C143187  17.351  20.789   4.022  0.2730  0.2527 -0.3738
21594OCT     C243188  17.398  20.706   4.483  0.1342 -0.1065 -0.0961
21595OCT     C143189  23.100   8.608  23.259  0.3401  0.2022 -0.1711
21595OCT     C243190  23.057   8.592  22.773  0.1938 -0.0509  0.0153
21596OCT     C143191   3.657   0.796  19.582 -0.1534  0.2633  0.1597
21596OCT     C243192   4.020   1.003  19.263  0.1368  0.0122 -0.2434
21597OCT     C143193  11.096  10.110   6.510  0.2111  0.2101 -0.2786
21597OCT     C243194  11.264  10.247   6.110  0.1927  0.3592 -0.0198
21598OCT     C143195   2.522   5.854  16.086 -0.4217 -0.1271 -0.0208
21598OCT     C243196   2.581   6.068  16.497  0.1295  0.1774 -0.0666
21599OCT     C143197   4.304   9.477  18.360 -0.0231  0.0730  0.1413
21599OCT     C243198   4.414   9.347  18.871 -0.1524 -0.1620 -0.1143
21600OCT     C143199   4.284   3.328  12.883  0.1022 -0.3514 -0.1422
21600OCT     C243200   4.225   2.991  12.652 -0.2282 -0.0170 -0.1191
21601OCT     C143201   8.506  15.551  10.435 -0.0245  0.1210  0.1574
21601OCT     C243202   8.700  15.486   9.980 -0.3636  0.2684 -0.1430
21602OCT     C143203  20.839  22.181   5.371  0.1144 -0.2303 -0.3212
21602OCT     C243204  20.374  21.999   5.388  0.2033  0.2030 -0.1411
21603OCT     C143205  20.501  19.736   6.443  0.0745  0.0461 -0.1701
21603OCT     C243206  20.503  20.248   6.463  0.0055 -0.0411  0.0769
21604OCT     C143207   4.978   2.123  16.573 -0.0074  0.1562  0.2505
21604OCT     C243208   5.017   2.261  16.161 -0.1057 -0.4841 -0.5299
21605OCT     C143209   1.672   5.290  12.715  0.1685 -0.1408 -0.1876
21605OCT     C243210   2.150   5.357  12.755  0.1285  0.1921  0.0118
21606OCT     C143211   5.575  22.106  13.122  0.3226 -0.1006  0.0296
21606OCT     C243212   5.509  21.827  12.760  0.0845 -0.2430  0.0486
21607OCT     C143213  18.200  13.047   3.608  0.1902  0.1433  0.6515
21607OCT     C243214  18.610  13.202   3.422  0.1672 -0.1567  0.0608
21608OCT     C143215   4.613  10.585   1.657  0.0716 -0.3949  0.2583
21608OCT     C243216   4.949  10.310   1.622  0.1804  0.1886 -0.2489
21609OCT     C143217   7.550  14.440  23.184 -0.4217 -0.2548  0.1120
21609OCT     C243218   7.250  14.676  23.439 -0.1618  0.5055  0.0876
21610OCT     C143219   9.106  18.497  13.657  0.1601  0.0704  0.2517
21610OCT     C243220   9.515  18.668  13.631  0.4016 -0.0827  0.2133
21611OCT     C143221  11.831  14.001  12.221  0.0636  0.3852  0.0172
21611OCT     C243222  12.049  14.368  11.989  0.0161  0.1632 -0.1917
21612OCT     C143223   4.027   2.230   3.711  0.0143 -0.2503 -0.2584
21612OCT     C243224   4.017   1.973   3.266 -0.1009 -0.0572 -0.1529
21613OCT     C143225   4.694  21.080  10.615  0.0735  0.1298  0.0513
21613OCT     C243226   4.480  20.891  10.235 -0.4420  0.2767  0.0869
21614OCT     C143227  10.319   9.081   5.585 -0.2025 -0.2206 -0.4590
21614OCT     C243228  10.398   8.974   6.033 -0.0084  0.2866  0.2976
21615OCT     C143229   5.594  14.557  14.385 -0.1567  0.0531 -0.4201
21615OCT     C243230   5.427  14.106  14.432 -0.0460 -0.2668 -0.4359
21616OCT     C143231   6.196  20.806  16.406  0.0015  0.4830 -0.0648
21616OCT     C243232   6.501  20.523  16.194  0.1574 -0.4198 -0.3014
21617OCT     C143233   3.864   2.652  21.441  0.2739  0.3644  0.0072
21617OCT     C243234   3.610   2.282  21.319  0.3293 -0.0288  0.2507
21618OCT     C143235  13.700   2.667   8.887  0.0692  0.2676 -0.1648
21618OCT     C243236  13.274   2.549   9.113 -0.0865 -0.3622 -0.1494
21619OCT     C143237   3.604  16.586   1.741 -0.1906 -0.1837  0.5233
21619OCT     C243238   3.516  16.216   1.462 -0.0098  0.1074 -0.3506
21620OCT     C143239   9.596   8.874   0.307  0.1152 -0.0801  0.1366
21620OCT     C243240   9.886   8.519   0.228  0.1776 -0.1948 -0.3524
21621OCT     C143241   9.407   2.171   1.081  0.1482 -0.0413 -0.0523
21621OCT     C243242   9.480   2.291   1.493  0.0264 -0.3161  0.0911
21622OCT     C143243  17.713  11.068  19.382 -0.4134  0.0683 -0.1933
21622OCT     C243244  18.138  11.049  19.132  0.0028 -0.1422 -0.0808
21623OCT     C143245  16.584  12.755   0.502  0.1275  0.0114 -0.1677
21623OCT     C243246  16.213  12.637   0.793  0.1161 -0.0151 -0.0054
21624OCT     C143247  12.074   9.422   7.607  0.3556 -0.1355 -0.1867
21624OCT     C243248  12.222   9.601   7.187  0.0274  0.0449  0.0574
21625OCT     C143249  19.120  12.189   3.684  0.2753  0.4984  0.2449
21625OCT     C243250  18.834  11.819   3.939  0.1995  0.1046  0.2915
21626OCT     C143251  21.728   7.983  17.955  0.3205 -0.3095 -0.1253
21626OCT     C243252  22.098   8.191  18.167 -0.1172  0.1191 -0.1967
21627OCT     C143253   9.111   0.356  19.504 -0.3360  0.0770  0.3633
21627OCT     C243254   9.539   0.552  19.283 -0.1630 -0.1958  0.1157
21628OCT     C143255   7.990  19.943   3.063 -0.1186 -0.1174 -0.1912
21628OCT     C243256   8.334  20.140   3.240 -0.0122 -0.1332  0.2840
21629OCT     C143257  19.554  19.742   2.339 -0.0647  0.2512  0.0759
21629OCT     C243258  19.995  19.710   2.467  0.3126 -0.0653 -0.0375
21630OCT     C143259  18.965  21.347  18.862  0.0039  0.4018  0.0425
21630OCT     C243260  18.885  21.563  18.446 -0.0830 -0.1081 -0.0652
21631OCT     C143261  16.323   8.302  20.524 -0.2267 -0.2039  0.1649
21631OCT     C243262  16.450   7.920  20.844 -0.3418  0.2214 -0.0169
21632OCT     C143263   4.122  20.315   1.580  0.2138  0.0898 -0.3642
21632OCT     C243264   4.139  19.870   1.622 -0.1300  0.2349 -0.3770
21633OCT     C143265  12.934  20.849  13.454 -0.0041  0.3449 -0.2517
21633OCT     C243266  13.285  21.061  13.234  0.4414 -0.3807  0.1966
21634OCT     C143267   4.771   5.599  13.754  0.2269 -0.0509  0.2478
21634OCT     C243268   5.110   5.548  14.069  0.5645 -0.1656  0.1765
21635OCT     C143269  10.146  10.404   8.537  0.0333 -0.0922 -0.2084
21635OCT     C243270   9.743  10.472   8.776 -0.3006  0.0487 -0.2256
21636OCT     C143271   2.918  21.747  15.373  0.0577 -0.2205  0.1291
21636OCT     C243272   2.930  22.131  15.638 -0.0317 -0.1356  0.0207
21637OCT     C143273  16.111  23.347  15.765 -0.3444 -0.1413  0.4715
21637OCT     C243274  15.869  23.003  15.497  0.0495  0.0989  0.2164
21638OCT     C143275   7.811   0.353  21.810  0.0094  0.0146 -0.0778
21638OCT     C243276   7.660  23.729  22.176 -0.2250 -0.0206 -0.2764
21639OCT     C143277  23.524   3.514   6.105 -0.0550  0.2009 -0.2831
21639OCT     C243278   0.116   3.803   5.927  0.2965 -0.1086  0.0572
21640OCT     C143279  20.438  18.577   4.631  0.1724  0.0308 -0.0836
21640OCT     C243280  20.773  18.477   4.811  0.1413 -0.0220 -0.0638
21641OCT     C143281  11.710  17.541  23.581 -0.2522  0.0914 -0.1158
21641OCT     C243282  11.546  17.488   0.256  0.2034 -0.1101  0.0405
21642OCT     C143283  19.395   3.750  17.870  0.4560 -0.3265 -0.0155
21642OCT     C243284  19.097   3.867  18.223 -0.1371  0.1756 -0.0536
21643OCT     C143285   7.814   1.779  21.065  0.1491  0.1246 -0.2925
21643OCT     C243286   7.644   1.995  20.705 -0.1422  0.2426  0.0889
21644OCT     C143287  21.669   6.860   5.902 -0.0424 -0.1003 -0.1322
21644OCT     C243288  21.545   6.947   5.483 -0.0685 -0.3880 -0.3186
21645OCT     C143289   5.289  20.381  12.611 -0.2364 -0.0765 -0.0962
21645OCT     C243290   5.596  20.088  12.425 -0.1210  0.3512  0.1149
21646OCT     C143291  12.640  22.400  20.876  0.5634 -0.1269  0.2645
21646OCT     C243292  12.521  21.981  21.044 -0.1942  0.0273 -0.2714
21647OCT     C143293   0.498   9.677  20.128 -0.1754 -0.0287 -0.2182
21647OCT     C243294   0.486   9.522  20.582  0.0464  0.0485 -0.1333
21648OCT     C143295  17.186  19.566  12.090  0.4767 -0.1581  0.1876
21648OCT     C243296  17.593  19.630  12.386  0.2267  0.1332 -0.4916
21649OCT     C143297   1.635   9.334  15.634  0.2466 -0.1889 -0.0345
21649OCT     C243298   2.067   9.431  15.810  0.0964  0.2263  0.1715
21650OCT     C143299  10.926  13.409  22.096 -0.3605 -0.0022  0.0805
21650OCT     C243300  11.256  13.421  21.716  0.0183 -0.0643 -0.3282
21651OCT     C143301   4.331   4.356   3.634  0.3068  0.0454  0.0206
21651OCT     C243302   4.417   3.989   3.317  0.4305 -0.3932 -0.0932
21652OCT     C143303   6.980   9.493  18.558 -0.5362  0.0240 -0.1056
21652OCT     C243304   6.682   9.341  18.855 -0.1184 -0.0261  0.3605
21653OCT     C143305  12.444   0.781   1.876  0.3677  0.4113  0.2461
21653OCT     C243306  12.767   0.452   1.878 -0.1043  0.1396  0.3443
21654OCT     C143307  19.700  18.566   3.356  0.3259  0.0926 -0.3307
21654OCT     C243308  19.623  18.924   3.023 -0.3157 -0.2756 -0.2890
21655OCT     C143309   5.627  16.792  20.512 -0.0317 -0.2047 -0.1401
21655OCT     C243310   5.798  17.165  20.651  0.0145  0.2131 -0.1057
21656OCT     C143311  18.491   5.814   1.797 -0.5472 -0.3706  0.1092
21656OCT     C243312  18.120   5.577   1.878 -0.0493 -0.0820  0.2463
21657OCT     C143313  12.905   4.896  17.310 -0.1077  0.3776  0.0208
21657OCT     C243314  12.470   4.675  17.454 -0.1515 -0.1381  0.2529
21658OCT     C143315  23.526  13.192  17.911 -0.3920 -0.0918  0.1384
21658OCT     C243316  23.675  12.936  17.560  0.3771  0.0202  0.3869
21659OCT     C143317   1.492  15.759  17.297  0.1894 -0.0369  0.1580
21659OCT     C243318   1.350  15.455  16.984 -0.1947 -0.2421 -0.1696
21660OCT     C143319   1.785   0.926  19.840  0.0955 -0.0761 -0.3064
21660OCT     C243320   1.564   1.369  19.980  0.1470  0.1647  0.1278
21661OCT     C143321  11.206  13.624   1.423 -0.2149 -0.0495 -0.1324
21661OCT     C243322  10.952  13.802   1.730 -0.4566 -0.2197  0.0301
21662OCT     C143323   3.017  23.603   4.554 -0.1542  0.2586  0.0927
21662OCT     C243324   3.137  23.167   4.766 -0.1357 -0.0520 -0.2111
21663OCT     C143325  10.250   2.169  20.475 -0.3901  0.0163 -0.1393
21663OCT     C243326  10.483   2.629  20.595  0.3567  0.0756 -0.1130
21664OCT     C143327  23.554   5.663   4.729 -0.3927  0.0267 -0.4714
21664OCT     C243328  23.105   5.673   4.867 -0.0274  0.0590 -0.4781
21665OCT     C143329   2.591   7.205   0.537 -0.1891 -0.1492  0.0404
21665OCT     C243330   2.833   7.392   0.162  0.3419  0.0696 -0.0520
21666OCT     C143331  19.628  17.593  21.288 -0.3622  0.2357  0.0102
21666OCT     C243332  19.895  17.350  20.884  0.0631  0.0962 -0.5349
21667OCT     C143333  20.870  15.106   8.736 -0.3922 -0.0866 -0.3824
21667OCT     C243334  20.635  14.654   8.822 -0.1702  0.0786 -0.2730
21668OCT     C143335  17.093   7.116  11.386 -0.2085  0.0939  0.1253
21668OCT     C243336  17.521   7.013  11.189 -0.1492  0.1441  0.0479
21669OCT     C143337  22.467   0.879   4.547  0.1708  0.1348  0.2271
21669OCT     C243338  22.403   0.668   4.960  0.1526  0.0087  0.1887
21670OCT     C143339  13.986  10.100  20.605 -0.0413  0.0849 -0.0570
21670OCT     C243340  13.774  10.476  20.351  0.5336  0.0145 -0.4789
21671OCT     C143341   5.372  19.781  22.241 -0.1453  0.1037  0.0047
21671OCT     C243342   5.240  20.227  22.307  0.1822 -0.3087 -0.1844
21672OCT     C143343  11.725  20.175   7.808  0.2326 -0.0636  0.2600
21672OCT     C243344  11.381  20.476   7.570 -0.4131 -0.0258 -0.6592
21673OCT     C143345   7.053  18.643   1.139 -0.0025  0.3751 -0.0524
21673OCT     C243346   7.113  18.458   0.721  0.0926 -0.1537 -0.4266
21674OCT     C143347   7.421  10.788  15.906 -0.4405  0.2084 -0.1902
21674OCT     C243348   7.684  10.957  16.296  0.0691  0.1744 -0.1212
21675OCT     C143349   9.050  21.825  14.466 -0.1206  0.3560 -0.1340
21675OCT     C243350   8.792  21.481  14.204  0.3164 -0.0252 -0.0234
21676OCT     C143351   7.931  16.338  21.059  0.1323 -0.0377 -0.0130
21676OCT     C243352   7.763  16.587  21.367  0.0474  0.1779  0.1561
21677OCT     C143353  12.376  18.336  10.182 -0.1119  0.2723 -0.2036
21677OCT     C243354  12.874  18.380  10.224  0.2135  0.2808 -0.0599
21678OCT     C143355   9.754   4.133   9.552 -0.0091 -0.0536 -0.3376
21678OCT     C243356  10.131   4.093   9.756 -0.0124 -0.3164 -0.1177
21679OCT     C143357  10.789   3.265  13.981  0.0110  0.0888 -0.1527
21679OCT     C243358  10.576   3.521  14.294  0.2758 -0.3052 -0.3460
21680OCT     C143359  19.227   9.936   1.877 -0.0376 -0.1446  0.0102
21680OCT     C243360  19.649   9.940   1.839 -0.1149  0.0520 -0.0202
21681OCT     C143361  21.980  11.200  10.483  0.0316  0.2557  0.3250
21681OCT     C243362  21.560  10.955  10.539 -0.2420  0.0134  0.2480
21682OCT     C143363  22.379  10.000   3.025  0.1406 -0.0510  0.0256
21682OCT     C243364  22.572   9.913   2.632 -0.1471  0.2608  0.1735
21683OCT     C143365   9.671   3.823  10.484  0.0947 -0.0356  0.1080
21683OCT     C243366   9.743   3.959  10.049 -0.2692 -0.1960  0.2684
21684OCT     C143367  22.453  21.085  20.417  0.0130 -0.2045 -0.0947
21684OCT     C243368  22.660  21.276  19.995  0.4434  0.0968  0.5136
21685OCT     C143369  16.497  21.424   4.111 -0.1750 -0.1552 -0.0809
21685OCT     C243370  16.122  21.171   3.914 -0.5088  0.3504  0.0738
21686OCT     C143371  22.351  18.713   7.178  0.1741 -0.3224 -0.2746
21686OCT     C243372  22.643  19.109   7.005 -0.0904  0.0095 -0.0313
21687OCT     C143373  19.402  14.135   3.912  0.3308  0.0792 -0.1698
21687OCT     C243374  19.308  14.538   3.695 -0.1386  0.3391 -0.0347
21688OCT     C143375   9.489   2.626   0.010  0.1364  0.0246 -0.3280
21688OCT     C243376   9.149   2.338  23.611 -0.0902 -0.0957  0.0057
21689OCT     C143377  18.590  19.907   0.967 -0.1362 -0.1191  0.1430
21689OCT     C243378  18.364  20.006   1.404 -0.1888 -0.2123  0.1462
21690OCT     C143379   7.282  17.987  17.409 -0.1109  0.0142  0.4001
21690OCT     C243380   7.285  17.501  17.402 -0.0245 -0.0065  0.0946
21691OCT     C143381  12.794  11.214   8.294  0.2241  0.1813 -0.2023
21691OCT     C243382  12.798  11.663   8.441 -0.1881  0.0119  0.1251
21692OCT     C143383   4.787  13.130   6.654 -0.1741 -0.0255 -0.0027
21692OCT     C243384   4.592  12.940   6.302  0.0874  0.0217 -0.4225
21693OCT     C143385  21.635   6.415   8.743 -0.1622 -0.1274  0.0717
21693OCT     C243386  21.793   6.527   9.203 -0.1894 -0.1856  0.0125
21694OCT     C143387  12.095   9.125  23.729  0.4544 -0.0729 -0.1953
21694OCT     C243388  12.413   9.394   0.255  0.1210 -0.0129 -0.4404
21695OCT     C143389  19.696  19.134  22.249  0.1906 -0.1496  0.0295
21695OCT     C243390  19.436  19.433  22.006  0.2286 -0.2610  0.1184
21696OCT     C143391   1.668  15.668  22.884  0.3675 -0.0687  0.2209
21696OCT     C243392   1.237  15.595  22.828 -0.0784 -0.4797  0.3515
21697OCT     C143393  17.609  23.110  18.967  0.0203  0.2135 -0.0144
21697OCT     C243394  17.185  23.225  19.069 -0.1857 -0.3744  0.1871
21698OCT     C143395  18.255   2.046   2.314  0.4610 -0.0932 -0.2845
21698OCT     C243396  18.515   2.345   2.114  0.2274  0.0563  0.2758
21699OCT     C143397  11.505  23.375  10.658  0.0437 -0.0012 -0.2635
21699OCT     C243398  11.193  23.707  10.610  0.1722  0.0042  0.0161
21700OCT     C143399  12.321   6.291  10.955 -0.2615  0.0765  0.1633
21700OCT     C243400  12.199   5.823  10.848 -0.0292  0.2275  0.2111
21701OCT     C143401   5.045  10.962  16.092 -0.0963 -0.2992 -0.3369
21701OCT     C243402   4.943  10.802  16.523  0.1955 -0.3491 -0.2114
21702OCT     C143403  17.896  11.904   8.446 -0.1455 -0.3736 -0.1067
21702OCT     C243404  17.940  12.149   8.144 -0.1002  0.4130  0.0963
21703OCT     C143405  10.837  14.387  22.086 -0.5339 -0.2886  0.2939
21703OCT     C243406  10.643  14.595  21.737  0.0261  0.0114  0.1812
21704OCT     C143407  19.300  13.452  14.290  0.3223  0.1823 -0.1333
21704OCT     C243408  18.882  13.471  14.060 -0.0402  0.2448  0.0248
21705OCT     C143409   1.968   4.512   8.200 -0.0494  0.0917  0.0764
21705OCT     C243410   1.671   4.825   8.225 -0.2032 -0.3512 -0.2115
21706OCT     C143411  17.626  19.386  21.252 -0.0885 -0.3373 -0.1776
21706OCT     C243412  17.364  19.040  21.284 -0.2402 -0.1653  0.2473
21707OCT     C143413  10.524   9.644  21.362 -0.2210 -0.0569  0.1851
21707OCT     C243414  10.672   9.820  20.896 -0.4390  0.3040 -0.1804
21708OCT     C143415  18.501  23.409   6.018  0.0382  0.1755  0.1867
21708OCT     C243416  18.125  23.622   6.056  0.1768  0.0274  0.3349
21709OCT     C143417  19.976   5.668  14.183 -0.3284  0.1989  0.0057
21709OCT     C243418  20.244   5.844  13.824  0.0040 -0.1397 -0.0534
21710OCT     C143419   7.505  21.602  16.831 -0.1276 -0.0217 -0.0186
21710OCT     C243420   7.067  21.385  16.782  0.2866  0.3613 -0.3425
21711OCT     C143421  11.493  13.123  19.107 -0.0708  0.2362 -0.0383
21711OCT     C243422  11.262  13.134  18.678  0.0285  0.2895 -0.4086
21712OCT     C143423  21.346  13.513  19.742  0.1779 -0.4535 -0.1314
21712OCT     C243424  21.240  13.967  19.710  0.1084  0.3793  0.2588
21713OCT     C143425  22.658   6.365   7.054 -0.0242  0.3055 -0.0218
21713OCT     C243426  22.588   6.746   6.866 -0.5030  0.2318 -0.0885
21714OCT     C143427  16.999  12.852  14.172  0.0084  0.2983 -0.1930
21714OCT     C243428  17.044  13.306  14.093 -0.1424  0.0389 -0.1165
21715OCT     C143429  14.560  21.998  18.126  0.1227 -0.0402 -0.4116
21715OCT     C243430  15.010  22.119  18.371  0.2231 -0.0661 -0.0049
21716OCT     C143431  11.792   5.980  17.842 -0.1199 -0.2359 -0.4829
21716OCT     C243432  12.210   5.951  17.699 -0.0208  0.0022 -0.0832
21717OCT     C143433  14.165  20.652  14.872  0.1639  0.2768 -0.2869
21717OCT     C243434  14.252  21.068  14.705  0.0513 -0.0845  0.1059
21718OCT     C143435   8.060  11.478   4.738 -0.2274 -0.1481 -0.0564
21718OCT     C243436   7.634  11.429   4.837 -0.2586 -0.1578  0.2628
21719OCT     C143437  16.006  13.887   7.086 -0.0343  0.3065 -0.1251
21719OCT     C243438  15.763  14.189   7.330  0.3578 -0.2469 -0.3003
21720OCT     C143439  22.406   1.562  18.155 -0.3082  0.3471  0.1708
21720OCT     C243440  22.056   1.706  18.391  0.3056  0.2102  0.1478
21721OCT     C143441  12.212   5.514   9.371  0.2525 -0.0506  0.0758
21721OCT     C243442  11.785   5.520   9.193 -0.0222  0.2673 -0.0273
21722OCT     C143443   3.983  17.206   3.071  0.1881 -0.1594  0.1933
21722OCT     C243444   3.793  17.573   3.279 -0.0291 -0.0905  0.2841
21723OCT     C143445  22.807  19.832   0.589 -0.1484 -0.0578 -0.1545
21723OCT     C243446  23.144  19.916   0.876 -0.1342  0.2425  0.0568
21724OCT     C143447  16.140  22.224   7.101  0.2312 -0.0179 -0.2663
21724OCT     C243448  16.011  21.920   6.779  0.0518  0.5296 -0.3541
21725OCT     C143449  15.286  13.876  21.655 -0.0813 -0.3907  0.3455
21725OCT     C243450  14.922  14.226  21.679 -0.1649  0.0029  0.0927
21726OCT     C143451  23.099  13.586   4.577 -0.0424 -0.2426 -0.0125
21726OCT     C243452  23.520  13.422   4.576  0.1340  0.2871  0.0261
21727OCT     C143453  21.760  19.943   0.953 -0.1422  0.1453  0.0970
21727OCT     C243454  21.992  20.349   0.781 -0.0460 -0.1828 -0.0167
21728OCT     C143455   9.277  21.552  19.390 -0.0802  0.2046 -0.0136
21728OCT     C243456   9.365  21.921  19.195 -0.2582 -0.0661  0.0641
21729OCT     C143457   5.257   7.963  11.962  0.0138 -0.0092  0.1124
21729OCT     C243458   5.274   7.544  12.132 -0.1815 -0.0506  0.1658
21730OCT     C143459   9.464  17.169  21.362  0.3335 -0.0218 -0.1439
21730OCT     C243460   9.827  16.965  21.681  0.1909  0.1783 -0.0050
21731OCT     C143461  22.145  13.225   6.418 -0.1021 -0.0011  0.0323
21731OCT     C243462  22.508  13.384   6.574  0.1759 -0.1317 -0.1030
21732OCT     C143463  10.335  16.633  18.436 -0.4033 -0.2142  0.0697
21732OCT     C243464  10.295  17.001  18.098  0.0868 -0.0246 -0.3501
21733OCT     C143465  20.328  16.375   7.017 -0.3435 -0.1847 -0.1214
21733OCT     C243466  20.278  16.822   7.066  0.2087  0.1731 -0.4750
21734OCT     C143467  21.061  22.105   2.916  0.1444  0.1501  0.2958
21734OCT     C243468  21.493  22.239   2.863 -0.1614 -0.1083 -0.1496
21735OCT     C143469  12.929  10.871  18.709  0.1427  0.1373 -0.1771
21735OCT     C243470  12.971  10.445  18.539 -0.1176  0.1162  0.2068
21736OCT     C143471  10.774   8.725  18.228 -0.1519 -0.0227 -0.2616
21736OCT     C243472  10.945   8.530  17.842  0.1163  0.0252 -0.1478
21737OCT     C143473  12.045  22.141   5.742  0.3417  0.2048  0.2005
21737OCT     C243474  12.132  21.711   5.827 -0.1347  0.1429 -0.1835
21738OCT     C143475   6.598   1.863  10.648 -0.0701  0.1620  0.2474
21738OCT     C243476   7.055   2.067  10.550  0.2207  0.0474  0.0359
21739OCT     C143477  19.767  16.387   3.976  0.0973 -0.3772 -0.2212
21739OCT     C243478  20.071  16.734   3.928  0.2732 -0.2270 -0.1786
21740OCT     C143479  16.987  20.288   4.777 -0.1410 -0.0766  0.4131
21740OCT     C243480  17.397  20.211   4.626 -0.1627  0.0068 -0.1245
21741OCT     C143481  18.221   6.112   8.116 -0.0239  0.3448 -0.0993
21741OCT     C243482  17.963   5.983   7.792  0.3079  0.1714  0.0083
21742OCT     C143483   9.590  22.756  14.932  0.0778  0.0308 -0.1127
21742OCT     C243484  10.013  22.522  15.040 -0.0106  0.2192  0.0277
21743OCT     C143485  13.453  12.490   6.408 -0.1957 -0.1424  0.0047
21743OCT     C243486  13.796  12.707   6.701 -0.1517  0.2872  0.0538
21744OCT     C143487   3.462  11.398  23.562  0.1932 -0.0453  0.2811
21744OCT     C243488   3.737  11.006  23.642  0.0946 -0.0259  0.1367
21745OCT     C143489  22.264  12.433   4.072 -0.1470 -0.1726 -0.0665
21745OCT     C243490  21.815  12.338   4.110  0.0374  0.5602  0.0694
21746OCT     C143491  16.549  12.856   9.444 -0.3580 -0.0673  0.1224
21746OCT     C243492  16.622  13.195   9.788 -0.1210 -0.0268 -0.4234
21747OCT     C143493  21.464   1.592   1.399 -0.4276 -0.0686  0.2121
21747OCT     C243494  21.844   1.416   1.613  0.0203  0.3414 -0.0069
21748OCT     C143495   5.276  22.778   2.130 -0.2655 -0.2425  0.0426
21748OCT     C243496   4.858  22.584   2.213 -0.0980  0.0789 -0.0708
21749OCT     C143497  13.353   6.868  10.556 -0.1776  0.1117  0.2303
21749OCT     C243498  13.193   6.794  10.968  0.1875 -0.0036 -0.4085
21750OCT     C143499   6.163   7.926  12.379  0.3071 -0.0610 -0.0209
21750OCT     C243500   5.778   8.123  12.591  0.1326  0.2252  0.2040
21751OCT     C143501   9.000  16.501   3.560 -0.2844  0.5324 -0.2763
21751OCT     C243502   9.421  16.624   3.691  0.3617 -0.0884 -0.1306
21752OCT     C143503   7.504  20.409  20.862  0.0082  0.1484  0.4964
21752OCT     C243504   7.427  20.840  20.738 -0.0526 -0.0089 -0.1553
21753OCT     C143505   8.969  20.177  16.346  0.2680  0.0654 -0.2021
21753OCT     C243506   8.837  20.353  15.919  0.2464  0.0850 -0.0108
21754OCT     C143507   9.668   3.321  21.127 -0.1720  0.0083  0.4475
21754OCT     C243508  10.067   3.448  20.912  0.0044 -0.0795  0.3480
21755OCT     C143509  14.924   9.511   8.742 -0.1778  0.1640  0.4118
21755OCT     C243510  15.072   9.461   9.155  0.3671  0.2129 -0.1649
21756OCT     C143511   6.476   4.100   6.266 -0.0960  0.0349 -0.2195
21756OCT     C243512   6.597   3.798   5.923  0.0499 -0.0356 -0.3482
21757OCT     C143513   1.624   0.553  21.875  0.2571 -0.1008  0.5875
21757OCT     C243514   1.786   0.671  21.433  0.0133 -0.2022  0.1812
21758OCT     C143515  22.907   7.757   1.239  0.0089 -0.2296  0.1084
21758OCT     C243516  23.305   7.755   1.514 -0.4804  0.1823 -0.3211
21759OCT     C143517  20.965   5.809   9.158 -0.1386 -0.0935  0.1262
21759OCT     C243518  21.342   5.552   8.964 -0.3313 -0.1390 -0.2197
21760OCT     C143519  12.506   6.023   9.720 -0.3286 -0.0647 -0.1575
21760OCT     C243520  12.519   5.571   9.929 -0.0350 -0.2486  0.0337
21761OCT     C143521   4.503  17.653  22.242 -0.0629  0.2625  0.0995
21761OCT     C243522   4.322  18.089  22.376  0.0555  0.1551  0.0135
21762OCT     C143523  18.141  10.555  20.108  0.0315  0.1304 -0.0912
21762OCT     C243524  18.493  10.641  19.844  0.3209 -0.2238 -0.2121
21763OCT     C143525   5.439   9.691   9.382 -0.2862  0.0983  0.2967
21763OCT     C243526   5.217   9.606   9.825 -0.2453 -0.2238 -0.1010
21764OCT     C143527   3.302  18.314   8.247 -0.3756  0.1590 -0.1245
21764OCT     C243528   3.299  18.736   7.980 -0.3809  0.1312 -0.3792
21765OCT     C143529   0.938  23.430   1.077  0.0790  0.3516 -0.0918
21765OCT     C243530   0.693  23.049   1.324  0.1035  0.1543 -0.1389
21766OCT     C143531   3.091   5.624   6.105  0.1206 -0.1937 -0.0052
21766OCT     C243532   3.159   5.251   6.409 -0.2949  0.1963 -0.1071
21767OCT     C143533   0.618  10.953  12.703 -0.1829 -0.2332  0.1758
21767OCT     C243534   0.606  11.268  13.068  0.1193  0.0217 -0.1659
21768OCT     C143535  14.624   1.828  18.228  0.4234  0.1239  0.2536
21768OCT     C243536  14.490   2.223  18.256  0.2022  0.0320  0.0359
21769OCT     C143537  11.082   7.723   6.567 -0.3208 -0.1240 -0.1498
21769OCT     C243538  10.810   7.359   6.753 -0.2573  0.4046 -0.4349
21770OCT     C143539  18.297  17.684  11.514 -0.0656  0.3177  0.0707
21770OCT     C243540  18.402  18.026  11.791  0.1758  0.1825  0.0679
21771OCT     C143541  17.436   8.487  19.517  0.0956  0.0820  0.0550
21771OCT     C243542  17.357   8.922  19.701  0.2430  0.0229  0.3980
21772OCT     C143543  13.909  11.191   8.428  0.3481  0.1486 -0.0867
21772OCT     C243544  13.600  10.888   8.370  0.0614 -0.1327 -0.3286
21773OCT     C143545  20.876   2.798  17.017 -0.0111  0.0084 -0.3926
21773OCT     C243546  21.092   2.625  16.614 -0.3145 -0.1803 -0.2745
21774OCT     C143547  11.856  22.137  17.954 -0.2775 -0.3868  0.3665
21774OCT     C243548  11.912  22.194  18.444 -0.0925  0.3155  0.1317
21775OCT     C143549  12.952  17.071   0.177  0.0337 -0.1576 -0.1682
21775OCT     C243550  12.985  16.676  23.655 -0.0907 -0.0414  0.2173
21776OCT     C143551   4.173  22.742  12.418  0.0994 -0.3797  0.1129
21776OCT     C243552   4.606  22.829  12.485  0.2454 -0.2688  0.1179
21777OCT     C143553   6.981   5.181  11.579 -0.3155 -0.1597  0.0118
21777OCT     C243554   7.092   5.317  11.156  0.2276 -0.0507  0.0028
21778OCT     C143555  19.654  20.342  16.442 -0.0132 -0.3575  0.0990
21778OCT     C243556  19.588  20.777  16.265  0.1832  0.1232  0.3642
21779OCT     C143557   6.676  21.090  22.004  0.0248  0.0579 -0.1848
21779OCT     C243558   6.614  21.076  21.524 -0.0066  0.1880  0.2461
21780OCT     C143559   9.477   4.926  20.439 -0.0824  0.2339 -0.0960
21780OCT     C243560   9.338   5.240  20.760 -0.0814  0.2158 -0.1822
21781OCT     C143561   0.313   9.558   7.235  0.1791  0.2837  0.1068
21781OCT     C243562   0.673   9.560   7.555  0.1292 -0.3305 -0.1240
21782OCT     C143563   1.121  12.628  23.090 -0.0889 -0.1109  0.1859
21782OCT     C243564   1.258  12.772  22.705 -0.0427  0.4714  0.2529
21783OCT     C143565  10.582   9.327  17.409  0.1282  0.0064  0.0750
21783OCT     C243566  10.411   9.025  17.092 -0.0317  0.2305 -0.0276
21784OCT     C143567  15.941   0.121  20.708  0.1604  0.0259 -0.1196
21784OCT     C243568  15.939   0.202  21.174 -0.0753  0.0991 -0.0434
21785OCT     C143569   2.400   0.778  11.426  0.1280  0.2857 -0.1608
21785OCT     C243570   2.166   0.977  11.801  0.0012 -0.2083 -0.1570
21786OCT     C143571  20.697   7.673   6.563  0.1618  0.1579  0.3640
21786OCT     C243572  21.126   7.502   6.699 -0.0432 -0.1246  0.0383
21787OCT     C143573  21.572  10.124  22.599  0.1460  0.1267  0.0328
21787OCT     C243574  21.683  10.512  22.777 -0.0665 -0.0757 -0.0520
21788OCT     C143575  13.357   5.320  12.203  0.0705  0.0502 -0.0660
21788OCT     C243576  12.931   5.433  12.147  0.3097 -0.2930  0.1010
21789OCT     C143577  22.469   1.447   5.197 -0.0796 -0.0919  0.1489
21789OCT     C243578  22.140   1.356   5.460 -0.0191  0.1228  0.2084
21790OCT     C143579  16.032  11.500  23.149  0.1537 -0.2927  0.1294
21790OCT     C243580  15.548  11.553  23.219  0.1517 -0.3152 -0.3257
21791OCT     C143581  16.448  10.301  13.006  0.1380 -0.3037  0.1666
21791OCT     C243582  16.747  10.539  13.310  0.0608 -0.0277  0.3789
21792OCT     C143583  10.747  19.125   9.977  0.0450  0.1251  0.2122
21792OCT     C243584  10.293  19.111   9.830  0.0228 -0.0897 -0.3634
21793OCT     C143585   8.789  11.706  17.566  0.0190  0.0888 -0.0591
21793OCT     C243586   8.966  11.516  17.212 -0.0642 -0.1109  0.5131
21794OCT     C143587  12.011  12.677  17.730 -0.0227  0.1238 -0.1538
21794OCT     C243588  12.443  12.570  17.549 -0.3435  0.1204  0.1299
21795OCT     C143589   7.413  22.124   9.784  0.2506  0.1896 -0.2077
21795OCT     C243590   7.381  21.798   9.497 -0.0533  0.5313  0.0041
21796OCT     C143591  13.485  20.505   0.928 -0.0808 -0.0655  0.0198
21796OCT     C243592  13.579  20.099   1.165 -0.4441  0.0813 -0.6458
21797OCT     C143593  15.057  19.539  14.638 -0.3444  0.2235 -0.1003
21797OCT     C243594  15.306  19.189  14.461  0.3707 -0.1468  0.0971
21798OCT     C143595  22.284   5.311  14.423  0.0362 -0.0243 -0.1186
21798OCT     C243596  22.744   5.464  14.374 -0.0451 -0.0978  0.1553
21799OCT     C143597   6.012  17.757  14.630 -0.1941 -0.1561  0.0510
21799OCT     C243598   5.863  18.019  14.275  0.4534 -0.1317 -0.1554
21800OCT     C143599   7.995  16.358  23.634  0.1030  0.0083  0.1119
21800OCT     C243600   7.674  16.591   0.151 -0.2401  0.1192  0.0603
21801OCT     C143601  16.040   1.265  22.664 -0.1635  0.0553 -0.3835
21801OCT     C243602  16.253   1.581  22.985 -0.0717  0.3066 -0.2727
21802OCT     C143603  20.068  13.030  18.824  0.1575  0.2216  0.1514
21802OCT     C243604  20.201  13.333  19.140  0.2719 -0.0723 -0.0117
21803OCT     C143605   5.195  15.289   5.360 -0.0940  0.0164  0.1744
21803OCT     C243606   4.748  15.165   5.257 -0.1250 -0.3078  0.1025
21804OCT     C143607  13.551   6.048  16.322 -0.5822  0.0478 -0.1219
21804OCT     C243608  13.106   6.088  16.461 -0.0391 -0.4165 -0.1208
21805OCT     C143609  18.302   3.121  18.014  0.4423  0.2419 -0.1979
21805OCT     C243610  18.512   3.297  17.650  0.0720 -0.0781  0.1556
21806OCT     C143611  23.631   2.630  11.186  0.2169 -0.2337 -0.2448
21806OCT     C243612  23.640   3.039  10.969 -0.0525 -0.1916  0.1029
21807OCT     C143613  13.237   8.822  10.649  0.0810  0.0979 -0.0519
21807OCT     C243614  13.293   9.071  10.273  0.2170  0.2078  0.0187
21808OCT     C143615  20.648  21.096   1.524  0.0520  0.0958  0.1240
21808OCT     C243616  20.734  21.551   1.542 -0.3259  0.0589  0.1960
21809OCT     C143617  19.904   0.570  15.843  0.3236  0.1520  0.2185
21809OCT     C243618  19.960   0.705  16.236  0.1451  0.2800  0.0708
21810OCT     C143619   2.496  13.496   0.829 -0.0898 -0.5901 -0.0690
21810OCT     C243620   2.838  13.558   0.469  0.2130 -0.4149  0.0901
21811OCT     C143621  21.445  13.193   3.343  0.0368 -0.2400 -0.0075
21811OCT     C243622  21.808  13.133   3.003  0.0192  0.1127 -0.1690
21812OCT     C143623  15.963  21.589   2.028 -0.3044 -0.1284 -0.1940
21812OCT     C243624  15.819  21.214   1.739 -0.0192  0.0657  0.3716
21813OCT     C143625  13.362  23.207  23.595  0.2832  0.1092  0.2835
21813OCT     C243626  13.448  23.506  23.210 -0.0211  0.2059 -0.0450
21814OCT     C143627  21.781  23.398   7.502 -0.0005  0.1474  0.1057
21814OCT     C243628  21.590  23.509   7.089 -0.1891  0.0225 -0.3241
21815OCT     C143629  17.034  20.768   0.125  0.0011 -0.2448  0.2083
21815OCT     C243630  17.456  20.690  23.632 -0.0508 -0.3073 -0.5870
21816OCT     C143631   5.650  11.976   3.993 -0.0619 -0.1468 -0.3305
21816OCT     C243632   5.368  11.964   4.390  0.3767  0.2228  0.1235
21817OCT     C143633  22.477   1.680  21.057 -0.5331 -0.4109  0.2620
21817OCT     C243634  22.760   1.957  21.285  0.0627 -0.1369 -0.1207
21818OCT     C143635  19.273   3.843  17.323 -0.0291  0.0250  0.2639
21818OCT     C243636  19.222   3.706  16.857 -0.0429  0.0991 -0.1461
21819OCT     C143637  10.321  14.091  17.503 -0.5608  0.4006  0.2304
21819OCT     C243638  10.538  13.946  17.878  0.3036  0.0592  0.0376
21820OCT     C143639  21.036   1.983   0.837 -0.0861  0.0402  0.0861
21820OCT     C243640  20.625   1.775   0.951  0.1605  0.3166 -0.2991
21821OCT     C143641  19.855   9.541  14.669  0.0548  0.3448  0.2513
21821OCT     C243642  19.872   9.063  14.780  0.1802  0.3353  0.2469
21822OCT     C143643  12.044  20.653  10.786 -0.1728 -0.1799  0.0346
21822OCT     C243644  12.023  21.102  10.911 -0.1757 -0.0531 -0.1085
21823OCT     C143645   4.876   2.742   3.999 -0.0325 -0.0418  0.1365
21823OCT     C243646   5.194   2.629   3.727 -0.0645 -0.1215 -0.0681
21824OCT     C143647  16.156  17.364  11.454  0.1902  0.0437 -0.2246
21824OCT     C243648  16.086  16.862  11.315  0.0919  0.3134 -0.2108
21825OCT     C143649   2.142  11.844   9.145  0.1968  0.2374 -0.0248
21825OCT     C243650   2.200  12.242   8.933  0.4096 -0.1095 -0.0121
21826OCT     C143651  23.510  20.322   0.924 -0.3962 -0.0785  0.0262
21826OCT     C243652  23.729  20.457   0.544 -0.0937  0.3610 -0.2340
21827OCT     C143653   6.536   2.931   2.944  0.1042  0.1136 -0.3606
21827OCT     C243654   6.661   2.450   2.974  0.1249 -0.0558  0.0837
21828OCT     C143655   9.729   5.274  18.743  0.0269 -0.0627 -0.2386
21828OCT     C243656   9.768   5.501  19.191 -0.3188 -0.0337  0.0822
21829OCT     C143657  21.972   4.323   6.186 -0.2634 -0.1350  0.1974
21829OCT     C243658  21.902   3.878   6.299 -0.1323  0.0717 -0.3192
21830OCT     C143659  23.497   9.902   1.218 -0.1364  0.3809  0.1780
21830OCT     C243660  23.608  10.093   1.630  0.4003  0.0267 -0.1618
21831OCT     C143661  18.173  13.316   6.419  0.2165  0.0444  0.0726
21831OCT     C243662  17.714  13.368   6.491 -0.1184 -0.1022 -0.1326
21832OCT     C143663  13.669  18.587  15.226 -0.1067  0.1791  0.2652
21832OCT     C243664  13.346  18.208  15.286 -0.1038 -0.1028 -0.2740
21833OCT     C143665  20.830  14.214   6.501  0.1855  0.3195 -0.0542
21833OCT     C243666  20.801  14.531   6.167  0.0233  0.1642 -0.3057
21834OCT     C143667  13.234  20.374  22.470  0.0520  0.0047 -0.1050
21834OCT     C243668  12.838  20.347  22.448 -0.4882  0.3364  0.0026
21835OCT     C143669  10.136   9.810   9.892  0.0648 -0.0381 -0.1147
21835OCT     C243670   9.871  10.199   9.806 -0.2958 -0.2146 -0.1876
21836OCT     C143671  22.336  18.587  18.681 -0.1623 -0.3542 -0.1987
21836OCT     C243672  21.997  18.241  18.630 -0.3117 -0.0610  0.4527
21837OCT     C143673   0.613  20.285   2.010 -0.1418 -0.0303 -0.1833
21837OCT     C243674   0.516  20.752   1.786 -0.1003  0.0341 -0.3724
21838OCT     C143675  13.258  15.345   5.337  0.3086 -0.0027 -0.1190
21838OCT     C243676  13.515  15.212   5.731  0.1418  0.1542 -0.4672
21839OCT     C143677   7.438  21.964  13.724 -0.0988  0.1202  0.0975
21839OCT     C243678   7.206  22.148  13.366 -0.1384  0.4603  0.0358
21840OCT     C143679   2.457   3.899   5.956  0.0282  0.3724 -0.0584
21840OCT     C243680   2.525   4.409   5.984  0.3034  0.2242 -0.0257
21841OCT     C143681  14.747  12.987  11.269 -0.1522 -0.4350 -0.1592
21841OCT     C243682  14.527  13.455  11.215 -0.2504 -0.3611  0.1797
21842OCT     C143683  18.228  14.761  19.899  0.0442 -0.3087  0.1556
21842OCT     C243684  18.449  15.190  19.729  0.0218 -0.0731 -0.0819
21843OCT     C143685   7.636   9.005   1.036  0.0151 -0.3159  0.0129
21843OCT     C243686   7.865   9.442   1.144  0.1026 -0.0002 -0.1142
21844OCT     C143687   0.451   0.718   0.831 -0.0884 -0.4015  0.0317
21844OCT     C243688   0.424   0.328   1.087  0.0077 -0.1928  0.0490
21845OCT     C143689  14.168  11.874  14.794  0.0264  0.0843  0.2183
21845OCT     C243690  14.370  11.526  14.553 -0.1044 -0.2830  0.1934
21846OCT     C143691  18.251  22.226  16.797  0.0493 -0.2776  0.0840
21846OCT     C243692  17.838  22.027  16.892  0.1290 -0.1565  0.0072
21847OCT     C143693   8.739  17.049  14.347  0.0923 -0.1130  0.1816
21847OCT     C243694   8.689  16.605  14.458  0.0255  0.1112  0.0505
21848OCT     C143695  18.922  13.974   3.932 -0.2797 -0.0379 -0.2362
21848OCT     C243696  19.105  13.716   3.550  0.2167  0.2615  0.0389
21849OCT     C143697   7.149   7.667  22.349 -0.0310  0.0432 -0.3990
21849OCT     C243698   7.472   7.889  22.647  0.3044  0.0513  0.0312
21850OCT     C143699  12.933   2.306   4.893  0.1097 -0.0600 -0.1279
21850OCT     C243700  13.107   2.510   5.247  0.0539 -0.0014  0.1684
21851OCT     C143701  16.440   2.573  21.067 -0.2856  0.2149 -0.0507
21851OCT     C243702  16.104   2.385  20.860 -0.0190  0.3381  0.2599
21852OCT     C143703  13.562   9.142   2.828  0.1554  0.0285 -0.0877
21852OCT     C243704  13.811   8.904   2.495 -0.0784 -0.0959 -0.0186
21853OCT     C143705  19.216   2.380   4.816 -0.0271  0.2254  0.2426
21853OCT     C243706  18.964   1.995   4.590 -0.2254  0.1123  0.0069
21854OCT     C143707  11.085  13.934  17.070  0.0596 -0.2200  0.3911
21854OCT     C243708  11.457  14.253  17.257  0.3087 -0.0147 -0.0979
21855OCT     C143709  10.663   5.139  21.155 -0.0990  0.4139 -0.0762
21855OCT     C243710  10.728   4.977  21.580  0.1301 -0.0655 -0.2467
21856OCT     C143711  23.117  21.152  15.927  0.3020 -0.0441  0.1137
21856OCT     C243712  23.414  20.784  15.811  0.2762 -0.1256  0.2219
21857OCT     C143713   7.817  15.244  21.828 -0.1914  0.1064 -0.0639
21857OCT     C243714   7.641  14.913  21.533  0.0465 -0.0628  0.2931
21858OCT     C143715  21.854  19.176  20.563  0.0862 -0.1750  0.0640
21858OCT     C243716  22.140  19.221  20.111  0.2516  0.1140 -0.2179
21859OCT     C143717   5.293   5.661   9.013  0.3275  0.1258 -0.0591
21859OCT     C243718   5.211   5.475   8.598 -0.1946  0.1322 -0.4532
21860OCT     C143719  22.326  15.202  10.533  0.1885 -0.3567  0.3282
21860OCT     C243720  22.576  15.205  10.904 -0.0977 -0.0387  0.3932
21861OCT     C143721  21.078  22.862  10.919  0.3787 -0.2015  0.2479
21861OCT     C243722  21.055  22.408  10.771 -0.0989 -0.1732 -0.0265
21862OCT     C143723  16.356   5.744  12.824 -0.1902 -0.0793 -0.3004
21862OCT     C243724  16.760   5.765  13.024  0.1676  0.0093  0.5098
21863OCT     C143725  22.424  13.755   6.948 -0.0279 -0.0665  0.1247
21863OCT     C243726  22.841  13.892   7.140  0.1582  0.0462  0.2479
21864OCT     C143727   0.565  16.266  17.686  0.4557 -0.1846  0.0016
21864OCT     C243728   0.216  16.435  17.950  0.1440  0.0165  0.0870
21865OCT     C143729  13.246   9.134  23.576  0.1433  0.2318 -0.1615
21865OCT     C243730  12.978   9.506  23.441  0.1237  0.1757 -0.0765
21866OCT     C143731  21.481   0.264   5.907 -0.0632 -0.2214 -0.1319
21866OCT     C243732  21.221   0.131   5.471 -0.1520  0.2080  0.2059
21867OCT     C143733  15.431  11.661   5.350  0.1237 -0.2084  0.0369
21867OCT     C243734  15.346  11.788   5.751 -0.1953  0.1044  0.2192
21868OCT     C143735  12.253  11.987  10.767 -0.0474 -0.0281  0.3011
21868OCT     C243736  12.110  11.516  10.743  0.0786 -0.3222 -0.0267
21869OCT     C143737   5.680   7.411   6.730 -0.2380 -0.1471  0.0709
21869OCT     C243738   5.868   7.538   6.323  0.1193  0.0087  0.4667
21870OCT     C143739  10.255   5.806  12.350  0.2744  0.2702  0.2848
21870OCT     C243740  10.403   5.993  11.952 -0.0618 -0.0643 -0.0026
21871OCT     C143741   8.453   1.851  15.545 -0.2126  0.1006  0.0882
21871OCT     C243742   8.337   1.975  15.937 -0.3153  0.1305 -0.1146
21872OCT     C143743  13.537  11.371  13.797 -0.1128 -0.0419 -0.4010
21872OCT     C243744  13.523  10.958  14.057  0.0143  0.0383 -0.0303
21873OCT     C143745  14.484   9.697   7.223  0.0916 -0.2353 -0.0297
21873OCT     C243746  14.952   9.784   7.237  0.0431 -0.1975  0.4318
21874OCT     C143747  15.168  15.099  21.624  0.1054  0.1017 -0.2463
21874OCT     C243748  15.432  15.494  21.774 -0.1308  0.0145 -0.1224
21875OCT     C143749  21.344  23.492   1.451 -0.0258  0.2221  0.2658
21875OCT     C243750  21.598  23.142   1.578 -0.0755  0.2806 -0.2300
21876OCT     C143751  21.178   4.385  12.302  0.2193  0.0063 -0.2197
21876OCT     C243752  21.295   4.838  12.351 -0.0668 -0.1141  0.1102
21877OCT     C143753   9.374  23.104   3.194  0.2529  0.0424  0.0754
21877OCT     C243754   9.555  23.221   3.599  0.0085  0.2547  0.1458
21878OCT     C143755   8.859  19.803  20.900 -0.3903  0.0105 -0.0803
21878OCT     C243756   8.453  20.040  20.943  0.2012 -0.2776  0.2293
21879OCT     C143757   2.546   4.974   3.882 -0.2404  0.0843  0.0213
21879OCT     C243758   2.680   5.326   3.606  0.0530  0.1367  0.1236
21880OCT     C143759   5.320  10.094   9.703  0.0896  0.1628 -0.0801
21880OCT     C243760   5.032  10.468   9.732 -0.1571 -0.0292  0.2535
21881OCT     C143761  13.901  19.975   3.693  0.1767  0.2528  0.2297
21881OCT     C243762  14.138  19.987   4.084 -0.2799  0.2761  0.3122
21882OCT     C143763   3.020  11.823   3.936  0.0745  0.2146  0.0579
21882OCT     C243764   3.117  12.039   3.555 -0.3796 -0.1451  0.0793
21883OCT     C143765   9.614  19.190   1.695 -0.3232 -0.1377 -0.3556
21883OCT     C243766   9.517  19.629   1.889 -0.2939  0.3209  0.2787
21884OCT     C143767   0.288   7.259  10.089  0.1013  0.2044  0.0244
21884OCT     C243768   0.570   6.956   9.935 -0.3222 -0.2711  0.3511
21885OCT     C143769   0.338   9.347  18.727  0.1576  0.2333 -0.0912
21885OCT     C243770   0.073   9.781  18.785  0.0283  0.1554  0.0262
21886OCT     C143771   8.882  17.721  20.605 -0.0155 -0.2023 -0.4068
21886OCT     C243772   8.483  17.622  20.425 -0.1194 -0.1545  0.2675
21887OCT     C143773  22.665  19.061   3.082  0.0010  0.2644  0.0389
21887OCT     C243774  22.931  18.843   3.411  0.0887 -0.0396 -0.0369
21888OCT     C143775  14.242  22.703   8.470 -0.4090 -0.0765  0.0151
21888OCT     C243776  14.249  22.785   9.001  0.2441  0.1801  0.3493
21889OCT     C143777  14.589  17.217  14.825 -0.0851  0.2157 -0.0418
21889OCT     C243778  14.808  17.323  14.400 -0.5919  0.1373 -0.1287
21890OCT     C143779  13.761  19.899  11.432  0.1624  0.1702 -0.3346
21890OCT     C243780  13.432  20.299  11.451  0.2198  0.2388 -0.0416
21891OCT     C143781   9.293  15.324  15.879 -0.2079  0.1890  0.2108
21891OCT     C243782   9.682  15.206  15.627  0.1394  0.1666 -0.0258
21892OCT     C143783   8.193  23.544  14.680 -0.2635  0.0351  0.3698
21892OCT     C243784   8.062  23.130  14.486 -0.1217  0.0942 -0.0982
21893OCT     C143785   6.095  22.440   1.948  0.3808 -0.0577 -0.3560
21893OCT     C243786   5.986  22.772   2.311 -0.0393 -0.1480 -0.1500
21894OCT     C143787   6.114   3.770  10.785  0.3357 -0.0770 -0.0799
21894OCT     C243788   6.111   4.188  10.966 -0.2238  0.1892  0.1202
21895OCT     C143789  10.276   7.104  15.580  0.1024 -0.0178 -0.1440
21895OCT     C243790   9.908   6.785  15.752  0.0099  0.3808 -0.0346
21896OCT     C143791   3.153  13.883  16.644  0.2195 -0.1555  0.3728
21896OCT     C243792   2.910  13.509  16.484 -0.0041 -0.3378 -0.1159
21897OCT     C143793   6.382  23.134  12.712  0.0369  0.0520  0.3202
21897OCT     C243794   6.747  23.032  12.945  0.3537 -0.0850 -0.2575
21898OCT     C143795   0.884  17.046  12.403  0.0384 -0.2197  0.3053
21898OCT     C243796   0.504  16.888  12.711 -0.0513  0.2245  0.1166
21899OCT     C143797   8.673  20.442   6.167 -0.3077 -0.0215  0.0159
21899OCT     C243798   8.925  20.643   5.791  0.3146  0.2416 -0.3299
21900OCT     C143799  22.043   0.815   0.811  0.0031  0.2287 -0.0111
21900OCT     C243800  22.501   0.842   0.688 -0.2621 -0.0720  0.0357
21901OCT     C143801   1.065   7.076   0.283  0.1533  0.1564 -0.1384
21901OCT     C243802   1.152   6.664   0.164  0.5676 -0.1729  0.2483
21902OCT     C143803   5.975   1.269   4.392  0.0472  0.0308  0.0383
21902OCT     C243804   5.814   0.873   4.681  0.3257 -0.1119 -0.2001
21903OCT     C143805  11.140  15.067  22.832  0.0652  0.0954  0.2078
21903OCT     C243806  10.956  15.185  22.392  0.2241 -0.1469  0.3263
21904OCT     C143807   6.981  17.329  12.226  0.1007  0.8175 -0.1268
21904OCT     C243808   6.852  17.745  12.417  0.2257 -0.2607  0.6628
21905OCT     C143809  22.727  15.555  16.361  0.0194  0.2767  0.2823
21905OCT     C243810  22.643  15.842  16.056  0.2655  0.2149 -0.2141
21906OCT     C143811   7.976  14.878   7.123  0.0177 -0.1797 -0.0776
21906OCT     C243812   7.914  14.576   7.467  0.1889  0.1701  0.0359
21907OCT     C143813   9.015   1.306  23.379 -0.0617  0.2636  0.0459
21907OCT     C243814   8.929   1.057   0.086 -0.3916 -0.3683 -0.0043
21908OCT     C143815  15.539  16.857  23.498  0.0171 -0.5909  0.0695
21908OCT     C243816  15.192  16.687  23.178 -0.3293  0.2109 -0.1603
21909OCT     C143817  10.321   6.611   4.522  0.0805 -0.0678 -0.0116
21909OCT     C243818  10.217   6.280   4.817  0.0091  0.0466 -0.3014
21910OCT     C143819   5.150  14.971   8.238  0.2719  0.2233 -0.1851
21910OCT     C243820   5.460  15.230   8.461  0.0535  0.3956  0.0151
21911OCT     C143821  12.550  22.657  23.666 -0.2937 -0.3274  0.0617
21911OCT     C243822  12.565  22.987   0.266 -0.0049  0.1730 -0.3791
21912OCT     C143823  14.553  23.044  22.002 -0.2033  0.1183 -0.0009
21912OCT     C243824  14.535  22.578  21.852 -0.1186  0.0257  0.0421
21913OCT     C143825   8.699   8.921  22.012 -0.0354 -0.1615 -0.2932
21913OCT     C243826   8.956   8.809  21.691 -0.1122  0.2043  0.0251
21914OCT     C143827   5.984  21.465  11.463  0.3332  0.2233  0.1364
21914OCT     C243828   6.139  21.849  11.659 -0.1757  0.0413 -0.0323
21915OCT     C143829  22.116  23.015   5.551 -0.1553 -0.0322 -0.2437
21915OCT     C243830  21.942  23.394   5.786 -0.0246  0.1534 -0.2058
21916OCT     C143831  23.396  14.187   8.327  0.0244 -0.2524  0.1607
21916OCT     C243832   0.133  13.991   8.450  0.0886  0.0558  0.0804
21917OCT     C143833  17.347  12.380   5.008 -0.0173  0.1544  0.1180
21917OCT     C243834  17.667  12.400   4.682  0.2089  0.1581 -0.1848
21918OCT     C143835  20.866   2.032  12.045  0.1962 -0.1495 -0.0552
21918OCT     C243836  20.462   1.893  11.790  0.1764 -0.1193  0.1355
21919OCT     C143837  20.752   8.620  19.970  0.0896 -0.3687 -0.1294
21919OCT     C243838  21.139   8.553  20.214 -0.3508  0.1473  0.1290
21920OCT     C143839  13.121  13.373   3.235  0.2914 -0.2131  0.2856
21920OCT     C243840  13.374  13.776   3.204 -0.1385 -0.1104 -0.3404
21921OCT     C143841  11.444  22.602   0.402  0.1327 -0.4295  0.1169
21921OCT     C243842  11.596  22.453  23.707 -0.0596  0.0080  0.1880
21922OCT     C143843  13.174   0.072   6.536 -0.1033  0.3625  0.1800
21922OCT     C243844  12.859   0.183   6.162 -0.1002 -0.0787  0.2733
21923OCT     C143845   3.742  16.611   2.245 -0.2425 -0.3435 -0.3983
21923OCT     C243846   3.881  16.883   2.604  0.1479 -0.1171  0.2298
21924OCT     C143847   6.846  20.754  22.453  0.2355 -0.1083  0.1712
21924OCT     C243848   6.943  21.211  22.352  0.1220  0.0339 -0.3448
21925OCT     C143849  14.277  15.505  19.687 -0.2305  0.1309  0.2224
21925OCT     C243850  14.002  15.432  20.056  0.3735  0.1040  0.2378
21926OCT     C143851   5.489  13.558  10.306  0.0612 -0.0713 -0.0531
21926OCT     C243852   5.681  13.959  10.177  0.3460  0.2387 -0.2292
21927OCT     C143853   9.924   4.067   1.493 -0.1429  0.1555 -0.2294
21927OCT     C243854   9.667   4.440   1.390  0.3646  0.1323 -0.2604
21928OCT     C143855  10.354   8.841   5.009 -0.1166  0.3012  0.1395
21928OCT     C243856  10.285   8.505   4.714 -0.0816  0.1554 -0.6080
21929OCT     C143857   2.025   8.913   5.769  0.0501 -0.0541  0.3096
21929OCT     C243858   1.872   9.332   5.450  0.2312  0.1023 -0.2055
21930OCT     C143859   3.730  21.655  16.495  0.0904  0.6009 -0.0010
21930OCT     C243860   3.894  21.299  16.252 -0.2764 -0.1152  0.0018
21931OCT     C143861   7.450  14.146   3.948 -0.1505 -0.1809 -0.1541
21931OCT     C243862   7.721  14.032   4.364  0.1865 -0.3335 -0.3227
21932OCT     C143863  16.882  14.935   7.285 -0.3290 -0.4212  0.3423
21932OCT     C243864  17.141  15.237   7.028 -0.2138 -0.2276 -0.0985
21933OCT     C143865   3.666   5.631   4.399 -0.1389  0.3427 -0.0046
21933OCT     C243866   3.648   5.483   3.981 -0.1338  0.1086  0.0083
21934OCT     C143867   6.864   6.604  15.266  0.5445  0.0117 -0.1248
21934OCT     C243868   7.080   6.989  15.479  0.1826  0.0580  0.1299
21935OCT     C143869  23.137  22.630  21.586  0.4537 -0.1498  0.1130
21935OCT     C243870  23.105  22.206  21.444 -0.3681  0.0761  0.0835
21936OCT     C143871  16.935  16.710  21.594  0.1850  0.1932 -0.0161
21936OCT     C243872  16.742  16.309  21.722  0.1796  0.2770  0.0107
21937OCT     C143873   6.307  22.905  17.577  0.1434  0.1931  0.2302
21937OCT     C243874   6.211  23.345  17.718  0.2848 -0.0992 -0.4032
21938OCT     C143875  13.625   1.608  21.733  0.3512  0.1694  0.2313
21938OCT     C243876  13.783   2.088  21.772  0.1412 -0.3201 -0.4093
21939OCT     C143877   2.850  23.278   3.623  0.0433  0.0249 -0.3100
21939OCT     C243878   2.609  23.708   3.441 -0.2462  0.1302 -0.2732
21940OCT     C143879   7.070   4.031  18.027 -0.4615 -0.1826  0.0001
21940OCT     C243880   6.782   4.182  18.439  0.0665  0.3763  0.0397
21941OCT     C143881  16.075   3.233   5.712 -0.1905  0.1427  0.0444
21941OCT     C243882  16.377   3.400   6.125 -0.2029  0.1080  0.0032
21942OCT     C143883  12.355  18.294  16.451  0.1178 -0.5595  0.0127
21942OCT     C243884  11.947  18.348  16.447  0.1392 -0.1942 -0.0781
21943OCT     C143885  14.364   1.628  12.546 -0.4367  0.0329 -0.5424
21943OCT     C243886  14.663   1.639  12.259 -0.4418  0.0096 -0.0673
21944OCT     C143887   0.913   1.637  16.235 -0.0511  0.4008  0.0235
21944OCT     C243888   0.759   1.218  16.374 -0.1194 -0.1828 -0.0390
21945OCT     C143889  21.392  15.517  18.749 -0.3065 -0.0415 -0.0525
21945OCT     C243890  21.667  15.429  19.086 -0.3096 -0.0308 -0.2609
21946OCT     C143891   5.764  15.479   2.684  0.1878  0.1433 -0.2258
21946OCT     C243892   5.401  15.216   2.520 -0.1379 -0.0586  0.0790
21947OCT     C143893  13.930  10.129  23.342 -0.0132 -0.2540  0.0848
21947OCT     C243894  14.282   9.911  23.563 -0.0965 -0.0841  0.0713
21948OCT     C143895  13.641  18.327  14.368 -0.2743  0.0797  0.0585
21948OCT     C243896  13.206  18.469  14.493 -0.4589  0.2488 -0.1940
21949OCT     C143897  14.424   2.253  14.842  0.4722 -0.2641 -0.0614
21949OCT     C243898  14.168   2.224  15.183  0.0557  0.2577  0.0457
21950OCT     C143899   0.901  19.463  15.361 -0.1025 -0.1931  0.2220
21950OCT     C243900   0.560  19.196  15.225  0.1630  0.0475  0.0895
21951OCT     C143901  11.668   1.130   3.910  0.2442 -0.3475 -0.1918
21951OCT     C243902  11.544   1.202   3.522  0.1222 -0.0486 -0.0769
21952OCT     C143903  21.225   4.533  22.205 -0.0787 -0.3160  0.6686
21952OCT     C243904  21.004   4.254  21.962  0.0230 -0.1244  0.3663
21953OCT     C143905  20.250  17.833  15.535  0.3659  0.0374  0.0487
21953OCT     C243906  19.892  17.922  15.264  0.2429 -0.3402  0.3455
21954OCT     C143907  13.545   4.147   2.285  0.0603 -0.2005  0.0265
21954OCT     C243908  13.622   4.557   2.071  0.3535  0.2214  0.1404
21955OCT     C143909   1.967  17.496  14.688  0.0427 -0.1042  0.0824
21955OCT     C243910   2.126  17.719  15.028 -0.0842 -0.3993 -0.1285
21956OCT     C143911   4.382  12.407  12.891 -0.0941 -0.3433 -0.3766
21956OCT     C243912   4.347  12.838  13.010 -0.0070 -0.0685  0.1811
21957OCT     C143913  20.451   9.722   8.353 -0.2869  0.1044 -0.1824
21957OCT     C243914  19.999   9.626   8.509 -0.1513  0.3379  0.1339
21958OCT     C143915  16.574   4.855  20.216 -0.0714  0.0325 -0.3188
21958OCT     C243916  16.268   4.597  20.067  0.3911  0.1027 -0.2117
21959OCT     C143917  19.351   7.871  20.845  0.0332 -0.1299 -0.1749
21959OCT     C243918  19.242   7.694  21.292 -0.0320 -0.0328  0.1357
21960OCT     C143919  21.678  17.589  14.016 -0.2363  0.2285 -0.0070
21960OCT     C243920  21.176  17.606  14.011  0.2803  0.3052  0.0948
21961OCT     C143921  23.239  10.856   8.144  0.1903 -0.1862 -0.0068
21961OCT     C243922  23.243  10.431   8.045 -0.3015  0.1329  0.4134
21962OCT     C143923  16.621   8.326   3.384 -0.0575  0.2982  0.1583
21962OCT     C243924  17.067   8.125   3.326  0.1326 -0.3683 -0.3275
21963OCT     C143925  17.365  22.652  16.542 -0.3886 -0.1430  0.0955
21963OCT     C243926  17.551  22.181  16.477  0.1866 -0.0557 -0.2986
21964OCT     C143927   6.504  12.520  18.060  0.1799  0.0014  0.4265
21964OCT     C243928   6.702  12.511  17.621 -0.3179 -0.2277  0.0738
21965OCT     C143929  18.400  11.174  16.509 -0.1059 -0.4495  0.0309
21965OCT     C243930  18.464  11.058  16.088 -0.0415 -0.0935 -0.2546
21966OCT     C143931  14.744   5.747  20.776  0.0373  0.0976  0.4368
21966OCT     C243932  14.585   6.103  20.891  0.2744  0.0613  0.0029
21967OCT     C143933   4.746  10.906   6.197 -0.2773  0.1184 -0.0581
21967OCT     C243934   4.293  10.828   6.305 -0.3843 -0.2331  0.1244
21968OCT     C143935  16.644  21.151  12.796  0.0847 -0.2658  0.1038
21968OCT     C243936  16.230  21.012  12.591 -0.0765 -0.3883 -0.0214
21969OCT     C143937  19.432   3.996   1.030 -0.0415 -0.0632  0.1842
21969OCT     C243938  19.089   3.993   0.728  0.3383  0.0878  0.0511
21970OCT     C143939   4.200  21.476  14.652  0.0849  0.0423 -0.1647
21970OCT     C243940   3.940  21.761  14.418 -0.0812 -0.2293  0.1608
21971OCT     C143941  18.563  14.129  22.661  0.0242 -0.0267  0.0363
21971OCT     C243942  18.219  14.512  22.725  0.1520  0.0806 -0.1269
21972OCT     C143943  22.844   4.943  20.320  0.1037 -0.0897 -0.2432
21972OCT     C243944  22.897   5.440  20.321 -0.5669 -0.0851  0.0234
21973OCT     C143945  14.944  23.642   3.125  0.1176 -0.1346 -0.0351
21973OCT     C243946  14.524  23.658   2.955  0.2684 -0.0416  0.2519
21974OCT     C143947  21.620  20.953   1.093 -0.1357  0.0358  0.0125
21974OCT     C243948  21.425  20.513   1.187 -0.3413  0.1803  0.0241
21975OCT     C143949  15.253   0.371  12.989 -0.2039 -0.0196  0.4635
21975OCT     C243950  14.927   0.199  13.304  0.2341 -0.2440  0.0766
21976OCT     C143951   0.229  13.941   4.041 -0.3881 -0.0158 -0.1725
21976OCT     C243952  23.665  13.669   3.897  0.0596 -0.2288 -0.0362
21977OCT     C143953   0.890  18.430  12.385 -0.1531  0.1862  0.3068
21977OCT     C243954   0.897  18.617  11.990  0.0055 -0.0061 -0.0457
21978OCT     C143955   8.811  18.758  16.192 -0.4150 -0.1919 -0.0954
21978OCT     C243956   9.234  18.882  16.256  0.2259  0.1036 -0.1604
21979OCT     C143957   0.267   8.655  21.118  0.1155  0.2843 -0.1648
21979OCT     C243958   0.216   8.909  21.475 -0.0398  0.0402  0.1535
21980OCT     C143959  17.457  23.360  15.830  0.0564 -0.2565  0.2549
21980OCT     C243960  17.272  23.614  16.196  0.3314 -0.1770 -0.5401
21981OCT     C143961   5.694   9.655   7.111  0.2700 -0.1653 -0.2868
21981OCT     C243962   5.317   9.340   7.054  0.0157 -0.2261  0.3173
21982OCT     C143963  22.639  13.146  13.578 -0.1126  0.0531 -0.1774
21982OCT     C243964  22.936  13.498  13.650  0.1673 -0.0647 -0.0532
21983OCT     C143965   3.623   2.685  19.599  0.6012 -0.1173  0.0448
21983OCT     C243966   3.392   2.671  20.032  0.0793  0.1254 -0.0113
21984OCT     C143967   8.998  19.325  15.589  0.2058  0.3748  0.0374
21984OCT     C243968   8.874  19.701  15.898 -0.4530 -0.2136 -0.2270
21985OCT     C143969   9.524  18.255   5.901  0.2259  0.0549 -0.2812
21985OCT     C243970   9.730  17.980   5.574  0.0482 -0.2100 -0.0880
21986OCT     C143971  23.672  19.664  14.235 -0.2032 -0.0043  0.5565
21986OCT     C243972  23.482  19.990  14.487  0.0081  0.0368  0.2131
21987OCT     C143973  18.886  23.406  13.288 -0.3634  0.5023 -0.3401
21987OCT     C243974  18.932   0.139  13.333  0.0114 -0.2026 -0.0221
21988OCT     C143975  16.638   7.414  17.191 -0.1901 -0.3178 -0.0979
21988OCT     C243976  16.827   7.221  17.600 -0.0567  0.0402  0.0170
21989OCT     C143977   5.718  21.758   3.515 -0.3094 -0.0421  0.0831
21989OCT     C243978   5.458  21.351   3.527  0.1277 -0.1193 -0.2056
21990OCT     C143979  12.462  12.987  17.974 -0.0144 -0.0565 -0.0708
21990OCT     C243980  12.141  12.833  18.271 -0.1324  0.1048  0.0639
21991OCT     C143981  23.406  10.967   1.875  0.0971 -0.1700  0.0980
21991OCT     C243982  23.392  10.531   1.831  0.0801 -0.3353 -0.1729
21992OCT     C143983   5.702  16.245  19.679  0.2458 -0.1719  0.0034
21992OCT     C243984   5.738  16.278  20.187  0.1087 -0.0520  0.1878
21993OCT     C143985  15.881  11.804  19.417  0.0736 -0.2051  0.0968
21993OCT     C243986  16.200  11.685  19.704  0.1151  0.5150 -0.4481
21994OCT     C143987  22.395   4.836  23.470 -0.0442 -0.0083 -0.1891
21994OCT     C243988  22.688   4.539  23.280 -0.0988 -0.0159 -0.0206
21995OCT     C143989   5.867  19.874  20.611  0.2258 -0.1145  0.1299
21995OCT     C243990   5.823  19.435  20.511  0.2756  0.2764  0.0338
21996OCT     C143991  21.940  11.944   0.878  0.1922  0.0584  0.4380
21996OCT     C243992  21.691  11.582   0.812 -0.2733 -0.1886  0.2749
21997OCT     C143993  14.673   7.696   0.910  0.2689 -0.0327 -0.0525
21997OCT     C243994  14.208   7.596   0.699 -0.2586  0.1432  0.1453
21998OCT     C143995  15.110   6.311   6.751 -0.1836  0.1580 -0.1261
21998OCT     C243996  14.653   6.125   6.829  0.3083 -0.0882 -0.0418
21999OCT     C143997   1.224   3.140  15.432 -0.1763 -0.1207 -0.5039
21999OCT     C243998   1.595   2.839  15.476  0.3679 -0.1984  0.3042
22000OCT     C143999   6.659   1.988  14.036 -0.0045  0.1179  0.1094
22000OCT     C244000   6.540   2.362  14.238 -0.0945 -0.2932  0.3668
22001OCT     C144001   0.026  18.490  19.293 -0.4072  0.1308 -0.4286
22001OCT     C244002   0.466  18.464  19.376 -0.0822  0.5751  0.1970
22002OCT     C144003  18.619   3.993   9.434  0.2859 -0.1559  0.2853
22002OCT     C244004  18.924   3.803   9.175 -0.1803  0.0051 -0.6365
22003OCT     C144005  19.117   5.966  15.773 -0.3963  0.0679  0.1782
22003OCT     C244006  19.385   6.118  16.102 -0.1785  0.1753  0.0374
22004OCT     C144007  23.232   3.018  17.445  0.4501 -0.1771  0.0383
22004OCT     C244008  23.126   2.607  17.314  0.3714 -0.1742 -0.2185
22005OCT     C144009  14.396  15.143  22.884  0.0269 -0.1715 -0.6039
22005OCT     C244010  14.849  15.249  22.984 -0.1707  0.2555 -0.1724
22006OCT     C144011  15.326   7.289   1.457  0.2897 -0.1472 -0.1581
22006OCT     C244012  15.633   7.516   1.738  0.0712  0.3935  0.3962
22007OCT     C144013  13.833   5.913   7.876  0.2383 -0.1318 -0.0931
22007OCT     C244014  13.966   6.007   7.418 -0.1850  0.5548  0.2287
22008OCT     C144015  14.749   1.190  11.124  0.2508  0.0459 -0.1267
22008OCT     C244016  14.498   0.830  11.209 -0.0736 -0.0896  0.1295
22009OCT     C144017  14.952  17.013  21.944  0.1444 -0.1960 -0.0901
22009OCT     C244018  14.552  16.842  21.691 -0.4045  0.0082 -0.1216
22010OCT     C144019  16.002  18.929  15.527 -0.1411 -0.1556 -0.0855
22010OCT     C244020  16.406  19.050  15.480 -0.2627  0.1931  0.1320
22011OCT     C144021   8.830  21.423   3.891  0.2044 -0.2209 -0.1640
22011OCT     C244022   8.752  21.703   4.295 -0.1225  0.2680  0.1018
22012OCT     C144023   9.694   5.290  22.267 -0.2558  0.1167  0.0183
22012OCT     C244024   9.669   5.632  22.495 -0.2025  0.0165 -0.0188
22013OCT     C144025  21.854  12.215  13.239 -0.2117 -0.1985  0.0002
22013OCT     C244026  22.214  12.232  13.549 -0.2612 -0.4570 -0.1457
22014OCT     C144027  13.091  16.003  16.485 -0.0526 -0.2560  0.1414
22014OCT     C244028  12.972  15.547  16.400  0.2704  0.2139 -0.2197
22015OCT     C144029  12.446  17.604  13.407  0.1776  0.4081 -0.3985
22015OCT     C244030  12.879  17.643  13.662 -0.2266  0.1226 -0.2186
22016OCT     C144031   8.140   5.491  19.004  0.0418  0.1944  0.0952
22016OCT     C244032   8.441   5.515  18.642  0.0539 -0.4437 -0.0527
22017OCT     C144033  11.210  21.746   4.923 -0.0213 -0.2343 -0.3221
22017OCT     C244034  11.004  22.207   4.953  0.1218 -0.1612  0.2373
22018OCT     C144035  13.592   8.021  10.429 -0.2135  0.4115 -0.1018
22018OCT     C244036  14.036   8.168  10.445  0.0214  0.0720 -0.1394
22019OCT     C144037  15.245   7.636  20.761  0.5183  0.0562  0.1339
22019OCT     C244038  15.125   7.312  21.118  0.0465 -0.1508  0.1410
22020OCT     C144039   0.173  21.779  19.599  0.0870  0.0408 -0.2169
22020OCT     C244040   0.341  21.510  19.255  0.0882  0.1099  0.3811
22021OCT     C144041  17.962  14.699  17.927  0.1902  0.0076 -0.0729
22021OCT     C244042  18.015  14.244  17.843  0.1442 -0.1065 -0.0502
22022OCT     C144043   1.891   2.493   7.762  0.1144  0.1261 -0.0952
22022OCT     C244044   1.730   2.180   7.486  0.1600  0.0601  0.4325
22023OCT     C144045  20.609  10.640  17.690  0.1025 -0.0813  0.1353
22023OCT     C244046  20.788  10.580  17.254 -0.2397 -0.3318 -0.0750
22024OCT     C144047   3.935   3.643   3.179  0.2601 -0.1093 -0.0168
22024OCT     C244048   3.949   3.611   3.645  0.0297  0.3471 -0.0079
22025OCT     C144049   7.617   9.673   9.310 -0.1584  0.2617 -0.0303
22025OCT     C244050   7.295   9.617   9.685  0.1069  0.1047  0.2428
22026OCT     C144051  15.821  20.362   1.594  0.1054 -0.6190 -0.2980
22026OCT     C244052  15.978  20.347   2.036  0.0893 -0.2463 -0.1239
22027OCT     C144053   3.041   4.571   4.892  0.1255 -0.2895  0.3573
22027OCT     C244054   2.671   4.435   4.655  0.2805 -0.0229 -0.1865
22028OCT     C144055   5.837   7.356  13.098  0.0247  0.1696  0.2178
22028OCT     C244056   5.525   7.610  13.238 -0.0973  0.4417  0.1343
22029OCT     C144057   8.498  18.942   2.689  0.0263  0.0792 -0.0148
22029OCT     C244058   8.477  19.171   2.294 -0.1976 -0.1710  0.2156
22030OCT     C144059   0.230  23.004  14.030 -0.0921  0.4565  0.3092
22030OCT     C244060   0.365  22.564  13.982  0.0241  0.1956  0.0921
22031OCT     C144061  20.895   7.569  15.521 -0.2589  0.2053  0.1201
22031OCT     C244062  20.441   7.693  15.638  0.4449 -0.0425  0.0668
22032OCT     C144063  16.964   0.378   5.036 -0.0210 -0.2508  0.3760
22032OCT     C244064  17.153   0.057   4.801  0.3710  0.2071 -0.2237
22033OCT     C144065  14.843   8.764   1.058  0.2013  0.0576 -0.1745
22033OCT     C244066  14.668   8.951   0.634 -0.0929  0.0950  0.0298
22034OCT     C144067  21.025  16.840   2.147  0.0559 -0.5121  0.0712
22034OCT     C244068  20.986  16.500   1.858  0.0567  0.1308  0.1829
22035OCT     C144069  11.245   8.403  21.734  0.1156  0.4385  0.0687
22035OCT     C244070  11.147   8.429  22.214 -0.2239 -0.1985 -0.2063
22036OCT     C144071  20.209  14.173   2.950 -0.2243  0.1992  0.1944
22036OCT     C244072  20.197  14.636   3.150  0.1271 -0.0031 -0.0081
22037OCT     C144073  20.151  15.799   0.057 -0.3623 -0.3034 -0.1971
22037OCT     C244074  20.525  15.863  23.553 -0.0988  0.1372  0.0913
22038OCT     C144075   6.006   5.236  11.169 -0.0935  0.2117 -0.1861
22038OCT     C244076   6.215   5.239  10.810  0.0242 -0.1073  0.1548
22039OCT     C144077   6.260  11.320  21.196 -0.2604 -0.4217 -0.0072
22039OCT     C244078   6.527  11.103  21.473 -0.4144 -0.1266  0.4016
22040OCT     C144079   5.042  16.973  17.012  0.1741 -0.0025 -0.0292
22040OCT     C244080   4.870  17.140  17.359  0.0964  0.1744 -0.1728
22041OCT     C144081   3.249   9.212  16.051  0.2662  0.5010  0.0756
22041OCT     C244082   2.819   9.251  16.300  0.1567 -0.3967  0.2680
22042OCT     C144083  21.056   0.664   1.707  0.0634  0.1160 -0.0593
22042OCT     C244084  21.228   0.506   1.269 -0.0389 -0.2474 -0.4495
22043OCT     C144085  16.989   6.586   8.875 -0.0162  0.2389  0.0607
22043OCT     C244086  17.281   6.950   8.964  0.0973 -0.2371 -0.1920
22044OCT     C144087  13.553  20.645  16.084 -0.5214  0.1435  0.0700
22044OCT     C244088  13.532  20.400  15.757 -0.1937 -0.2368  0.2833
22045OCT     C144089   7.267   8.123   2.002 -0.1888 -0.1982  0.0693
22045OCT     C244090   7.737   8.041   2.017  0.0333  0.1945  0.1205
22046OCT     C144091  17.210   0.399   9.691  0.2115  0.2000  0.0205
22046OCT     C244092  17.603   0.620   9.688  0.2320  0.1457 -0.0088
22047OCT     C144093   2.030  12.415  17.241 -0.1925 -0.3609  0.1090
22047OCT     C244094   2.078  12.123  16.858  0.2906 -0.2349 -0.2911
22048OCT     C144095   1.631   0.307   7.545 -0.0612 -0.2217 -0.2029
22048OCT     C244096   1.206   0.472   7.664  0.0810 -0.3359  0.2846
22049OCT     C144097  15.912  19.777  15.013  0.0817  0.0706 -0.0488
22049OCT     C244098  16.299  19.983  14.935 -0.2091  0.0630 -0.0458
22050OCT     C144099  15.759  21.905  11.126  0.0102  0.1866  0.0907
22050OCT     C244100  15.720  21.489  11.418  0.1372  0.2917 -0.0584
22051OCT     C144101  16.124  20.334   5.582  0.1371 -0.1474 -0.3588
22051OCT     C244102  16.284  20.827   5.445 -0.0630  0.0739  0.0830
22052OCT     C144103   4.197  18.571  13.747  0.3210  0.2210  0.2761
22052OCT     C244104   4.505  18.249  13.583 -0.2351  0.0185  0.0934
22053OCT     C144105   6.959  17.518  13.146  0.1166  0.1029 -0.0098
22053OCT     C244106   6.701  17.148  13.240 -0.2672  0.2000  0.0501
22054OCT     C144107   1.695   6.258  22.402  0.0517  0.1329  0.1164
22054OCT     C244108   1.981   6.029  22.080  0.2911 -0.1062 -0.2012
22055OCT     C144109   9.496   9.259  19.842  0.0961  0.2230  0.0261
22055OCT     C244110   9.513   9.743  19.830 -0.2603 -0.1881  0.2663
22056OCT     C144111  17.600   2.174  13.332 -0.2987  0.1109 -0.1708
22056OCT     C244112  17.563   2.364  13.691  0.2668  0.3697  0.0910
22057OCT     C144113  18.924   5.635  13.078 -0.0248  0.5041 -0.3448
22057OCT     C244114  19.244   5.374  12.760  0.0384  0.0997 -0.2245
22058OCT     C144115  22.134  15.545   5.067 -0.1435 -0.3000 -0.0972
22058OCT     C244116  22.159  15.871   5.408  0.1683 -0.2994  0.2664
22059OCT     C144117   9.770  15.628  13.751 -0.1582  0.0702 -0.0331
22059OCT     C244118  10.112  15.933  13.799 -0.1506 -0.0048 -0.1551
22060OCT     C144119  10.758   7.611   6.204 -0.5224 -0.2466  0.1128
22060OCT     C244120  10.390   7.490   6.463  0.1030 -0.1159 -0.0522
22061OCT     C144121  10.644  12.054   4.482  0.1560 -0.0002 -0.2491
22061OCT     C244122  10.661  12.408   4.134 -0.2354  0.2714 -0.2641
22062OCT     C144123   3.094   1.043   8.276 -0.1749  0.5590 -0.1847
22062OCT     C244124   2.877   0.871   7.870 -0.0382  0.0304 -0.3336
22063OCT     C144125  18.036  19.247   6.390  0.0338 -0.2253  0.2080
22063OCT     C244126  18.193  19.635   6.167 -0.3706  0.3324  0.0488
22064OCT     C144127   7.676   5.798  13.208  0.2067  0.2090 -0.0856
22064OCT     C244128   7.935   5.999  13.503 -0.2307 -0.2408  0.0905
22065OCT     C144129  21.476  18.803   4.946  0.0476  0.0714 -0.0358
22065OCT     C244130  21.269  19.176   4.795 -0.0656 -0.3852  0.4951
22066OCT     C144131  16.277  10.001   3.873  0.0614  0.2762  0.3376
22066OCT     C244132  15.988  10.188   4.242 -0.0231  0.3116  0.1838
22067OCT     C144133   4.593  16.729   4.546 -0.2296 -0.1331 -0.1225
22067OCT     C244134   4.846  16.647   4.190 -0.0291  0.1006  0.1018
22068OCT     C144135  14.546  19.702  23.629  0.0862 -0.0448  0.2580
22068OCT     C244136  14.949  19.698  23.501 -0.0498 -0.1468 -0.0709
22069OCT     C144137   6.770   7.026   5.590 -0.0334 -0.1749 -0.0928
22069OCT     C244138   6.929   7.394   5.372  0.2987  0.1510  0.2749
22070OCT     C144139  16.680   5.126  22.695  0.0949 -0.0231 -0.6284
22070OCT     C244140  16.788   5.357  22.351  0.0216  0.0683  0.1955
22071OCT     C144141   4.768   1.180  10.348 -0.1459  0.4186 -0.3868
22071OCT     C244142   4.891   0.930   9.971  0.3438 -0.1857  0.3082
22072OCT     C144143  11.856  19.385   9.772 -0.2172  0.2012 -0.4884
22072OCT     C244144  11.575  19.297   9.436  0.3565 -0.2353  0.1850
22073OCT     C144145  19.336  15.879  15.017 -0.2279 -0.1468  0.0039
22073OCT     C244146  19.195  15.686  14.680  0.3760  0.0001 -0.1134
22074OCT     C144147   4.783   6.121  14.799  0.0864  0.0728 -0.1086
22074OCT     C244148   4.501   6.271  14.496 -0.0709 -0.1390  0.0812
22075OCT     C144149  13.905   1.712   4.052  0.0323 -0.4836  0.2408
22075OCT     C244150  13.698   2.078   3.864 -0.1334 -0.3716 -0.1907
22076OCT     C144151  23.718   0.078  19.495 -0.1198  0.1815  0.0893
22076OCT     C244152  23.614  23.405  19.476 -0.2104  0.1302  0.0723
22077OCT     C144153  17.295   5.500   3.867 -0.0118 -0.0964 -0.0831
22077OCT     C244154  17.765   5.480   4.017 -0.0608  0.0515  0.1447
22078OCT     C144155  18.742  10.242  19.352  0.0327 -0.1150 -0.0246
22078OCT     C244156  18.951   9.873  19.560  0.0092  0.1357  0.1933
22079OCT     C144157  14.086   3.475  17.658  0.1867 -0.0894 -0.3253
22079OCT     C244158  14.537   3.548  17.834 -0.3075  0.3052  0.0440
22080OCT     C144159   7.721  11.782   8.574  0.1097 -0.1244  0.0429
22080OCT     C244160   7.587  12.171   8.367  0.0343  0.0451 -0.1235
22081OCT     C144161   6.106   3.832   9.550 -0.0280 -0.2879  0.2187
22081OCT     C244162   6.458   4.051   9.368  0.1905 -0.0010 -0.3053
22082OCT     C144163   9.991  14.808   2.839 -0.0092  0.0584  0.0130
22082OCT     C244164   9.697  14.535   3.045  0.0569  0.0229  0.7603
22083OCT     C144165  22.370  22.500   8.577 -0.0084 -0.1516 -0.3686
22083OCT     C244166  22.236  22.144   8.866 -0.2234 -0.0362  0.3226
22084OCT     C144167  15.643   0.856  18.526  0.0287  0.1105  0.1510
22084OCT     C244168  15.250   0.839  18.621  0.2631 -0.2989 -0.0338
22085OCT     C144169   0.459  17.525  14.226 -0.2370 -0.1544 -0.2050
22085OCT     C244170   0.635  17.250  14.581  0.0180 -0.0595  0.2018
22086OCT     C144171   2.657  23.253  14.949 -0.0682  0.0054  0.3417
22086OCT     C244172   2.278  23.509  15.009  0.2680 -0.2014  0.0056
22087OCT     C144173   3.360  12.492  10.544 -0.1488 -0.0372  0.1359
22087OCT     C244174   3.543  12.747  10.217 -0.1948 -0.2567  0.1050
22088OCT     C144175  15.259   5.707   2.758 -0.3491 -0.3397 -0.2231
22088OCT     C244176  15.033   5.641   3.152  0.1855 -0.5157 -0.3491
22089OCT     C144177   3.506   4.850  12.467 -0.1337 -0.2064  0.3032
22089OCT     C244178   3.676   4.520  12.142 -0.1949  0.5114 -0.0138
22090OCT     C144179  13.504  15.764  21.820 -0.1355 -0.0501 -0.0276
22090OCT     C244180  13.770  15.925  21.478 -0.2495  0.1476 -0.5940
22091OCT     C144181  21.801   8.081   5.811  0.2814 -0.0216 -0.0979
22091OCT     C244182  21.973   8.465   5.601 -0.2227  0.1398  0.3221
22092OCT     C144183  21.500  20.310  16.693 -0.2806  0.1196 -0.1952
22092OCT     C244184  21.447  20.136  17.147 -0.1358 -0.2707 -0.0260
22093OCT     C144185   4.219  13.046  12.158 -0.2087 -0.1529 -0.0323
22093OCT     C244186   4.122  12.571  12.228  0.0834 -0.2583 -0.0470
22094OCT     C144187  10.996  22.684   8.146 -0.0275  0.2691  0.0199
22094OCT     C244188  10.927  23.121   7.932  0.4406 -0.1861 -0.0561
22095OCT     C144189   8.154   7.153   4.345  0.2790  0.2618  0.1170
22095OCT     C244190   8.102   7.681   4.350  0.2687 -0.0524 -0.3516
22096OCT     C144191  23.346   7.320  19.358 -0.0132 -0.3429 -0.0980
22096OCT     C244192  23.337   6.916  19.512  0.2076  0.0356 -0.1275
22097OCT     C144193  12.791  21.115   6.162 -0.1216  0.1582  0.2492
22097OCT     C244194  13.138  21.173   6.470 -0.2555 -0.1136 -0.1986
22098OCT     C144195   6.822   7.233  21.083 -0.3221 -0.1377  0.4335
22098OCT     C244196   6.673   6.906  21.389 -0.1495  0.1154  0.0144
22099OCT     C144197   9.701  16.694   0.234  0.1365 -0.0161  0.0074
22099OCT     C244198   9.510  17.052   0.061  0.3634  0.3293  0.4753
22100OCT     C144199  19.378  21.258   0.514 -0.0610 -0.0457 -0.1278
22100OCT     C244200  19.249  21.414   0.117 -0.5477 -0.1400  0.0219
22101OCT     C144201  22.405   1.472  21.744  0.0630  0.2921  0.0967
22101OCT     C244202  21.936   1.521  21.635  0.1537  0.2649 -0.1966
22102OCT     C144203  13.323  11.691  19.540 -0.1023 -0.3103  0.2038
22102OCT     C244204  13.325  12.087  19.315  0.0498 -0.1922  0.2820
22103OCT     C144205  17.354  20.900  23.082  0.1793 -0.0886 -0.0958
22103OCT     C244206  17.394  20.463  23.185  0.0560  0.0667 -0.0318
22104OCT     C144207   8.477  10.283   0.758  0.1222  0.0968 -0.3192
22104OCT     C244208   8.840   9.971   0.803  0.0416  0.0646 -0.0152
22105OCT     C144209   0.091  18.927  22.220 -0.2205  0.0816 -0.1689
22105OCT     C244210  23.613  18.895  21.765  0.2518  0.0238  0.1398
22106OCT     C144211  16.384   7.950  22.222 -0.3540 -0.0471  0.1450
22106OCT     C244212  16.106   7.552  22.385 -0.6314 -0.4256  0.2145
22107OCT     C144213   0.538  17.190   8.590  0.2139  0.0097 -0.2049
22107OCT     C244214   0.445  17.604   8.439  0.0066 -0.1185 -0.2426
22108OCT     C144215   4.556   7.307   2.263  0.0823  0.1211  0.1950
22108OCT     C244216   4.828   7.276   2.674  0.3197 -0.1645  0.2095
22109OCT     C144217  20.384  11.497  20.268 -0.0764 -0.1599  0.1613
22109OCT     C244218  20.376  11.701  20.685  0.1785 -0.0482  0.0773
22110OCT     C144219   5.472   7.768   6.096  0.3620 -0.3931 -0.3219
22110OCT     C244220   5.404   7.501   5.746  0.2150  0.2215 -0.1428
22111OCT     C144221   1.946  16.198  19.726 -0.0489  0.2493 -0.4984
22111OCT     C244222   1.905  16.681  19.586  0.1205  0.0666  0.0160
22112OCT     C144223  14.644  10.186   2.795  0.1101 -0.1254  0.1698
22112OCT     C244224  14.181  10.309   3.028  0.0096  0.2599 -0.2058
22113OCT     C144225  12.867   2.474  13.476 -0.0207 -0.1981 -0.1878
22113OCT     C244226  13.174   2.683  13.174  0.0930  0.2179  0.2652
22114OCT     C144227  20.867  10.606  21.995 -0.2002 -0.1315  0.1923
22114OCT     C244228  20.989  11.024  21.851 -0.2923  0.0518 -0.1174
22115OCT     C144229  17.176   8.509  19.966 -0.0474 -0.3551  0.0095
22115OCT     C244230  17.555   8.629  20.288  0.3191  0.2617  0.0689
22116OCT     C144231  16.526   4.889  22.295 -0.0014 -0.1396  0.0080
22116OCT     C244232  16.224   5.185  22.428  0.3996 -0.1549 -0.2701
22117OCT     C144233  13.619   2.896  20.142 -0.1285  0.0211  0.1204
22117OCT     C244234  13.275   2.614  20.174 -0.1363  0.4090 -0.1959
22118OCT     C144235   6.850  11.309   9.499 -0.0528  0.1856  0.0893
22118OCT     C244236   6.947  10.862   9.438  0.1491  0.0917 -0.2452
22119OCT     C144237  15.475  20.293  11.492  0.2591 -0.1306  0.2718
22119OCT     C244238  15.422  19.926  11.744  0.0871 -0.1753  0.3185
22120OCT     C144239  15.690   1.002  13.912 -0.0206 -0.0434  0.0134
22120OCT     C244240  15.745   0.861  13.484  0.3129  0.3721 -0.1255
22121OCT     C144241   8.577   6.903  17.457  0.2206 -0.2838  0.2002
22121OCT     C244242   8.293   6.765  17.827 -0.4830  0.1217 -0.0533
22122OCT     C144243  13.168   3.331  21.510  0.0946  0.0449  0.2553
22122OCT     C244244  13.417   3.155  21.092  0.1186 -0.2145  0.0234
22123OCT     C144245   7.395  20.255  17.394 -0.2418 -0.1012  0.3081
22123OCT     C244246   7.284  19.753  17.213  0.2777 -0.3105  0.5943
22124OCT     C144247  20.229  19.747   6.044 -0.1322 -0.0700  0.2652
22124OCT     C244248  20.539  20.029   5.877  0.1812 -0.3512 -0.0804
22125OCT     C144249  14.324  16.369   6.088  0.1486  0.1814 -0.3870
22125OCT     C244250  14.250  16.215   5.655 -0.1675 -0.0319 -0.0281
22126OCT     C144251   2.382  14.998  21.026 -0.0146 -0.0336  0.2145
22126OCT     C244252   2.703  15.349  20.984 -0.2694 -0.2900  0.2652
22127OCT     C144253  21.793  17.630   5.386  0.2877  0.1583  0.1408
22127OCT     C244254  21.880  17.223   5.556 -0.0446 -0.2301  0.0776
22128OCT     C144255   1.952  15.186  16.871 -0.0770  0.1440  0.0196
22128OCT     C244256   2.304  14.996  17.121 -0.4055 -0.3680  0.3264
22129OCT     C144257   7.416   6.556   4.214 -0.2304  0.0487 -0.0740
22129OCT     C244258   7.400   6.725   3.741  0.3893  0.1142 -0.2797
22130OCT     C144259  16.182  21.038   6.293 -0.0285  0.3887 -0.0021
22130OCT     C244260  15.821  21.060   6.499 -0.2083 -0.3761  0.1922
22131OCT     C144261   3.205   5.677   6.805 -0.7057  0.0733  0.1749
22131OCT     C244262   3.160   6.095   6.817  0.0474 -0.0951  0.1449
22132OCT     C144263   5.668  15.473   8.893 -0.0936 -0.0055 -0.0383
22132OCT     C244264   5.900  15.396   8.504  0.1994  0.0072  0.2710
22133OCT     C144265   7.886  19.692  18.736  0.0501 -0.0552  0.2438
22133OCT     C244266   8.071  19.953  18.375  0.2632 -0.1845 -0.0245
22134OCT     C144267  22.516   3.136  19.151  0.6099 -0.1336 -0.0583
22134OCT     C244268  22.836   2.823  19.102 -0.1877 -0.5351  0.1167
22135OCT     C144269  15.119  14.166  23.014  0.0734  0.0564  0.2943
22135OCT     C244270  15.447  13.803  22.924 -0.2738 -0.0772  0.0286
22136OCT     C144271  16.290   5.349   2.659 -0.2739 -0.2648  0.1326
22136OCT     C244272  15.821   5.497   2.576  0.0455 -0.1288  0.0746
22137OCT     C144273  21.264  20.919   8.346  0.1233 -0.0342  0.3768
22137OCT     C244274  21.449  20.985   8.735  0.2501  0.3907 -0.1370
22138OCT     C144275  12.540  17.230   5.297 -0.2248 -0.0318  0.3295
22138OCT     C244276  12.189  17.159   4.922 -0.0258 -0.0455  0.0942
22139OCT     C144277   6.208  13.853   9.258 -0.0908 -0.2421 -0.0035
22139OCT     C244278   6.392  14.081   8.952 -0.1821 -0.3365 -0.2719
22140OCT     C144279  10.359   1.126   6.384 -0.2408 -0.0805  0.1258
22140OCT     C244280   9.980   0.892   6.441  0.2831  0.1063  0.0350
22141OCT     C144281   7.413  16.866   7.659 -0.0058  0.1041 -0.0862
22141OCT     C244282   7.546  16.768   7.267 -0.1070 -0.2204  0.1965
22142OCT     C144283   0.200  21.170  10.720 -0.0623 -0.2515 -0.2129
22142OCT     C244284   0.347  21.300  11.124  0.0343  0.0101 -0.0695
22143OCT     C144285   0.679  11.670  20.604 -0.0707 -0.0944 -0.1528
22143OCT     C244286   0.384  11.340  20.462  0.1422  0.2858  0.1750
22144OCT     C144287  14.117  16.014   9.471  0.0001  0.1724 -0.0800
22144OCT     C244288  14.501  16.139   9.803 -0.0052 -0.0512  0.2677
22145OCT     C144289   4.280  10.810  22.911 -0.1500  0.2399 -0.4432
22145OCT     C244290   4.699  10.905  22.709 -0.2541  0.0631  0.3959
22146OCT     C144291  19.135   8.895  10.739 -0.1280  0.1167 -0.3737
22146OCT     C244292  19.314   8.664  10.467 -0.1315 -0.1442 -0.0229
22147OCT     C144293   6.569   8.125  18.737 -0.3279 -0.1422  0.1942
22147OCT     C244294   6.827   8.502  18.634  0.2153 -0.3592  0.2870
22148OCT     C144295  14.134  22.015  15.223 -0.1788 -0.2871  0.2394
22148OCT     C244296  14.518  22.275  15.144  0.0266  0.1253  0.3651
22149OCT     C144297   1.146  17.288  11.537  0.2663  0.2159  0.3721
22149OCT     C244298   1.424  16.907  11.643  0.0477 -0.2548  0.0145
22150OCT     C144299   7.156   2.623   6.171  0.0767 -0.3564 -0.0439
22150OCT     C244300   6.899   2.231   6.248  0.1856 -0.1969 -0.1710
22151OCT     C144301   8.687  14.223  21.163  0.1446  0.1008 -0.0746
22151OCT     C244302   8.437  14.247  21.562 -0.0705  0.1074 -0.0649
22152OCT     C144303   4.459  20.607  13.002 -0.2612  0.0359 -0.0055
22152OCT     C244304   4.764  20.972  13.155  0.1675  0.1213 -0.1811
22153OCT     C144305   0.857   6.145   2.262  0.2088 -0.0034 -0.1855
22153OCT     C244306   0.695   6.056   2.719 -0.1944 -0.2537 -0.0403
22154OCT     C144307  10.528  14.000  10.467  0.2202 -0.1173  0.1687
22154OCT     C244308  10.250  14.405  10.502 -0.1478 -0.1760 -0.0139
22155OCT     C144309  17.971  14.339   0.429 -0.0313 -0.0599 -0.0315
22155OCT     C244310  18.120  14.214   0.824  0.0251 -0.0277 -0.3613
22156OCT     C144311   9.123  20.183   5.950  0.0811  0.4898 -0.1066
22156OCT     C244312   9.136  20.321   6.421  0.0412 -0.0905  0.1559
22157OCT     C144313   9.231  10.652  17.027  0.0950 -0.1930 -0.3837
22157OCT     C244314   8.903  10.389  17.270  0.3260  0.1999 -0.0545
22158OCT     C144315  11.666  22.315   1.998 -0.3287 -0.2093  0.3818
22158OCT     C244316  11.334  22.537   2.280 -0.0719 -0.0627 -0.1093
22159OCT     C144317  11.025  14.519   0.561  0.0878 -0.2039 -0.0834
22159OCT     C244318  11.013  14.123   0.272  0.0595 -0.0899  0.1370
22160OCT     C144319  15.887   7.212  13.163  0.1008 -0.1383  0.1015
22160OCT     C244320  15.697   7.598  13.331 -0.0083 -0.1302  0.1613
22161OCT     C144321  10.634  23.391   5.861 -0.0501  0.2990  0.0328
22161OCT     C244322  10.963  23.580   6.164  0.4382 -0.2956  0.0229
22162OCT     C144323   0.787  18.685  13.874  0.1713  0.0706 -0.2936
22162OCT     C244324   0.798  18.209  13.857  0.1272 -0.2575  0.1714
22163OCT     C144325   2.224   9.726   4.829  0.0261  0.0168  0.1575
22163OCT     C244326   2.120   9.293   5.007 -0.2563 -0.0911 -0.3006
22164OCT     C144327  14.369  10.659  16.691 -0.2114 -0.0202 -0.4129
22164OCT     C244328  14.170  11.027  16.478 -0.0430 -0.1192  0.0887
22165OCT     C144329   5.621   4.041   1.141 -0.0251  0.3907  0.0528
22165OCT     C244330   5.848   3.642   0.959 -0.6589  0.0528  0.0107
22166OCT     C144331  12.599  19.766  13.207 -0.2507  0.2444  0.2016
22166OCT     C244332  12.633  19.381  12.983  0.0563 -0.1156 -0.1799
22167OCT     C144333  17.648  15.604  10.537 -0.2399  0.1832  0.0804
22167OCT     C244334  17.524  15.895  10.196 -0.4189  0.1184 -0.0864
22168OCT     C144335  16.467   0.476   7.096 -0.2460 -0.1580  0.4275
22168OCT     C244336  16.923   0.480   6.957 -0.1482  0.1749 -0.3020
22169OCT     C144337   0.927  18.725   4.136  0.0075  0.0094 -0.3609
22169OCT     C244338   0.466  18.523   4.226  0.0132 -0.0459 -0.0260
22170OCT     C144339  18.483   9.293  18.839 -0.0115  0.0228 -0.3819
22170OCT     C244340  18.529   9.268  18.400 -0.1492  0.0563 -0.3676
22171OCT     C144341  18.739  19.238   8.748  0.2480 -0.0794  0.1091
22171OCT     C244342  18.297  19.022   8.814  0.1208  0.1096  0.4700
22172OCT     C144343  11.673   7.668  15.064 -0.1803  0.1660 -0.1699
22172OCT     C244344  11.732   7.218  14.952  0.1117  0.3438  0.2736
22173OCT     C144345  22.458  21.271   9.163 -0.2132  0.0044 -0.1396
22173OCT     C244346  22.701  21.312   8.817  0.1699 -0.0153  0.1820
22174OCT     C144347  14.669   7.384  12.196  0.0744 -0.1444  0.3176
22174OCT     C244348  14.246   7.331  11.946 -0.2813 -0.0488  0.0978
22175OCT     C144349   4.295   6.389  12.878  0.3920  0.3756  0.1589
22175OCT     C244350   4.402   6.408  13.344  0.1186  0.1093 -0.2605
22176OCT     C144351  11.339  12.733  11.434 -0.0565 -0.2172  0.0169
22176OCT     C244352  11.150  12.298  11.413  0.4444  0.0172 -0.0434
22177OCT     C144353  15.805  13.407  18.397  0.3057 -0.3375 -0.0877
22177OCT     C244354  15.437  13.640  18.180 -0.1454 -0.1002 -0.3173
22178OCT     C144355  20.284  11.167  10.575  0.4450 -0.1816  0.3517
22178OCT     C244356  20.127  10.947  10.191  0.1221 -0.0296  0.0819
22179OCT     C144357  14.956  18.765   7.852 -0.2653  0.0895 -0.1941
22179OCT     C244358  14.990  18.909   7.406 -0.1781  0.1159 -0.1522
22180OCT     C144359  23.695   1.870   2.560  0.1536  0.1311  0.1268
22180OCT     C244360  23.238   1.787   2.482 -0.0143  0.0700  0.0011
22181OCT     C144361  15.753   8.552   6.808  0.0779 -0.1089  0.2816
22181OCT     C244362  15.997   8.863   7.010  0.4131  0.0417  0.1083
22182OCT     C144363   0.954  12.398  12.536 -0.0919  0.1716 -0.0700
22182OCT     C244364   0.576  12.641  12.638  0.5915  0.1802  0.2425
22183OCT     C144365   5.945  16.774   6.234 -0.1661 -0.0290  0.0101
22183OCT     C244366   6.149  17.036   6.545 -0.1978 -0.4797  0.0968
22184OCT     C144367  18.366   2.645  11.735  0.0765 -0.3181  0.0799
22184OCT     C244368  18.133   2.283  11.550  0.3057 -0.2066  0.1539
22185OCT     C144369  13.156  13.567  17.171 -0.0283  0.1144  0.0395
22185OCT     C244370  12.879  13.884  17.357  0.0513 -0.2635  0.1345
22186OCT     C144371  18.920  11.229  12.789 -0.2196  0.0052  0.0842
22186OCT     C244372  19.334  11.102  12.639  0.1552  0.1732  0.2307
22187OCT     C144373   1.366   3.947   3.074  0.2922 -0.2868  0.1950
22187OCT     C244374   1.734   3.770   2.822 -0.2335  0.0549 -0.0750
22188OCT     C144375   9.069   9.854   7.513  0.0956  0.2258 -0.2535
22188OCT     C244376   9.114   9.500   7.256  0.2076 -0.1671 -0.0001
22189OCT     C144377  14.271   0.457  14.999  0.0811 -0.0342 -0.2647
22189OCT     C244378  14.259   0.726  15.457  0.1920 -0.0136 -0.0710
22190OCT     C144379   1.223  10.301  10.171 -0.0708  0.1296 -0.5327
22190OCT     C244380   1.214  10.705  10.431 -0.0496 -0.1458  0.0879
22191OCT     C144381   0.337  10.672  10.637  0.0083 -0.2798 -0.0645
22191OCT     C244382   0.337  10.799  10.181  0.2935  0.0769 -0.1433
22192OCT     C144383  12.631   8.523   8.671 -0.0575  0.1545 -0.0247
22192OCT     C244384  12.309   8.868   8.757  0.0350 -0.2817  0.0186
22193OCT     C144385  17.712   7.667   3.363 -0.1150  0.1468  0.1407
22193OCT     C244386  17.966   7.956   3.181 -0.3702  0.1522  0.0335
22194OCT     C144387  20.448  19.100  21.744 -0.1553 -0.0313  0.1118
22194OCT     C244388  20.913  18.956  21.628 -0.1463 -0.1311  0.1650
22195OCT     C144389   4.300  19.283  14.825 -0.0871 -0.4245  0.1360
22195OCT     C244390   4.144  18.917  14.638  0.1111 -0.0675  0.0672
22196OCT     C144391  22.111  22.378  14.054 -0.1337 -0.2246 -0.1274
22196OCT     C244392  22.026  22.829  14.259  0.2461 -0.1664 -0.0656
22197OCT     C144393  18.220   5.073   8.059  0.2424  0.1865 -0.2351
22197OCT     C244394  17.763   5.048   7.971  0.1221  0.0679  0.0826
22198OCT     C144395  14.421  20.869   2.428 -0.0700 -0.0282 -0.1212
22198OCT     C244396  14.663  21.172   2.115 -0.5830 -0.0559 -0.2183
22199OCT     C144397  14.071  10.573  21.419  0.2443 -0.1879  0.1566
22199OCT     C244398  14.455  10.640  21.703  0.0958  0.2348  0.1820
22200OCT     C144399  18.341  21.305  16.036  0.2265 -0.0616  0.0966
22200OCT     C244400  18.032  20.960  16.056 -0.0028  0.1355 -0.0343
22201OCT     C144401  20.943   5.828  22.566 -0.1550 -0.0663 -0.1456
22201OCT     C244402  20.837   5.727  23.020  0.3534  0.2362 -0.0708
22202OCT     C144403   5.720  15.501   0.698 -0.0146 -0.2606  0.1797
22202OCT     C244404   5.806  15.064   0.857  0.0904  0.0192 -0.1791
22203OCT     C144405  18.027  12.383   5.806 -0.0283  0.3221  0.0580
22203OCT     C244406  17.661  12.590   5.548  0.2119 -0.1723 -0.0142
22204OCT     C144407  14.361  12.710  13.780 -0.2010  0.0709 -0.0280
22204OCT     C244408  14.309  13.149  13.672  0.1908 -0.0618 -0.0302
22205OCT     C144409   1.056   3.972  19.023  0.0924  0.1614  0.0218
22205OCT     C244410   1.440   4.156  19.196  0.3643  0.0733 -0.2497
22206OCT     C144411   5.597  14.742  13.763 -0.6662 -0.0270 -0.3036
22206OCT     C244412   5.150  14.581  13.758  0.0943 -0.3016  0.0149
22207OCT     C144413  14.953   6.785   6.228 -0.1078 -0.4614 -0.0696
22207OCT     C244414  14.492   6.788   6.248 -0.1854 -0.4525 -0.0208
22208OCT     C144415  14.736   3.008  23.241  0.1559 -0.1714 -0.1268
22208OCT     C244416  14.838   2.556  23.336 -0.2046  0.2657 -0.0306
22209OCT     C144417  22.367   1.107   9.113  0.0568 -0.4806  0.2356
22209OCT     C244418  22.816   1.022   8.942  0.1668 -0.1915  0.4032
22210OCT     C144419  14.940  18.005   1.174 -0.0911 -0.1009 -0.4918
22210OCT     C244420  15.070  17.674   0.866 -0.4671 -0.1125 -0.0353
22211OCT     C144421   8.614  15.072  20.761 -0.1077 -0.3073 -0.1983
22211OCT     C244422   8.416  15.364  20.442  0.0144  0.0654 -0.3213
22212OCT     C144423  15.840  15.003  11.574 -0.1258 -0.0804 -0.1205
22212OCT     C244424  15.720  15.374  11.335  0.1529  0.3127  0.1593
22213OCT     C144425   1.167   3.055   8.828 -0.0389 -0.2611 -0.0963
22213OCT     C244426   1.176   2.621   8.632 -0.3755 -0.1601  0.4572
22214OCT     C144427   0.918   8.538  16.021  0.0486 -0.1121  0.3610
22214OCT     C244428   0.854   8.956  16.152 -0.0570 -0.1371 -0.4614
22215OCT     C144429  12.405   9.045  22.233 -0.1815  0.0457  0.0023
22215OCT     C244430  12.350   9.150  22.652  0.0650  0.2916 -0.1675
22216OCT     C144431  17.150   8.026  19.664  0.2347 -0.2351 -0.0956
22216OCT     C244432  17.471   8.148  19.879 -0.1219  0.3581 -0.0804
22217OCT     C144433  19.415   8.409  16.271 -0.1026 -0.1462 -0.1717
22217OCT     C244434  19.029   8.621  16.319 -0.0901 -0.3308  0.0538
22218OCT     C144435   8.762   8.415  22.156  0.0012 -0.3933  0.0935
22218OCT     C244436   9.082   8.146  22.257 -0.1137 -0.0260  0.0770
22219OCT     C144437   1.677  21.010  22.088  0.0104 -0.2318 -0.3426
22219OCT     C244438   1.798  21.017  21.665  0.0868 -0.0657  0.1776
22220OCT     C144439   0.917   4.833  16.012 -0.3029  0.1156 -0.1053
22220OCT     C244440   1.179   4.467  15.863 -0.1533 -0.5807 -0.0204
22221OCT     C144441   5.511   9.660  17.466 -0.0907  0.0336 -0.3544
22221OCT     C244442   5.682   9.619  17.922  0.0533  0.2792 -0.0680
22222OCT     C144443  17.399  21.943   3.650 -0.2766  0.0438 -0.0099
22222OCT     C244444  17.037  21.919   3.307 -0.2713  0.0558 -0.1145
22223OCT     C144445  15.153  22.079  21.742  0.4469 -0.0600  0.0619
22223OCT     C244446  15.245  21.671  21.945 -0.0862 -0.2161 -0.1753
22224OCT     C144447   8.287  18.807  12.433  0.3541  0.0450  0.1013
22224OCT     C244448   8.075  19.182  12.266 -0.2618 -0.0621 -0.3080
22225OCT     C144449   3.601  21.531   6.272 -0.4219  0.1319  0.2384
22225OCT     C244450   3.440  21.955   6.043 -0.1164 -0.0715  0.1686
22226OCT     C144451  13.716   3.032  20.652  0.0779 -0.1515 -0.1936
22226OCT     C244452  13.589   2.588  20.592  0.0110 -0.2149  0.2145
22227OCT     C144453   4.211   7.588   6.755  0.0047  0.4130 -0.1033
22227OCT     C244454   4.369   7.497   6.364  0.0144 -0.1384  0.0112
22228OCT     C144455  15.433   6.438  10.260 -0.1958  0.3665  0.0420
22228OCT     C244456  15.735   6.208   9.965  0.3109 -0.3132 -0.3330
22229OCT     C144457   1.637  16.067  12.568  0.0235  0.2134 -0.0318
22229OCT     C244458   1.459  16.124  12.122  0.2432 -0.0158  0.0716
22230OCT     C144459   0.964  10.180   8.946  0.3442 -0.0203 -0.0435
22230OCT     C244460   0.500  10.212   9.005  0.1233 -0.3764 -0.3326
22231OCT     C144461   2.628   3.317  10.206 -0.3630 -0.4968 -0.1256
22231OCT     C244462   2.289   2.996  10.127 -0.4092 -0.3264  0.0032
22232OCT     C144463  11.440  17.999   0.092  0.3169  0.0813  0.1414
22232OCT     C244464  10.956  18.014   0.153 -0.2859 -0.4656 -0.1696
22233OCT     C144465   9.109  23.128   0.417 -0.2493  0.2819  0.0120
22233OCT     C244466   9.412  23.257   0.735 -0.0233 -0.1553 -0.0558
22234OCT     C144467  23.581   5.532  17.525 -0.0697  0.1842  0.0878
22234OCT     C244468  23.385   5.181  17.728  0.0881  0.2347 -0.2171
22235OCT     C144469   4.076  13.057   0.094  0.0656  0.2092 -0.3797
22235OCT     C244470   3.924  13.422   0.339  0.0842 -0.3296  0.2316
22236OCT     C144471   9.611  13.496   3.728 -0.0474  0.2255  0.0781
22236OCT     C244472   9.520  13.546   3.227  0.0282 -0.1727 -0.0382
22237OCT     C144473  11.970  12.602  14.477 -0.2195  0.2176  0.1127
22237OCT     C244474  12.444  12.623  14.659 -0.2968 -0.4633 -0.5093
22238OCT     C144475  11.316  12.498  10.627 -0.1195 -0.0607  0.1669
22238OCT     C244476  11.484  12.326  10.968 -0.2326  0.2419 -0.0414
22239OCT     C144477  23.154   9.978  16.883 -0.5032 -0.1357  0.0207
22239OCT     C244478  22.903   9.787  17.189  0.1001  0.0016  0.0142
22240OCT     C144479  12.583  11.080  13.994 -0.1211  0.0919  0.0336
22240OCT     C244480  12.315  11.097  14.370  0.0667 -0.0696  0.0273
22241OCT     C144481  19.376  10.827   3.084 -0.1862  0.2985  0.1041
22241OCT     C244482  19.643  10.706   2.667  0.1452  0.0585  0.0167
22242OCT     C144483   7.663  15.980  15.265 -0.0295 -0.1056  0.0431
22242OCT     C244484   7.305  16.293  15.320 -0.1652  0.0533 -0.1211
22243OCT     C144485  15.123  22.062  15.777 -0.0885  0.2711 -0.1254
22243OCT     C244486  15.329  22.492  15.717 -0.1059  0.1759  0.0900
22244OCT     C144487   1.123   0.413  15.023  0.3437  0.1460  0.2436
22244OCT     C244488   1.329  23.739  15.187 -0.1946  0.1505 -0.3553
22245OCT     C144489  22.542  12.786  16.172 -0.0073 -0.1152 -0.3586
22245OCT     C244490  22.451  12.424  15.873 -0.1442  0.4609 -0.2760
22246OCT     C144491  11.279  23.643  22.941  0.2603 -0.0848 -0.5401
22246OCT     C244492  11.367  23.190  23.070 -0.1918  0.2316 -0.0047
22247OCT     C144493  16.323   4.426   5.642  0.2207 -0.1809 -0.0330
22247OCT     C244494  15.934   4.189   5.621  0.4547 -0.2210 -0.1537
22248OCT     C144495   8.423  16.113   4.971 -0.1378 -0.2385 -0.1817
22248OCT     C244496   8.166  16.107   5.396  0.0864 -0.0106 -0.1631
22249OCT     C144497   2.415  14.396  14.764 -0.2802 -0.1240  0.0875
22249OCT     C244498   2.729  14.509  15.105  0.1540 -0.2484  0.6095
22250OCT     C144499  12.787  16.467  12.359 -0.0333 -0.0621 -0.1206
22250OCT     C244500  12.868  16.303  11.926  0.3753  0.0497  0.1003
22251OCT     C144501  22.111   8.310  21.841  0.1708  0.0403  0.2065
22251OCT     C244502  21.977   7.899  22.003 -0.1970  0.0360 -0.1639
22252OCT     C144503  19.688  11.175  18.575  0.2815  0.1056  0.3517
22252OCT     C244504  19.691  11.666  18.503  0.1160  0.3027 -0.0868
22253OCT     C144505  21.660   8.297  14.679  0.0153  0.0113 -0.0830
22253OCT     C244506  21.700   8.703  14.866 -0.2173  0.1047  0.0544
22254OCT     C144507   5.748   2.610   9.517  0.1448 -0.2307 -0.2571
22254OCT     C244508   5.531   3.029   9.593 -0.3019 -0.1516 -0.3072
22255OCT     C144509  12.350  17.777   2.323  0.0654  0.1473 -0.0325
22255OCT     C244510  12.412  17.859   1.904  0.0138 -0.0779 -0.0082
22256OCT     C144511   7.443  11.343  13.725  0.0410  0.2242 -0.0203
22256OCT     C244512   7.171  11.253  13.428 -0.1714  0.1588  0.0098
22257OCT     C144513  21.244  22.566  10.277  0.0574 -0.2252 -0.0655
22257OCT     C244514  20.802  22.432  10.254 -0.1071  0.2965 -0.0837
22258OCT     C144515   7.296   3.512   0.327 -0.0851  0.0171  0.2507
22258OCT     C244516   7.709   3.674   0.401  0.1589  0.1553  0.0199
22259OCT     C144517  22.964   5.788   5.987  0.1407  0.0857 -0.0854
22259OCT     C244518  23.246   5.813   5.532 -0.0913 -0.2094 -0.2388
22260OCT     C144519   2.311  12.981   0.752  0.1966 -0.0538  0.2499
22260OCT     C244520   2.019  12.961   0.388 -0.3149  0.1929 -0.2703
22261OCT     C144521  22.808   9.488   7.576  0.1988  0.0598 -0.3907
22261OCT     C244522  22.779   9.734   7.976  0.0356 -0.1628 -0.2281
22262OCT     C144523   3.951  19.870  13.962 -0.0176  0.1292  0.3438
22262OCT     C244524   3.826  19.394  13.966 -0.0405  0.3755 -0.3299
22263OCT     C144525   8.042  16.505   6.474  0.4837  0.1360  0.0756
22263OCT     C244526   7.967  17.016   6.430 -0.0295  0.0790 -0.0351
22264OCT     C144527  22.626   4.033  17.055 -0.3903 -0.0894  0.2795
22264OCT     C244528  22.569   3.968  16.596  0.0846  0.2907 -0.0917
22265OCT     C144529   3.349   1.442  18.059 -0.0342  0.0252  0.2055
22265OCT     C244530   3.783   1.545  17.886 -0.3078 -0.3332 -0.0120
22266OCT     C144531  21.759  11.985  16.489  0.3815 -0.0259  0.1240
22266OCT     C244532  22.013  12.242  16.243 -0.1521  0.0953 -0.1639
22267OCT     C144533  17.192   9.983  11.979 -0.2881 -0.0117  0.2787
22267OCT     C244534  17.000  10.190  12.277 -0.1108 -0.0297 -0.2102
22268OCT     C144535   7.383   2.076   1.502  0.3080 -0.4125 -0.1844
22268OCT     C244536   7.189   2.401   1.805 -0.1925  0.0681  0.0940
22269OCT     C144537   2.072  19.772  12.431 -0.1278  0.0707  0.4547
22269OCT     C244538   2.290  20.143  12.546 -0.3731  0.4220 -0.0670
22270OCT     C144539   9.255   1.768  23.274 -0.0185  0.0634 -0.3874
22270OCT     C244540   9.664   1.661  23.458  0.0266 -0.0536  0.4052
22271OCT     C144541   7.272   7.230   8.141  0.0342  0.3296 -0.0554
22271OCT     C244542   7.240   7.059   7.656  0.0732  0.0504 -0.0654
22272OCT     C144543  18.505  11.075   6.402 -0.1829  0.2222  0.1328
22272OCT     C244544  18.177  11.232   6.115 -0.2338 -0.2583  0.2428
22273OCT     C144545  19.778  10.575   0.325  0.0958 -0.0188 -0.2705
22273OCT     C244546  20.176  10.718   0.395 -0.0519 -0.1011  0.1066
22274OCT     C144547   4.790  17.356  13.085  0.1172 -0.4190  0.1496
22274OCT     C244548   4.380  17.502  13.181 -0.0203  0.0552 -0.1517
22275OCT     C144549   2.982   2.104   2.464  0.2765 -0.0138  0.0869
22275OCT     C244550   2.630   2.076   2.760  0.1521  0.0160  0.0804
22276OCT     C144551  14.290  18.041   0.212 -0.0825  0.1414 -0.1920
22276OCT     C244552  14.567  18.355   0.398 -0.4533  0.3583 -0.0956
22277OCT     C144553   0.955   2.079   4.284  0.0681 -0.0131 -0.0162
22277OCT     C244554   0.656   1.865   4.003  0.0458 -0.2160 -0.0881
22278OCT     C144555  13.923  12.045  23.111  0.2328 -0.1269 -0.0947
22278OCT     C244556  13.504  12.231  23.246 -0.1772 -0.2849 -0.0378
22279OCT     C144557  19.453   7.385   4.855 -0.0444  0.0656  0.0323
22279OCT     C244558  19.096   7.108   5.064  0.1206  0.1432 -0.0154
22280OCT     C144559   0.739  17.449   1.189  0.0010  0.0737  0.2399
22280OCT     C244560   1.091  17.435   1.441  0.1815  0.0999 -0.0024
22281OCT     C144561   5.661  21.295  20.073  0.2920 -0.2222  0.1228
22281OCT     C244562   5.206  21.224  20.177 -0.3269 -0.0624  0.1752
22282OCT     C144563  16.011  23.258  22.664 -0.0140 -0.0897  0.0603
22282OCT     C244564  15.718  23.001  22.408 -0.3065  0.0936 -0.3410
22283OCT     C144565   7.814   1.489   3.087 -0.2630 -0.2310  0.4903
22283OCT     C244566   7.528   1.609   2.743  0.5804 -0.1681  0.0391
22284OCT     C144567   7.067  18.619   9.483 -0.0427 -0.4503 -0.3837
22284OCT     C244568   7.182  18.606   9.899 -0.0085  0.3112 -0.1218
22285OCT     C144569   5.742   0.288  21.354 -0.0727 -0.0052  0.1248
22285OCT     C244570   5.955   0.247  21.783 -0.5264 -0.2594  0.1714
22286OCT     C144571   1.421  23.299   2.409  0.1025 -0.0077  0.0368
22286OCT     C244572   1.171  23.184   2.042  0.1802 -0.3273  0.1749
22287OCT     C144573   3.100   7.085   1.265 -0.0336 -0.0803 -0.0039
22287OCT     C244574   2.714   7.285   1.052  0.2588  0.2188  0.0415
22288OCT     C144575  11.087   4.595  15.487  0.3153  0.0238 -0.1933
22288OCT     C244576  11.510   4.719  15.275  0.0431  0.0511 -0.0421
22289OCT     C144577   0.366  22.660   9.209 -0.3197  0.0273  0.0829
22289OCT     C244578   0.146  22.745   9.592 -0.1143  0.0210  0.2570
22290OCT     C144579   7.407   6.924   2.392  0.0355 -0.1192  0.2492
22290OCT     C244580   7.179   6.876   2.814 -0.0098  0.0151  0.0216
22291OCT     C144581  14.390  15.521  21.263 -0.3260  0.0758 -0.1215
22291OCT     C244582  14.418  15.115  21.491  0.0583  0.3357 -0.3289
22292OCT     C144583   2.311   2.933  13.535 -0.2262  0.1233 -0.2531
22292OCT     C244584   1.840   2.769  13.361 -0.1262 -0.0953 -0.0299
22293OCT     C144585  20.170  11.579  12.733 -0.0472 -0.0956  0.1875
22293OCT     C244586  20.400  11.376  13.039  0.1575 -0.0108  0.1937
22294OCT     C144587  18.167  14.476  18.336  0.0734 -0.0138 -0.1284
22294OCT     C244588  18.510  14.179  18.236  0.1553  0.3789 -0.0419
22295OCT     C144589   9.593  16.271  11.006  0.2875  0.0720 -0.0887
22295OCT     C244590   9.302  16.085  10.614 -0.1237 -0.3223  0.0312
22296OCT     C144591   5.372  14.376   5.773 -0.0311 -0.0348  0.0412
22296OCT     C244592   5.767  14.248   5.563 -0.1290  0.1859  0.3367
22297OCT     C144593  10.283   5.473   7.841  0.0517  0.0054 -0.6231
22297OCT     C244594   9.937   5.305   7.617  0.1843 -0.2186  0.3642
22298OCT     C144595  23.363  19.105  20.028 -0.2480 -0.1055  0.2954
22298OCT     C244596  23.657  19.341  20.309  0.0872  0.0261  0.0242
22299OCT     C144597  12.207  21.834   0.478 -0.1318  0.3213 -0.0030
22299OCT     C244598  12.357  22.044   0.876  0.3004  0.6019 -0.0966
22300OCT     C144599  19.314   9.420   8.233 -0.0507  0.0237  0.2118
22300OCT     C244600  18.865   9.450   8.375  0.0565  0.4879  0.2956
22301OCT     C144601   4.057  16.511   6.152  0.3385 -0.1395 -0.0149
22301OCT     C244602   3.655  16.264   6.036  0.3671  0.1768 -0.0439
22302OCT     C144603   7.228  13.139   0.118 -0.0797 -0.2608  0.0627
22302OCT     C244604   6.867  13.134  23.588 -0.2036  0.1135 -0.0937
22303OCT     C144605  22.914   9.318  18.587 -0.1324  0.1292  0.2998
22303OCT     C244606  22.856   8.922  18.416 -0.3628  0.0580 -0.0417
22304OCT     C144607  16.348  16.550   7.919  0.2088 -0.2057 -0.2166
22304OCT     C244608  16.208  16.442   7.478 -0.0325 -0.0095 -0.2283
22305OCT     C144609  21.125   9.676  15.922  0.1692  0.1377 -0.1500
22305OCT     C244610  20.797   9.418  15.863  0.0568 -0.1016  0.1090
22306OCT     C144611   6.328  14.939  16.225  0.1146  0.4147  0.0040
22306OCT     C244612   6.399  14.507  16.020 -0.2940 -0.2911 -0.0266
22307OCT     C144613  19.860  23.427   4.006 -0.0732  0.1205 -0.1158
22307OCT     C244614  19.797  23.723   4.318 -0.0827  0.2047 -0.1404
22308OCT     C144615  13.250   9.711   2.852 -0.2514  0.2729 -0.0115
22308OCT     C244616  13.448   9.762   2.444 -0.1409 -0.1180  0.0338
22309OCT     C144617  13.314  17.328   7.188 -0.1205  0.1948 -0.0146
22309OCT     C244618  13.450  16.997   7.523 -0.1357 -0.2089 -0.0768
22310OCT     C144619   0.873  22.751   2.237 -0.2736 -0.0040  0.1869
22310OCT     C244620   1.148  22.853   2.594 -0.1241 -0.0935 -0.0905
22311OCT     C144621   0.204  21.665  17.209 -0.4508 -0.0042  0.1134
22311OCT     C244622   0.329  21.494  16.803  0.0719 -0.1660 -0.0827
22312OCT     C144623  13.771   0.665   0.327 -0.0475 -0.0030 -0.2981
22312OCT     C244624  14.118   0.688   0.606 -0.0111 -0.0959 -0.0190
22313OCT     C144625  11.977   4.982  13.105  0.0769  0.1292  0.2354
22313OCT     C244626  12.135   5.081  13.520  0.1815  0.2474 -0.2065
22314OCT     C144627  10.419  15.004  12.628 -0.0455  0.2317  0.4711
22314OCT     C244628  10.913  14.923  12.728  0.1089  0.0420 -0.7833
22315OCT     C144629  21.143  17.299  20.315 -0.0370  0.2345 -0.2786
22315OCT     C244630  20.833  17.601  20.287 -0.0911 -0.0002 -0.1324
22316OCT     C144631   8.966  17.313   9.958 -0.3242 -0.2244  0.0663
22316OCT     C244632   8.915  17.802   9.862 -0.0305 -0.2454  0.1871
22317OCT     C144633   8.777  22.161  11.422 -0.1715 -0.1879 -0.1276
22317OCT     C244634   9.184  21.954  11.574  0.0720 -0.1208 -0.1234
22318OCT     C144635  21.128  10.218  12.326 -0.4783  0.1836  0.1020
22318OCT     C244636  21.137  10.666  12.436  0.1485  0.0279  0.1929
22319OCT     C144637   2.157   4.784  21.168 -0.1820  0.1258 -0.1488
22319OCT     C244638   2.211   4.747  21.626  0.0211 -0.1239 -0.1723
22320OCT     C144639  19.112   9.095  19.375  0.0368 -0.2851 -0.0119
22320OCT     C244640  19.374   8.693  19.340 -0.4922 -0.2552  0.2651
22321OCT     C144641  19.301  21.077  16.866  0.1743  0.1729 -0.0259
22321OCT     C244642  19.289  20.673  17.065 -0.0345 -0.0408 -0.6201
22322OCT     C144643   3.775  20.304   8.655 -0.1187 -0.0534  0.1303
22322OCT     C244644   3.866  20.202   9.072 -0.1658  0.1563  0.3262
22323OCT     C144645  11.349  20.172  21.554 -0.1879  0.2528  0.0577
22323OCT     C244646  11.333  20.449  21.947  0.2092  0.2311 -0.0691
22324OCT     C144647  19.403  16.717   2.317  0.2698 -0.0496  0.1399
22324OCT     C244648  19.802  16.750   2.108 -0.1910  0.1324 -0.1655
22325OCT     C144649   7.435  14.558   9.490 -0.1465 -0.0414  0.0777
22325OCT     C244650   7.792  14.336   9.631  0.0801  0.1818  0.0479
22326OCT     C144651  19.745  14.414  21.851  0.1309 -0.0030 -0.1069
22326OCT     C244652  19.292  14.624  21.876 -0.1617 -0.1520 -0.1069
22327OCT     C144653   2.241   5.271  20.422 -0.2253 -0.0007  0.2999
22327OCT     C244654   2.253   4.879  20.156  0.1975 -0.0366  0.3754
22328OCT     C144655  17.557  18.285   8.749 -0.2400 -0.4519  0.2084
22328OCT     C244656  17.526  17.848   8.704  0.0007  0.2474  0.0351
22329OCT     C144657  17.696  12.590  18.903  0.1692 -0.0918 -0.1964
22329OCT     C244658  17.691  12.764  19.386 -0.1346 -0.0810  0.0080
22330OCT     C144659   2.022  21.580   7.171  0.4096 -0.1077  0.2443
22330OCT     C244660   2.508  21.559   6.983 -0.1018  0.3620 -0.3699
22331OCT     C144661   2.631  13.770  12.610 -0.4297 -0.1323  0.2331
22331OCT     C244662   2.776  13.921  12.162  0.2635  0.2143  0.1257
22332OCT     C144663   4.270  21.009  11.558 -0.0679  0.2080  0.0734
22332OCT     C244664   4.188  21.074  12.029  0.0968 -0.0610  0.0638
22333OCT     C144665  19.890  14.987   2.196  0.0809 -0.0397  0.1137
22333OCT     C244666  19.689  15.003   2.594 -0.1781 -0.0438 -0.0307
22334OCT     C144667  15.468   7.227   2.059 -0.0425 -0.1128 -0.5992
22334OCT     C244668  15.160   7.070   1.872 -0.1948  0.1439 -0.1256
22335OCT     C144669  19.194  19.170   9.112 -0.2039  0.2372 -0.0737
22335OCT     C244670  18.989  19.597   9.202  0.0556 -0.1834 -0.4873
22336OCT     C144671  15.335  13.441  11.764  0.0515 -0.0102  0.0934
22336OCT     C244672  15.170  13.156  11.418 -0.0933  0.3449 -0.0380
22337OCT     C144673   7.165   0.566  23.561  0.0567  0.0433  0.1083
22337OCT     C244674   6.766   0.423   0.041 -0.0186 -0.2593  0.1679
22338OCT     C144675   1.068  22.552  12.065 -0.1529  0.1466  0.2611
22338OCT     C244676   1.176  22.767  11.624  0.0052  0.0928  0.0802
22339OCT     C144677  12.562  16.356  10.338  0.2313  0.0077 -0.0394
22339OCT     C244678  12.721  16.774  10.465 -0.0347 -0.2399  0.3038
22340OCT     C144679  15.854  13.323  23.170  0.4048  0.0147 -0.1870
22340OCT     C244680  15.367  13.400  23.183 -0.1817  0.1416 -0.3177
22341OCT     C144681   8.350  16.808  12.206 -0.0290 -0.2842 -0.0032
22341OCT     C244682   7.975  17.067  12.089  0.1869 -0.4047 -0.0409
22342OCT     C144683  17.147   7.744   3.012 -0.2184 -0.2029  0.2523
22342OCT     C244684  17.361   7.282   2.949 -0.1569 -0.3363 -0.0860
22343OCT     C144685  20.233   7.412  13.075 -0.0843 -0.0637 -0.0420
22343OCT     C244686  20.540   7.685  12.811  0.2990  0.3005 -0.0962
22344OCT     C144687   4.753  13.156   8.393 -0.2899 -0.1752 -0.2005
22344OCT     C244688   4.949  13.561   8.514 -0.2174  0.1762  0.4052
22345OCT     C144689  22.197   0.671   8.908  0.2825  0.2247 -0.1487
22345OCT     C244690  21.879   0.375   9.172  0.1349 -0.0579  0.0707
22346OCT     C144691  21.070  22.139  11.886 -0.3127 -0.3887  0.1410
22346OCT     C244692  20.695  22.070  11.649 -0.2509  0.1374  0.1991
22347OCT     C144693  13.181  20.271  14.677 -0.1569  0.0303 -0.0025
22347OCT     C244694  13.689  20.371  14.565  0.0249  0.2953  0.2955
22348OCT     C144695  14.796  16.990  10.022 -0.0808 -0.0391 -0.0362
22348OCT     C244696  15.247  16.834   9.916  0.0304  0.1463  0.3284
22349OCT     C144697   5.153   4.635  19.058 -0.0164  0.1159  0.1148
22349OCT     C244698   5.053   4.936  19.375  0.0383 -0.4214 -0.0451
22350OCT     C144699  11.295  17.905  21.542 -0.1334 -0.1312  0.3134
22350OCT     C244700  11.414  17.454  21.683  0.1007  0.3692 -0.2512
22351OCT     C144701  22.531   0.704   1.531  0.0056 -0.0002  0.0596
22351OCT     C244702  22.369   0.639   1.095 -0.1507  0.0796 -0.0975
22352OCT     C144703   9.526  22.962  20.471 -0.2969 -0.1993 -0.4149
22352OCT     C244704   9.344  23.384  20.293 -0.1175  0.3094  0.0738
22353OCT     C144705  11.307   4.013   2.521 -0.6158  0.0508 -0.0250
22353OCT     C244706  11.406   3.641   2.282  0.1268  0.4380 -0.3382
22354OCT     C144707   8.734  10.124  20.730 -0.1472  0.0631  0.2905
22354OCT     C244708   8.322  10.421  20.628 -0.4844 -0.0405  0.0422
22355OCT     C144709  21.776  10.219   1.066 -0.0891 -0.0697 -0.0668
22355OCT     C244710  21.740  10.532   0.665 -0.2849  0.0230  0.1669
22356OCT     C144711  19.286   4.065   1.506 -0.0759 -0.0582 -0.1287
22356OCT     C244712  19.735   3.866   1.418  0.4560  0.0695 -0.0233
22357OCT     C144713  23.679   2.655   6.417 -0.2424  0.1363 -0.1727
22357OCT     C244714  23.368   2.692   6.687  0.3056 -0.0764 -0.1571
22358OCT     C144715   4.755  10.531  14.101 -0.4278  0.0275 -0.1134
22358OCT     C244716   4.442  10.840  13.960 -0.0171  0.3095  0.1620
22359OCT     C144717  15.714   5.828   3.951 -0.0508 -0.0076  0.1866
22359OCT     C244718  15.672   5.391   4.134 -0.0622 -0.0415  0.3799
22360OCT     C144719  15.383  12.011  10.831 -0.1137 -0.4316  0.0338
22360OCT     C244720  15.864  11.950  10.891  0.1248 -0.5033  0.1370
22361OCT     C144721  12.481  10.408  12.634 -0.2775 -0.3906  0.0655
22361OCT     C244722  12.851  10.659  12.673 -0.0717  0.0615  0.0489
22362OCT     C144723   5.969  13.346  13.978 -0.0782 -0.0877 -0.2996
22362OCT     C244724   6.372  13.414  13.832 -0.1016  0.1672 -0.0678
22363OCT     C144725  18.940  12.537   9.015  0.0989 -0.0589 -0.0225
22363OCT     C244726  19.230  12.785   8.859 -0.1231 -0.0634  0.2737
22364OCT     C144727   6.791   7.869  14.794  0.1087 -0.1841 -0.1178
22364OCT     C244728   6.763   7.943  15.189  0.0682 -0.0537  0.2221
22365OCT     C144729  22.076   7.751   6.835  0.0665 -0.0067  0.2057
22365OCT     C244730  22.215   8.101   6.544  0.1176  0.2275 -0.1853
22366OCT     C144731  19.976  17.161   5.118 -0.0536 -0.0080  0.1626
22366OCT     C244732  19.642  17.180   5.403  0.1370 -0.3771  0.0659
22367OCT     C144733  19.767  18.058  11.424  0.2374 -0.1964 -0.0066
22367OCT     C244734  19.531  17.749  11.699 -0.3249 -0.3083  0.2551
22368OCT     C144735   3.730  11.557  19.109 -0.4711  0.0516  0.2875
22368OCT     C244736   4.227  11.478  18.983  0.0984  0.1313  0.0665
22369OCT     C144737  18.592  13.891  10.544  0.1558 -0.1775  0.0033
22369OCT     C244738  18.933  13.689  10.764  0.0700 -0.2450  0.0432
22370OCT     C144739  23.179   1.961  21.046  0.0308  0.2022  0.1543
22370OCT     C244740  23.581   2.150  21.196 -0.0900 -0.0270 -0.1766
22371OCT     C144741  20.096  20.472   3.847 -0.1358 -0.0468  0.0374
22371OCT     C244742  20.027  20.202   3.453  0.0203 -0.3599 -0.6070
22372OCT     C144743  11.877  16.247   7.470  0.2254  0.1799  0.3548
22372OCT     C244744  11.531  16.437   7.746 -0.0934 -0.1210 -0.0987
22373OCT     C144745  12.869  12.213   4.081  0.2974  0.1164 -0.1728
22373OCT     C244746  13.265  12.432   4.325  0.2012  0.1648 -0.2334
22374OCT     C144747  14.986  19.348   7.757  0.1511  0.1525 -0.0300
22374OCT     C244748  14.554  19.153   7.863 -0.1479  0.3794 -0.1125
22375OCT     C144749  23.738  21.766   0.033  0.2040  0.0587  0.1573
22375OCT     C244750   0.142  22.097  23.564 -0.1202  0.3487 -0.0175
22376OCT     C144751   3.199   0.792  15.951 -0.4524  0.1643  0.0304
22376OCT     C244752   3.355   0.417  16.017  0.0196  0.4300 -0.1140
22377OCT     C144753  11.127  23.239   1.645  0.3781  0.1612 -0.1838
22377OCT     C244754  11.391  23.471   1.304 -0.1291 -0.1102  0.1606
22378OCT     C144755   4.499  15.468   1.189  0.1647  0.2244 -0.1743
22378OCT     C244756   4.341  15.915   0.998  0.1412 -0.2863  0.2754
22379OCT     C144757  16.262  18.386   9.029  0.1051  0.0215  0.3735
22379OCT     C244758  16.376  18.599   9.468 -0.0007 -0.0033 -0.3674
22380OCT     C144759  22.670  18.606  13.888  0.0305 -0.1427  0.4234
22380OCT     C244760  22.780  18.166  14.042 -0.2735  0.2354  0.1509
22381OCT     C144761  13.627  16.976  12.884 -0.2956 -0.2245 -0.0803
22381OCT     C244762  13.229  17.141  12.640  0.1427 -0.0516  0.1146
22382OCT     C144763   4.256   6.059  14.919 -0.1510 -0.0936 -0.0007
22382OCT     C244764   3.961   5.753  15.094 -0.1820 -0.0438 -0.4772
22383OCT     C144765  15.744  17.400   8.692  0.1393  0.1927 -0.2374
22383OCT     C244766  15.617  17.701   9.031  0.0239  0.3136 -0.4622
22384OCT     C144767  19.602  14.597  22.836  0.0436  0.2042  0.2514
22384OCT     C244768  19.711  14.671  22.400  0.1586 -0.1564  0.0337
22385OCT     C144769  17.449   9.549  20.317  0.2946  0.2287  0.0699
22385OCT     C244770  17.635   9.260  19.948 -0.1439  0.0584  0.0885
22386OCT     C144771   0.256   7.080   1.371  0.2888 -0.1994 -0.0788
22386OCT     C244772   0.070   6.900   0.993  0.1055  0.6377 -0.4524
22387OCT     C144773   5.035  13.604  12.491 -0.0413 -0.0315 -0.1872
22387OCT     C244774   5.341  13.353  12.571  0.1379 -0.1061  0.0343
22388OCT     C144775   8.400   9.727   5.374  0.0119  0.2455  0.2499
22388OCT     C244776   8.384   9.845   5.789  0.2671 -0.0185 -0.1950
22389OCT     C144777  15.493  13.729  13.455 -0.1155 -0.1464  0.5798
22389OCT     C244778  15.725  14.104  13.497 -0.0696  0.2622  0.0188
22390OCT     C144779  13.245   0.679   0.462 -0.2468  0.3555 -0.1793
22390OCT     C244780  13.318   0.681   0.054  0.0008  0.2976 -0.0756
22391OCT     C144781  18.993   9.482  18.731  0.1015  0.1131  0.3130
22391OCT     C244782  18.929   9.579  18.291  0.0053 -0.1807 -0.1905
22392OCT     C144783  10.972  19.269  11.011  0.1294 -0.1378 -0.1367
22392OCT     C244784  11.091  19.716  10.868 -0.0021 -0.2693  0.2526
22393OCT     C144785  14.949   4.569  14.558 -0.1717 -0.1167 -0.4533
22393OCT     C244786  15.399   4.578  14.674  0.0019  0.0752  0.1776
22394OCT     C144787  19.219   7.988   2.559 -0.0068  0.3200 -0.0623
22394OCT     C244788  18.875   7.699   2.500  0.1940 -0.4259  0.3564
22395OCT     C144789  15.778  21.643   6.483  0.2627 -0.1206 -0.2158
22395OCT     C244790  15.889  22.065   6.341 -0.1785 -0.0130 -0.1754
22396OCT     C144791   4.469   5.458  23.349 -0.2993 -0.0187  0.2448
22396OCT     C244792   4.670   5.414   0.046 -0.0015 -0.1447 -0.3568
22397OCT     C144793   1.548  19.450  20.298 -0.1810  0.1010  0.0533
22397OCT     C244794   1.564  19.676  20.706 -0.1636 -0.3367 -0.2636
22398OCT     C144795   6.007  16.872   0.846  0.1006 -0.1890  0.0034
22398OCT     C244796   5.799  16.967   1.263 -0.1116 -0.0151 -0.3617
22399OCT     C144797  20.579  22.725   8.842  0.4285  0.1235  0.2344
22399OCT     C244798  20.190  22.434   8.614  0.0805  0.4657 -0.1396
22400OCT     C144799  23.088  17.943   8.527 -0.0943 -0.1803  0.0795
22400OCT     C244800  22.735  17.623   8.450  0.2425 -0.1252  0.1524
22401OCT     C144801   9.885  17.880  21.026 -0.3875 -0.1452  0.1216
22401OCT     C244802  10.165  17.802  20.689  0.4460  0.3110 -0.0451
22402OCT     C144803  19.372  21.714  20.821  0.2035  0.0869  0.1422
22402OCT     C244804  18.988  21.949  20.624  0.1643  0.1201  0.0214
22403OCT     C144805  11.161  12.492   1.642 -0.2256 -0.1060  0.1219
22403OCT     C244806  11.162  12.027   1.483  0.1451  0.0748 -0.0375
22404OCT     C144807  20.195   4.670  14.965  0.4721 -0.0052 -0.2425
22404OCT     C244808  19.944   4.835  14.624 -0.2394  0.3720  0.2487
22405OCT     C144809  21.797  11.699  23.457 -0.1211 -0.2216 -0.2583
22405OCT     C244810  22.171  11.666  23.655  0.1427 -0.1119 -0.2328
22406OCT     C144811   5.492   9.069  14.128 -0.0354 -0.0015 -0.2560
22406OCT     C244812   5.840   9.373  13.999 -0.1079  0.0592  0.2450
22407OCT     C144813  17.724  17.228  15.955 -0.2419 -0.0734 -0.1264
22407OCT     C244814  17.903  17.608  15.945 -0.0529 -0.1991  0.0981
22408OCT     C144815   5.455  21.969  21.104 -0.0488  0.2404  0.0752
22408OCT     C244816   5.873  21.749  21.198  0.1488 -0.0691  0.3033
22409OCT     C144817  10.363   9.212  16.468 -0.0196  0.2358  0.0616
22409OCT     C244818  10.355   9.531  16.852 -0.1158 -0.0765 -0.2514
22410OCT     C144819  13.310  18.990   7.143  0.0341  0.0904 -0.1507
22410OCT     C244820  13.454  18.829   7.564 -0.0577 -0.3237  0.5984
22411OCT     C144821   6.376   7.584  10.354  0.0780 -0.0424  0.0039
22411OCT     C244822   6.766   7.752  10.221 -0.3100 -0.1962 -0.0613
22412OCT     C144823   2.697  23.013  17.186  0.0005  0.0715  0.0297
22412OCT     C244824   2.359  23.242  16.954 -0.1686 -0.2257  0.0868
22413OCT     C144825  15.442   1.964  10.339 -0.1171 -0.0686 -0.2381
22413OCT     C244826  15.506   2.358  10.661  0.3278 -0.0263  0.3301
22414OCT     C144827   7.925  14.538  15.404 -0.0610  0.0983  0.2914
22414OCT     C244828   8.107  14.944  15.480 -0.0118 -0.2032  0.0063
22415OCT     C144829   4.052   6.681   6.666  0.0383  0.1563 -0.0692
22415OCT     C244830   3.889   7.045   6.834  0.0302 -0.0593 -0.1624
22416OCT     C144831  13.569   6.440  16.056 -0.1613  0.3553 -0.0531
22416OCT     C244832  13.988   6.617  15.890  0.1319 -0.1212  0.0056
22417OCT     C144833  11.194   7.945  15.088 -0.3450  0.0626  0.2604
22417OCT     C244834  11.101   8.435  15.124 -0.1793 -0.1061 -0.3697
22418OCT     C144835   3.887   1.535  11.495 -0.3236  0.0125  0.0196
22418OCT     C244836   3.703   1.652  11.890 -0.1545 -0.0193  0.2045
22419OCT     C144837   3.664   7.189   5.408 -0.0003  0.0150  0.0270
22419OCT     C244838   4.033   6.985   5.400  0.0538  0.2895 -0.0373
22420OCT     C144839   3.492  10.148   0.355 -0.0553 -0.0567 -0.1224
22420OCT     C244840   3.486  10.450   0.752 -0.1172 -0.2543 -0.3177
22421OCT     C144841  14.175  23.435  20.614 -0.0039 -0.1846 -0.1066
22421OCT     C244842  14.354  23.733  20.299 -0.1260 -0.0572  0.0106
22422OCT     C144843  14.566  23.577   3.995  0.0889  0.3286 -0.1573
22422OCT     C244844  14.828   0.028   3.622 -0.1563 -0.0208 -0.0151
22423OCT     C144845   5.083   7.161   2.157  0.1517  0.0673 -0.0182
22423OCT     C244846   5.151   7.568   2.431  0.0932  0.0535  0.1705
22424OCT     C144847   5.204  19.296   1.150  0.3523  0.2513 -0.2265
22424OCT     C244848   4.730  19.278   1.251 -0.1732 -0.0207  0.1752
22425OCT     C144849  11.763   6.207  10.453  0.0257 -0.1598  0.0735
22425OCT     C244850  11.879   6.433  10.866 -0.2261  0.3646 -0.1086
22426OCT     C144851  21.581  21.296   3.701  0.0539  0.1435 -0.0543
22426OCT     C244852  21.413  21.753   3.703 -0.2868 -0.2269 -0.1739
22427OCT     C144853   6.586  23.555  20.505 -0.0289  0.2056  0.1064
22427OCT     C244854   6.929  23.357  20.827  0.0146 -0.0325  0.0059
22428OCT     C144855  22.239  22.564   7.559  0.2720 -0.5419  0.3388
22428OCT     C244856  22.343  22.148   7.794 -0.0095 -0.0652 -0.1574
22429OCT     C144857  12.154  16.576  15.251 -0.3400 -0.5826  0.1691
22429OCT     C244858  12.296  16.564  14.737  0.1242 -0.2192 -0.1043
22430OCT     C144859   6.354   7.642  18.965  0.1224  0.0491 -0.0478
22430OCT     C244860   6.176   7.349  18.655  0.6199  0.2112 -0.1752
22431OCT     C144861  15.694  11.391  20.967 -0.2374  0.0347 -0.0082
22431OCT     C244862  15.216  11.290  20.867 -0.2918  0.1116 -0.0305
22432OCT     C144863  22.525  18.734   7.694  0.1154 -0.2126  0.0192
22432OCT     C244864  22.887  18.582   7.881 -0.1014  0.2350 -0.0494
22433OCT     C144865  20.394   6.327   0.370  0.0035 -0.5730 -0.1436
22433OCT     C244866  20.368   6.169  23.731 -0.0096  0.1773 -0.3683
22434OCT     C144867   4.541   7.404   3.480  0.0778 -0.0444  0.0430
22434OCT     C244868   4.819   7.570   3.220 -0.3818 -0.2080 -0.4740
22435OCT     C144869   8.580  12.220  18.587  0.3310  0.2662  0.1448
22435OCT     C244870   8.517  11.767  18.544  0.0841  0.0908  0.1077
22436OCT     C144871   0.651  10.710  23.283 -0.3073  0.0137  0.2078
22436OCT     C244872   0.999  10.753  23.649  0.0715  0.0090  0.0428
22437OCT     C144873  16.264  15.241   1.665  0.1267 -0.0759 -0.3309
22437OCT     C244874  16.113  15.468   2.047 -0.1148  0.1161 -0.1237
22438OCT     C144875  18.501   8.935  11.168 -0.1629 -0.0220  0.2155
22438OCT     C244876  18.743   9.188  10.881  0.0752 -0.1877  0.2105
22439OCT     C144877  17.328  16.949  15.187 -0.0511  0.1622  0.2350
22439OCT     C244878  17.798  16.973  15.214  0.0980  0.0565  0.0443
22440OCT     C144879   7.339  16.974  19.685 -0.1314 -0.1429  0.0019
22440OCT     C244880   7.390  16.476  19.669 -0.0147 -0.3187  0.0404
22441OCT     C144881  13.567   0.410   6.764 -0.0608  0.0809 -0.0640
22441OCT     C244882  13.829   0.478   7.098 -0.0166 -0.4315  0.1222
22442OCT     C144883   1.365   5.750  16.078 -0.1227 -0.3377  0.0229
22442OCT     C244884   0.949   5.564  16.274  0.4730 -0.0814  0.1748
22443OCT     C144885  12.439   0.115  23.515 -0.0598  0.2587  0.2734
22443OCT     C244886  12.193  23.454  23.428  0.1922 -0.1206 -0.5177
22444OCT     C144887   4.794  19.460  19.249  0.2311 -0.0029  0.3384
22444OCT     C244888   4.404  19.569  19.440  0.1857 -0.2586 -0.3097
22445OCT     C144889  15.360  19.404  23.280 -0.0842  0.0863 -0.0387
22445OCT     C244890  15.507  18.989  23.187 -0.2917  0.1414 -0.0009
22446OCT     C144891   0.123   0.078   0.160  0.1955  0.0917 -0.2549
22446OCT     C244892   0.231   0.492  23.719  0.0998  0.3097  0.0312
22447OCT     C144893  20.496  11.611   7.578 -0.0671  0.1610 -0.0257
22447OCT     C244894  20.254  11.974   7.683 -0.2802  0.1112 -0.1100
22448OCT     C144895  21.228  23.518   7.410  0.0914 -0.2477 -0.0609
22448OCT     C244896  21.278  23.193   7.669  0.1993  0.0345  0.3832
22449OCT     C144897  15.238  20.670   2.730  0.3449 -0.1433 -0.1693
22449OCT     C244898  15.128  20.586   3.199  0.0804 -0.0244  0.0547
22450OCT     C144899  21.607  20.772   0.043 -0.2867 -0.0801  0.2588
22450OCT     C244900  21.830  20.481  23.566 -0.0147  0.1010  0.0488
22451OCT     C144901   0.983   0.221  22.997 -0.2210 -0.0074 -0.4265
22451OCT     C244902   0.998   0.637  23.076 -0.0223  0.0608 -0.2630
22452OCT     C144903   3.315  17.366  23.199 -0.0886  0.0539 -0.4613
22452OCT     C244904   3.401  16.925  23.168  0.1659 -0.1664  0.0695
22453OCT     C144905  23.440   9.580   7.319  0.1476 -0.0067 -0.0065
22453OCT     C244906  23.729   9.211   7.110  0.0411  0.0693 -0.3509
22454OCT     C144907  19.496  20.758   3.963  0.0017  0.4273 -0.2251
22454OCT     C244908  19.327  20.987   3.640  0.0460  0.1007  0.3662
22455OCT     C144909   8.114   5.773  13.930  0.0586  0.0315 -0.0717
22455OCT     C244910   8.502   5.656  13.609  0.2528 -0.1804  0.1241
22456OCT     C144911   7.065  14.664  18.198 -0.0215 -0.0481 -0.1064
22456OCT     C244912   7.377  14.415  17.970 -0.3243 -0.2470 -0.1040
22457OCT     C144913  14.161  19.962  23.479  0.2032 -0.2791 -0.0166
22457OCT     C244914  13.843  19.747  23.190 -0.4917 -0.3912 -0.1920
22458OCT     C144915   2.500   2.414  17.806 -0.1538 -0.3364  0.3093
22458OCT     C244916   2.279   2.096  18.033 -0.1814 -0.2020  0.2001
22459OCT     C144917  22.340  20.094  22.854  0.4059  0.2487  0.1282
22459OCT     C244918  22.013  19.923  23.226 -0.0606  0.1183 -0.0005
22460OCT     C144919  15.574  20.827  10.201 -0.0032  0.0830  0.1561
22460OCT     C244920  15.799  21.169   9.896  0.2195 -0.0912  0.2909
22461OCT     C144921  14.787   7.066   5.875  0.1629 -0.4000 -0.1904
22461OCT     C244922  15.170   7.079   5.787 -0.3000 -0.2308  0.2891
22462OCT     C144923  14.021   1.325  21.616  0.0284  0.0807 -0.0437
22462OCT     C244924  14.029   0.871  21.717  0.0827  0.1807 -0.2180
22463OCT     C144925   1.159   8.558  19.533 -0.0142  0.0206  0.0301
22463OCT     C244926   1.459   8.756  19.267  0.1832  0.0222  0.0593
22464OCT     C144927  22.536  16.997  15.724  0.1858 -0.0958  0.1652
22464OCT     C244928  22.179  16.894  16.059  0.0338  0.0371  0.0675
22465OCT     C144929   2.983  12.319   1.638  0.4362  0.0213 -0.2379
22465OCT     C244930   2.748  11.973   1.473  0.2387 -0.2024  0.0624
22466OCT     C144931   0.151  22.295  19.298  0.1719  0.1118 -0.1081
22466OCT     C244932  23.733  22.261  18.886  0.2975  0.1758  0.1481
22467OCT     C144933   2.381  10.362  14.226 -0.2699 -0.1938 -0.0588
22467OCT     C244934   1.974  10.364  14.085 -0.1945 -0.2107  0.1033
22468OCT     C144935  19.668   8.275  22.240  0.0597 -0.1266  0.0826
22468OCT     C244936  19.565   8.548  21.914  0.1701 -0.1658 -0.3272
22469OCT     C144937  17.498   0.570  10.818  0.0911  0.0381  0.0706
22469OCT     C244938  17.259   0.218  10.639  0.1082 -0.2630 -0.2351
22470OCT     C144939  19.998  14.212  23.514  0.1328 -0.1530  0.0687
22470OCT     C244940  19.733  14.567  23.285 -0.1005  0.0317  0.1376
22471OCT     C144941   9.419  15.914  19.145  0.0978 -0.0966  0.0658
22471OCT     C244942   9.186  15.624  19.472 -0.4419 -0.0200 -0.3118
22472OCT     C144943   9.134   4.410   1.624 -0.0872  0.2019  0.1784
22472OCT     C244944   9.356   4.823   1.680  0.0978 -0.1827 -0.3419
22473OCT     C144945   3.769   1.613  14.564  0.1134  0.3892 -0.0401
22473OCT     C244946   3.655   2.018  14.822 -0.2740  0.0920  0.4771
22474OCT     C144947  20.025  13.693  15.035 -0.0295 -0.0704  0.2067
22474OCT     C244948  20.086  13.542  14.569 -0.2243 -0.2100  0.0031
22475OCT     C144949  12.585  18.797   8.686  0.0807  0.0396 -0.2585
22475OCT     C244950  12.812  18.548   8.368  0.0220 -0.1327 -0.1643
22476OCT     C144951   2.456  19.856   7.526 -0.2232  0.2262 -0.0204
22476OCT     C244952   2.603  20.136   7.192  0.0144 -0.1465  0.2763
22477OCT     C144953   1.394  13.779  14.553 -0.0721  0.0028 -0.0416
22477OCT     C244954   0.955  13.647  14.624 -0.2027  0.2506  0.2142
22478OCT     C144955  14.288   0.790  19.137  0.0605 -0.1353  0.1466
22478OCT     C244956  14.579   1.130  19.037  0.0153 -0.2803 -0.1866
22479OCT     C144957  15.749   3.638  12.863 -0.1922 -0.1975 -0.2783
22479OCT     C244958  15.552   4.042  12.932  0.0531 -0.0556 -0.0445
22480OCT     C144959  13.425  21.402  12.361 -0.1752  0.3524  0.1907
22480OCT     C244960  13.345  21.845  12.267 -0.0865  0.2351 -0.0186
22481OCT     C144961  18.144   4.806  20.026  0.0684 -0.2823 -0.4150
22481OCT     C244962  18.165   4.965  20.444  0.1396 -0.1425 -0.1591
22482OCT     C144963  20.331   9.144   0.735  0.2674  0.0343 -0.0465
22482OCT     C244964  20.138   9.495   0.457  0.1750  0.0276  0.3000
22483OCT     C144965  13.599  12.411   6.993  0.3328 -0.5466 -0.2555
22483OCT     C244966  13.710  12.804   7.206 -0.1349 -0.2304 -0.0187
22484OCT     C144967  19.472   5.077   5.315  0.0561 -0.2825  0.0324
22484OCT     C244968  19.032   4.975   5.187 -0.0356 -0.0800  0.0061
22485OCT     C144969  18.326   8.783  12.388  0.0061 -0.0733 -0.0257
22485OCT     C244970  18.820   8.654  12.490 -0.2453  0.1648  0.1100
22486OCT     C144971   7.077  21.648   1.784  0.1462 -0.2083  0.0265
22486OCT     C244972   6.801  21.721   2.119 -0.1222  0.3370 -0.3596
22487OCT     C144973  12.953  14.020  20.486  0.0516 -0.0657 -0.2917
22487OCT     C244974  13.057  14.233  20.886 -0.3037 -0.0154 -0.1310
22488OCT     C144975  23.418  17.967   3.190 -0.0860  0.1001 -0.2365
22488OCT     C244976  23.688  18.083   2.824 -0.0411 -0.3466  0.2297
22489OCT     C144977  20.093  19.680   9.184  0.3038 -0.1422  0.2529
22489OCT     C244978  19.774  19.671   9.548  0.4028 -0.1094 -0.1811
22490OCT     C144979   0.955  13.979   4.790  0.1979 -0.1167 -0.2261
22490OCT     C244980   1.392  14.148   4.928 -0.0237  0.1060  0.1957
22491OCT     C144981   0.522   7.749   2.048 -0.0464  0.1693 -0.1884
22491OCT     C244982   0.099   7.861   2.071 -0.1023  0.0549 -0.3082
22492OCT     C144983  19.179   5.099   4.373  0.7449  0.1203 -0.1065
22492OCT     C244984  18.982   5.558   4.303 -0.1471 -0.3053 -0.1960
22493OCT     C144985  13.918   4.809  18.940 -0.1012  0.4011  0.4752
22493OCT     C244986  14.363   4.782  19.051 -0.0544  0.2126  0.1794
22494OCT     C144987   5.772   8.100  22.709 -0.0386 -0.0101  0.1014
22494OCT     C244988   5.769   8.338  23.117  0.0515  0.0778 -0.1159
22495OCT     C144989   6.705  15.318  12.847  0.0174  0.0778 -0.2183
22495OCT     C244990   7.141  15.427  12.655  0.1796  0.3439  0.2722
22496OCT     C144991   1.806  20.709   0.684 -0.2186  0.3713  0.1478
22496OCT     C244992   1.728  20.527   0.284 -0.2575 -0.0683 -0.1795
22497OCT     C144993   7.143  19.072   7.642 -0.4881 -0.0616  0.0034
22497OCT     C244994   7.100  19.515   7.529  0.4071  0.0907  0.1521
22498OCT     C144995  13.086  23.411  21.961  0.0772  0.2893 -0.0788
22498OCT     C244996  13.361  23.526  22.311  0.0372  0.0365  0.2586
22499OCT     C144997  15.090   8.444  13.585 -0.0075 -0.4069  0.0255
22499OCT     C244998  14.829   8.044  13.539 -0.2581 -0.1562 -0.2900
22500OCT     C144999   9.271   8.862  15.780  0.1889 -0.2139 -0.2565
22500OCT     C245000   9.376   8.590  15.403  0.1696 -0.0325  0.3184
22501OCT     C145001   2.964  14.130  17.779  0.3396 -0.0847 -0.1419
22501OCT     C245002   2.620  14.438  17.829  0.0835  0.2357 -0.0352
22502OCT     C145003  13.428   6.871  12.053  0.1952  0.1817  0.0608
22502OCT     C245004  13.305   7.243  12.276  0.2602  0.1421  0.0585
22503OCT     C145005   4.354  20.246   7.098  0.0572  0.1807  0.1252
22503OCT     C245006   4.355  19.790   7.125 -0.2672 -0.1883 -0.2715
22504OCT     C145007  18.806  14.692  11.745  0.2026  0.0999  0.3030
22504OCT     C245008  19.279  14.666  11.661 -0.3090  0.1242 -0.1079
22505OCT     C145009   1.772   0.542   3.573  0.3352 -0.0751 -0.2394
22505OCT     C245010   2.222   0.672   3.618  0.0545 -0.0302  0.0225
22506OCT     C145011  10.483  15.366  17.435 -0.1017 -0.2096  0.6629
22506OCT     C245012  10.138  15.476  17.674 -0.0479  0.0011  0.1331
22507OCT     C145013  15.640  13.167  17.031  0.2397  0.1831 -0.0639
22507OCT     C245014  15.730  13.363  16.612  0.2360 -0.5226  0.4358
22508OCT     C145015  20.115  20.514  11.186 -0.1288  0.1459 -0.0516
22508OCT     C245016  20.564  20.419  11.015  0.0287  0.1230 -0.4871
22509OCT     C145017  18.101   1.931  21.962  0.0492 -0.0666  0.0559
22509OCT     C245018  18.440   2.236  21.882 -0.2055 -0.1232 -0.1754
22510OCT     C145019   5.930  10.854  18.044 -0.0097  0.0903  0.1599
22510OCT     C245020   5.768  11.340  18.153 -0.0995  0.4675 -0.3108
22511OCT     C145021   1.294  15.611   5.825  0.2862  0.0671  0.0639
22511OCT     C245022   1.598  15.454   5.565 -0.0658  0.0328 -0.1645
22512OCT     C145023  19.402   0.433  21.607 -0.6827  0.0087 -0.0865
22512OCT     C245024  19.794   0.442  21.786  0.1103  0.0652 -0.1486
22513OCT     C145025   9.773  16.117  11.732 -0.1228 -0.1272 -0.0741
22513OCT     C245026   9.621  15.864  11.357 -0.1160  0.2109  0.1279
22514OCT     C145027   0.270  17.449  20.394 -0.1728  0.0331  0.1797
22514OCT     C245028   0.024  17.287  20.042 -0.0887  0.4760  0.0378
22515OCT     C145029  19.726   5.605   5.139  0.2351 -0.2340  0.2126
22515OCT     C245030  19.659   5.435   5.594 -0.0150 -0.3003  0.0757
22516OCT     C145031  10.024  22.312  19.927  0.1501 -0.0493  0.1892
22516OCT     C245032   9.753  22.291  19.531  0.1076 -0.0980 -0.0917
22517OCT     C145033  10.215   4.789  23.292  0.3138 -0.1119 -0.0082
22517OCT     C245034  10.535   4.688  23.631 -0.1977 -0.2966  0.0157
22518OCT     C145035  10.772   0.470   6.943  0.0091  0.3318 -0.3415
22518OCT     C245036  11.045   0.892   6.991  0.1523 -0.0548  0.1039
22519OCT     C145037   4.708   6.981  23.344  0.2807  0.1154 -0.2668
22519OCT     C245038   4.640   7.482  23.356 -0.1388 -0.2750 -0.0091
22520OCT     C145039  21.630  18.987  21.401  0.0754  0.3560 -0.2059
22520OCT     C245040  21.253  19.264  21.399  0.2896 -0.3052  0.1293
22521OCT     C145041  15.259   7.015  23.204 -0.1387  0.0121  0.2399
22521OCT     C245042  15.702   7.032  23.392 -0.1063  0.3401 -0.0654
22522OCT     C145043  10.295   9.559   5.669 -0.1959  0.4260  0.1709
22522OCT     C245044   9.952   9.497   5.985 -0.2504 -0.0362  0.2137
22523OCT     C145045   8.237  12.708  16.454  0.1411  0.1496  0.1433
22523OCT     C245046   8.417  13.135  16.482 -0.0584 -0.0401  0.1388
22524OCT     C145047   9.683  22.153   7.751 -0.1070 -0.1768 -0.3068
22524OCT     C245048   9.334  21.795   7.732 -0.1411  0.0364  0.2782
22525OCT     C145049  22.745  21.426  11.605 -0.0646  0.2237  0.0380
22525OCT     C245050  22.648  21.744  11.921 -0.1098 -0.0919  0.3344
22526OCT     C145051  20.190  12.099  10.631  0.0146  0.1155  0.0658
22526OCT     C245052  20.380  11.685  10.495 -0.0449  0.0127 -0.2861
22527OCT     C145053  19.088  11.532   2.760  0.1280 -0.0060  0.3313
22527OCT     C245054  19.370  11.225   2.709  0.0955  0.2474 -0.1992
22528OCT     C145055   8.626  21.055  20.388 -0.0231  0.2721  0.0488
22528OCT     C245056   8.291  20.775  20.525 -0.0385 -0.2076 -0.0882
22529OCT     C145057  11.137  18.604  10.571  0.4040  0.2291 -0.0943
22529OCT     C245058  10.725  18.699  10.425 -0.3449  0.0671  0.0676
22530OCT     C145059   4.047  14.480  17.813 -0.0180  0.1508 -0.1484
22530OCT     C245060   3.583  14.655  17.814 -0.1891 -0.1587 -0.0647
22531OCT     C145061   5.136  12.129   5.329 -0.2060  0.1895  0.4682
22531OCT     C245062   4.982  12.549   5.469  0.0106  0.2828 -0.0892
22532OCT     C145063   0.470  19.684   5.708  0.2099 -0.0334 -0.1595
22532OCT     C245064   0.533  19.915   6.113 -0.3529 -0.2600  0.0349
22533OCT     C145065  20.470  13.916   7.165  0.4262  0.0922 -0.1557
22533OCT     C245066  20.238  14.269   6.926 -0.1037  0.2304 -0.1301
22534OCT     C145067   1.558  15.502  22.395 -0.1441 -0.1540 -0.0646
22534OCT     C245068   1.462  15.156  22.638 -0.1694 -0.1438  0.1540
22535OCT     C145069   3.924   7.495  21.717 -0.2400 -0.2043  0.0694
22535OCT     C245070   3.712   7.817  21.997  0.3343 -0.2472  0.1912
22536OCT     C145071  14.593  20.601   6.345  0.1343  0.3717 -0.2126
22536OCT     C245072  14.497  20.986   6.166  0.1093 -0.0040  0.4529
22537OCT     C145073   7.917  17.289  14.373  0.3325 -0.0035  0.2800
22537OCT     C245074   8.323  17.361  14.185  0.0413  0.1685  0.1694
22538OCT     C145075  17.610  18.564  14.161 -0.0119  0.0046  0.1446
22538OCT     C245076  17.582  18.549  14.616 -0.4224 -0.0835 -0.0382
22539OCT     C145077  22.098   1.668   7.546 -0.4545  0.2247 -0.0335
22539OCT     C245078  22.478   1.800   7.279  0.1323  0.0153 -0.0483
22540OCT     C145079  10.846  13.335  19.669  0.1983 -0.3619  0.1149
22540OCT     C245080  10.820  13.053  20.084 -0.1544  0.3194 -0.0714
22541OCT     C145081  17.576  22.515   9.942  0.3193 -0.2514  0.4503
22541OCT     C245082  17.633  22.507  10.384  0.1776 -0.4672 -0.0419
22542OCT     C145083  18.005  23.180  17.933  0.5120 -0.0154 -0.2901
22542OCT     C245084  18.018  23.472  17.628  0.0691  0.1999  0.0719
22543OCT     C145085  20.026  10.774   7.496 -0.2861  0.1185  0.0523
22543OCT     C245086  20.118  11.223   7.492  0.2404 -0.0501 -0.0795
22544OCT     C145087  22.704   4.311   2.603  0.3498  0.1157  0.1006
22544OCT     C245088  22.480   3.899   2.593 -0.1917 -0.2631  0.1065
22545OCT     C145089   0.948   6.665  23.424 -0.1239  0.0552 -0.1983
22545OCT     C245090   1.150   6.736  23.024  0.2515  0.1903  0.0861
22546OCT     C145091   5.804  21.291   8.299  0.3474 -0.1891 -0.0675
22546OCT     C245092   5.602  21.561   8.042  0.1016  0.2111  0.0966
22547OCT     C145093   2.928   2.038  16.490 -0.0330 -0.1603 -0.3099
22547OCT     C245094   3.360   2.228  16.547  0.0994 -0.3126  0.0535
22548OCT     C145095  15.079  21.210  14.580  0.0937 -0.3945  0.0902
22548OCT     C245096  14.904  20.823  14.480  0.0846  0.2550 -0.0131
22549OCT     C145097   6.593  16.143  13.806  0.1250 -0.0583  0.0103
22549OCT     C245098   6.699  16.541  13.578 -0.0168 -0.1139  0.1116
22550OCT     C145099   8.455  18.287  11.482 -0.0654 -0.0247 -0.3647
22550OCT     C245100   8.365  18.701  11.705  0.1009 -0.0332  0.0976
22551OCT     C145101  23.396   5.131  22.374  0.3348  0.3607  0.2392
22551OCT     C245102  23.297   5.408  22.718  0.0358  0.0276  0.3703
22552OCT     C145103   9.021   7.813  12.146  0.4651 -0.1289  0.2807
22552OCT     C245104   9.236   7.421  12.116  0.1026  0.3322 -0.0416
22553OCT     C145105   4.296  10.498   5.868  0.2066 -0.0522  0.3070
22553OCT     C245106   4.039  10.922   5.888 -0.2135 -0.2058 -0.2467
22554OCT     C145107  16.366  13.151  20.612  0.0373  0.0895  0.2710
22554OCT     C245108  16.772  13.157  20.327 -0.3497 -0.0625 -0.2410
22555OCT     C145109   7.671  20.959  22.296 -0.2299  0.2778 -0.1278
22555OCT     C245110   7.334  20.614  22.219 -0.1358  0.2010  0.0659
22556OCT     C145111   0.143  13.127  18.400 -0.1013 -0.1683 -0.2995
22556OCT     C245112   0.627  13.130  18.331  0.0741 -0.0412 -0.2012
22557OCT     C145113  20.674   4.763  22.707 -0.2303 -0.0956  0.2362
22557OCT     C245114  20.835   5.226  22.791 -0.2183  0.0568 -0.0052
22558OCT     C145115   1.707  13.463  17.923 -0.3030 -0.0737 -0.2147
22558OCT     C245116   1.229  13.363  17.849 -0.1259 -0.1525  0.1556
22559OCT     C145117  22.692   6.739   8.723  0.1043 -0.0864 -0.0622
22559OCT     C245118  22.586   7.076   9.020 -0.0200  0.1202 -0.2920
22560OCT     C145119   1.739   1.321  17.928  0.0587 -0.0257 -0.1395
22560OCT     C245120   1.384   1.563  17.728  0.0126  0.2479 -0.0150
22561OCT     C145121  17.815   4.392   6.877  0.0538 -0.1420  0.1816
22561OCT     C245122  17.436   4.475   7.146  0.2444  0.2941  0.1159
22562OCT     C145123  14.661   8.807  17.699 -0.0225  0.3408  0.2199
22562OCT     C245124  14.881   8.495  17.990 -0.4696 -0.0095  0.1427
22563OCT     C145125   1.279  17.912  13.032  0.1173  0.0351 -0.3340
22563OCT     C245126   1.101  17.736  12.594 -0.0736 -0.1269  0.1701
22564OCT     C145127  16.046  18.798  23.261 -0.2520  0.0121  0.3289
22564OCT     C245128  15.949  19.218  23.060 -0.0187 -0.0528 -0.0741
22565OCT     C145129  14.442  21.595   7.406 -0.2240 -0.0384 -0.2577
22565OCT     C245130  14.819  21.831   7.520 -0.2041  0.0715 -0.1376
22566OCT     C145131  21.903  22.278  18.727  0.0172  0.0987 -0.1166
22566OCT     C245132  21.785  22.180  18.303 -0.0262 -0.2340 -0.0626
22567OCT     C145133   5.497  16.854   7.762 -0.1069 -0.0234  0.0360
22567OCT     C245134   5.951  16.851   8.020  0.0158 -0.1191 -0.1050
22568OCT     C145135  22.507   3.700   6.564 -0.2262  0.0104 -0.3794
22568OCT     C245136  22.602   3.697   6.158  0.3211  0.2201  0.0205
22569OCT     C145137  15.509   3.083  11.096 -0.2357  0.2634 -0.5338
22569OCT     C245138  15.461   2.656  11.004  0.1227  0.2288 -0.0669
22570OCT     C145139   0.916  20.341  12.471 -0.1936 -0.3423 -0.2626
22570OCT     C245140   0.711  20.480  12.078 -0.1613 -0.0964 -0.0070
22571OCT     C145141   3.600  15.051  18.664 -0.2721 -0.1348  0.0915
22571OCT     C245142   3.310  15.444  18.508 -0.1294 -0.0537 -0.0120
22572OCT     C145143   1.065   7.107  20.466 -0.0220 -0.0052 -0.2306
22572OCT     C245144   0.612   6.955  20.389 -0.1740 -0.2467  0.0842
22573OCT     C145145  14.830  10.318   8.586 -0.3328  0.0682  0.2670
22573OCT     C245146  14.784  10.256   8.126  0.1992 -0.0295 -0.2853
22574OCT     C145147  10.361   2.982  20.272 -0.2456 -0.1558  0.3212
22574OCT     C245148  10.405   3.440  20.337  0.1431 -0.2968 -0.1867
22575OCT     C145149   9.222  15.282  19.837 -0.1017  0.1059  0.1163
22575OCT     C245150   9.117  15.741  19.947  0.3381 -0.2460  0.1898
22576OCT     C145151  22.646   9.037   6.388  0.2591 -0.0886 -0.0891
22576OCT     C245152  22.623   9.144   6.820  0.2217  0.1964 -0.0018
22577OCT     C145153  18.283   2.258   1.632  0.3838 -0.2954  0.1790
22577OCT     C245154  18.685   2.398   1.423  0.1842  0.2095 -0.2098
22578OCT     C145155   8.449  10.919   4.581  0.1524  0.4239  0.0561
22578OCT     C245156   8.198  10.766   4.218 -0.4598 -0.1598 -0.1251
22579OCT     C145157   4.714  11.430   5.729  0.2063 -0.0247 -0.4209
22579OCT     C245158   4.495  11.057   5.624  0.3060 -0.0485  0.3313
22580OCT     C145159  19.001   9.556   3.975 -0.1026 -0.0243 -0.0366
22580OCT     C245160  19.236   9.583   3.597  0.1835  0.1906  0.2147
22581OCT     C145161  21.841  13.422  20.257 -0.3860  0.0823  0.0208
22581OCT     C245162  22.169  13.691  20.021 -0.2387  0.0681 -0.0664
22582OCT     C145163   6.775   1.740  23.662  0.4360 -0.1566  0.0826
22582OCT     C245164   6.610   1.987  23.271  0.3500  0.1303  0.2853
22583OCT     C145165  16.476   1.119   3.196 -0.0167  0.2573  0.1070
22583OCT     C245166  16.031   0.987   3.287 -0.1922 -0.0775  0.1432
22584OCT     C145167   3.069  11.393  22.524 -0.3409 -0.2680  0.0760
22584OCT     C245168   2.832  11.327  22.926  0.0711 -0.0224 -0.1561
22585OCT     C145169  21.345  19.392   8.760  0.1422 -0.3733  0.1451
22585OCT     C245170  20.955  19.492   8.954 -0.2536 -0.0086 -0.3249
22586OCT     C145171  21.067  13.547   3.207 -0.0813 -0.0151 -0.1422
22586OCT     C245172  21.059  13.887   2.841 -0.0151  0.1862 -0.0966
22587OCT     C145173  10.209  11.076  21.417 -0.2167 -0.0447 -0.1422
22587OCT     C245174  10.351  10.803  21.067 -0.2278 -0.1631 -0.1529
22588OCT     C145175   4.568  17.377  15.829 -0.0805 -0.1128 -0.4278
22588OCT     C245176   4.922  17.654  15.849  0.1594 -0.5740  0.0347
22589OCT     C145177  15.281  16.839  17.874 -0.2701 -0.2086 -0.5891
22589OCT     C245178  15.512  17.256  17.739  0.0231  0.2448 -0.2016
22590OCT     C145179  14.566   2.784  20.053  0.0072  0.2198 -0.2611
22590OCT     C245180  14.237   3.031  20.360 -0.0276 -0.0506 -0.0387
22591OCT     C145181   0.737   5.134  17.475 -0.1818 -0.4518 -0.0904
22591OCT     C245182   0.444   5.492  17.351  0.2500 -0.0695  0.0240
22592OCT     C145183  16.208  11.391   6.103 -0.2535  0.1583 -0.0405
22592OCT     C245184  16.156  11.851   6.216  0.1215 -0.1283 -0.1417
22593OCT     C145185  21.427  12.316   7.113  0.1181  0.2181  0.1524
22593OCT     C245186  21.143  12.554   7.381  0.4386 -0.0271  0.0559
22594OCT     C145187  21.768   6.178  19.811  0.4963  0.4507  0.2817
22594OCT     C245188  21.897   5.785  19.658  0.3032  0.4364 -0.0628
22595OCT     C145189  14.127  21.164  21.631 -0.3199 -0.2410 -0.1809
22595OCT     C245190  13.742  20.892  21.585  0.4536  0.0458  0.2756
22596OCT     C145191  12.947  15.443   0.474 -0.2535  0.0903 -0.1263
22596OCT     C245192  12.885  15.732   0.089  0.0812  0.0299 -0.3608
22597OCT     C145193  14.092  11.741   0.178  0.3603 -0.1370  0.0404
22597OCT     C245194  13.940  11.947   0.581 -0.1326 -0.1263  0.1150
22598OCT     C145195   1.856  15.658   9.945  0.0224 -0.3710 -0.1558
22598OCT     C245196   2.029  15.246   9.781  0.3490  0.0731  0.1001
22599OCT     C145197   0.911   3.101  13.826 -0.0802 -0.2268  0.2223
22599OCT     C245198   0.960   3.539  13.729  0.0374 -0.3576 -0.2269
22600OCT     C145199   7.140  10.873   0.571 -0.2887  0.3406  0.1848
22600OCT     C245200   7.365  10.480   0.641  0.3614 -0.0187  0.1141
22601OCT     C145201   2.524   7.528   6.139  0.1816 -0.1347  0.0247
22601OCT     C245202   2.248   7.354   5.821 -0.3631  0.3239 -0.1535
22602OCT     C145203  19.582  18.382  18.605 -0.0041 -0.0743 -0.2755
22602OCT     C245204  19.962  18.148  18.638  0.0965 -0.1201  0.1895
22603OCT     C145205  10.316  11.784  20.260 -0.0196  0.0148 -0.2349
22603OCT     C245206  10.241  12.209  20.493  0.0367  0.2204 -0.1870
22604OCT     C145207  13.194  16.100  11.524 -0.0438  0.0522 -0.0468
22604OCT     C245208  13.256  15.649  11.596 -0.2837  0.3268  0.0464
22605OCT     C145209  12.932  19.840  16.966  0.0299 -0.2723 -0.2297
22605OCT     C245210  13.039  19.729  17.398  0.1242 -0.1422  0.0669
22606OCT     C145211   8.513  16.655  11.261 -0.0711 -0.0748 -0.1842
22606OCT     C245212   8.281  16.241  11.122 -0.0409  0.3088  0.1680
22607OCT     C145213  17.011  11.922  15.275  0.0201  0.4531  0.1349
22607OCT     C245214  16.612  11.782  15.055 -0.0303 -0.0617  0.1740
22608OCT     C145215   8.672  21.394  19.924 -0.2552  0.0827  0.0022
22608OCT     C245216   8.381  21.525  20.230 -0.0037  0.1373 -0.1581
22609OCT     C145217  12.729   4.898   7.922 -0.1068  0.0114 -0.1908
22609OCT     C245218  12.981   4.639   7.727  0.1563 -0.2395  0.4935
22610OCT     C145219  11.687   1.238  20.582  0.1802 -0.0763 -0.0730
22610OCT     C245220  11.894   1.095  20.163  0.0828  0.3492  0.1283
22611OCT     C145221  11.193  17.304  20.886  0.0682  0.3296  0.1686
22611OCT     C245222  11.069  17.556  21.239  0.1378 -0.0837  0.2504
22612OCT     C145223  17.702  15.171  15.728 -0.2164  0.1772  0.0512
22612OCT     C245224  17.700  15.402  16.155  0.0766 -0.0656  0.3220
22613OCT     C145225  14.803  22.589  14.412 -0.1674  0.2368  0.2066
22613OCT     C245226  15.158  22.371  14.176 -0.2312 -0.2985 -0.1375
22614OCT     C145227   8.103  21.680  16.133  0.1602  0.0806  0.0107
22614OCT     C245228   8.393  21.989  16.357  0.0890 -0.0158 -0.0594
22615OCT     C145229   0.914  18.690   6.668 -0.0782  0.0486  0.0378
22615OCT     C245230   0.502  18.512   6.821 -0.0147 -0.0756 -0.0810
22616OCT     C145231   7.104  23.647  18.133 -0.2269  0.0765  0.0413
22616OCT     C245232   7.206  23.234  18.228  0.0904  0.0977 -0.2513
22617OCT     C145233   1.287  12.930   6.537  0.0938 -0.4512  0.1013
22617OCT     C245234   1.061  13.210   6.842 -0.1039 -0.0829 -0.2022
22618OCT     C145235  16.711  20.662  14.742 -0.1493  0.0123  0.4051
22618OCT     C245236  16.428  20.498  15.115 -0.2807  0.1690 -0.2176
22619OCT     C145237  21.131   1.473   7.934  0.3148 -0.1909 -0.1520
22619OCT     C245238  21.463   1.597   7.645 -0.1500  0.2030 -0.0289
22620OCT     C145239  23.232  17.433  21.483  0.0089 -0.1212  0.3235
22620OCT     C245240  23.265  17.247  21.034  0.3398  0.0962 -0.1091
22621OCT     C145241  16.640  11.893  21.827  0.3805  0.0707  0.2446
22621OCT     C245242  16.375  11.537  21.890  0.0965 -0.1136  0.0581
22622OCT     C145243   3.538   9.442   4.897 -0.1446 -0.0341 -0.2069
22622OCT     C245244   3.332   9.729   4.639  0.0970 -0.0460 -0.2957
22623OCT     C145245  11.994  19.802   0.535  0.2630  0.1352 -0.2676
22623OCT     C245246  11.945  20.184   0.835 -0.0506  0.0629 -0.1793
22624OCT     C145247  17.006  19.642   4.533  0.0310 -0.1203  0.0831
22624OCT     C245248  17.089  19.202   4.437  0.2652  0.1227  0.2805
22625OCT     C145249  18.167  14.161  17.359  0.1637 -0.2475 -0.0350
22625OCT     C245250  18.187  14.341  16.930 -0.0986 -0.1587 -0.0147
22626OCT     C145251  11.232  12.885  12.513 -0.1398 -0.3126 -0.1776
22626OCT     C245252  10.889  12.698  12.789 -0.1633 -0.1623 -0.0873
22627OCT     C145253   0.261   1.175   4.044  0.0787  0.2826 -0.2363
22627OCT     C245254   0.115   0.702   3.976 -0.2421  0.0936  0.0509
22628OCT     C145255  18.356   8.736   4.032  0.1192 -0.1796 -0.0599
22628OCT     C245256  18.013   8.757   4.324 -0.0866  0.0035 -0.0885
22629OCT     C145257   1.005  16.671  21.108  0.2565 -0.1719  0.2549
22629OCT     C245258   1.324  16.963  21.200  0.0211 -0.0379 -0.1814
22630OCT     C145259  21.460   0.705   4.989 -0.1068  0.2280  0.1230
22630OCT     C245260  21.502   0.757   4.540  0.3084 -0.0049  0.0649
22631OCT     C145261  22.713   5.570  13.210 -0.2367 -0.1819 -0.2268
22631OCT     C245262  22.442   5.680  12.877  0.0474  0.1654 -0.0801
22632OCT     C145263  17.298   4.450   3.192  0.2571  0.0761 -0.1612
22632OCT     C245264  17.063   4.597   2.818 -0.0284 -0.2172 -0.0626
22633OCT     C145265   6.386   5.128  19.496  0.2286  0.0556  0.2962
22633OCT     C245266   6.744   4.899  19.299  0.2869  0.1138  0.1528
22634OCT     C145267  15.174  16.081  22.083  0.3867  0.1366  0.2098
22634OCT     C245268  15.527  15.955  21.727 -0.2731  0.2907 -0.0111
22635OCT     C145269  14.013  13.440  18.710  0.2453 -0.2499  0.1754
22635OCT     C245270  13.827  13.060  18.731  0.3044  0.2322  0.0452
22636OCT     C145271  23.295   5.275  12.520  0.1002  0.2034 -0.0364
22636OCT     C245272  23.011   4.906  12.615  0.0142 -0.1920  0.0440
22637OCT     C145273   9.442  15.150  19.401  0.0702 -0.1018  0.0025
22637OCT     C245274   9.132  15.027  19.075  0.2316 -0.0216 -0.0840
22638OCT     C145275   0.189  19.393  11.432  0.2490 -0.0734 -0.1365
22638OCT     C245276   0.056  18.946  11.204 -0.2135  0.0850 -0.2833
22639OCT     C145277   9.117  16.727   8.945  0.0856  0.1906 -0.4519
22639OCT     C245278   9.241  17.132   9.128  0.1547  0.0419 -0.1563
22640OCT     C145279  12.648  12.830   6.899  0.4107 -0.0468  0.6176
22640OCT     C245280  12.770  12.915   7.337  0.1685 -0.5462  0.3724
22641OCT     C145281   9.517   2.736   2.581  0.2618 -0.2356  0.2417
22641OCT     C245282   9.741   2.437   2.356  0.1925  0.3217 -0.2154
22642OCT     C145283  15.773  14.777  10.491  0.1618 -0.0167 -0.0991
22642OCT     C245284  15.580  14.391  10.746 -0.1603 -0.0834 -0.0804
22643OCT     C145285  19.397   3.184  22.337  0.0203 -0.3187 -0.1605
22643OCT     C245286  19.701   3.494  22.477  0.3954 -0.2454  0.1856
22644OCT     C145287   0.444  21.598  23.715 -0.1956  0.0563 -0.3509
22644OCT     C245288   0.862  21.486  23.597  0.1113  0.2301  0.1641
22645OCT     C145289  14.891  16.367   6.812 -0.0562 -0.0112  0.2016
22645OCT     C245290  14.907  16.853   7.024  0.3475  0.0628  0.2007
22646OCT     C145291   1.088   6.418  21.274  0.2440 -0.1545  0.0291
22646OCT     C245292   0.910   6.484  21.672 -0.1915  0.1070  0.0583
22647OCT     C145293  17.447  15.513   4.069  0.1236 -0.1677 -0.0313
22647OCT     C245294  17.324  15.774   4.448  0.3312 -0.1924  0.1415
22648OCT     C145295   4.809   8.346  14.392  0.0056  0.3068  0.1092
22648OCT     C245296   4.534   8.729  14.331  0.0729 -0.1218  0.0373
22649OCT     C145297  12.203   7.836   0.598  0.0246 -0.2025 -0.3383
22649OCT     C245298  12.153   7.577   0.273 -0.1077  0.2324  0.6782
22650OCT     C145299  22.299   2.563  18.977  0.0137  0.2130  0.1554
22650OCT     C245300  21.938   2.363  18.908 -0.3246  0.1023  0.0387
22651OCT     C145301  14.147  18.002   9.267 -0.0141  0.2985 -0.1288
22651OCT     C245302  14.418  17.742   9.535 -0.3561  0.0457  0.2115
22652OCT     C145303   2.603  16.210   2.657 -0.1155  0.0250  0.2190
22652OCT     C245304   2.596  16.314   3.179  0.0094 -0.1830 -0.4917
22653OCT     C145305   3.554   0.959  17.198 -0.0540 -0.1743 -0.1177
22653OCT     C245306   3.974   1.110  16.988 -0.2086  0.1240 -0.2237
22654OCT     C145307  13.321   2.290  12.294 -0.1491 -0.1322 -0.4070
22654OCT     C245308  13.169   2.056  11.953 -0.1649  0.1739 -0.2153
22655OCT     C145309   1.038  22.910   6.205  0.3295 -0.1575 -0.2227
22655OCT     C245310   1.417  22.988   5.960  0.1948  0.0970 -0.3020
22656OCT     C145311  13.504  19.303  15.887  0.3396 -0.0584 -0.0269
22656OCT     C245312  13.528  19.814  15.855  0.1305  0.3843 -0.0715
22657OCT     C145313  13.695  14.706  11.783  0.2012 -0.1232  0.0261
22657OCT     C245314  14.100  14.756  11.531  0.0211 -0.0494  0.0428
22658OCT     C145315  17.885  19.524   9.197 -0.2720  0.3317  0.2331
22658OCT     C245316  17.859  19.564   9.641  0.0560  0.2215 -0.0857
22659OCT     C145317  11.829  12.481   7.052 -0.0236 -0.1373 -0.1883
22659OCT     C245318  11.739  12.841   6.751 -0.1805 -0.4054  0.0335
22660OCT     C145319  10.248  18.356   5.333  0.0131  0.2536  0.0015
22660OCT     C245320  10.339  17.874   5.375  0.1092  0.2444 -0.1903
22661OCT     C145321   1.575  18.428   7.139 -0.2933 -0.1890  0.0675
22661OCT     C245322   1.470  18.754   7.404  0.1699 -0.2257  0.0650
22662OCT     C145323   6.892   1.449   5.428  0.0007 -0.2983  0.0473
22662OCT     C245324   6.966   1.723   5.853 -0.2987  0.0030 -0.1913
22663OCT     C145325  10.598  13.143   3.833 -0.0344  0.1516 -0.2478
22663OCT     C245326  11.097  13.217   3.694  0.0140 -0.2338 -0.2367
22664OCT     C145327   4.001   0.425   6.313  0.0010  0.1432 -0.0293
22664OCT     C245328   4.252   0.559   6.735  0.2561 -0.2332  0.0856
22665OCT     C145329   8.915   9.020   2.269  0.0452  0.0243 -0.2905
22665OCT     C245330   9.110   8.876   1.900 -0.2106 -0.0237  0.2794
22666OCT     C145331  19.202   9.564  19.174 -0.0853 -0.4328 -0.0747
22666OCT     C245332  19.625   9.665  19.000  0.0633  0.0095 -0.0520
22667OCT     C145333  19.449  12.248   9.106  0.0379 -0.0414 -0.3269
22667OCT     C245334  19.430  11.793   9.323 -0.0988 -0.0050 -0.1692
22668OCT     C145335   6.587   7.903  16.453 -0.3430 -0.2129  0.4506
22668OCT     C245336   6.264   7.793  16.093  0.5268 -0.0191 -0.1108
22669OCT     C145337  16.161   3.987   5.274 -0.2896  0.1020 -0.2078
22669OCT     C245338  15.718   3.878   5.216 -0.4398  0.1998 -0.2791
22670OCT     C145339   0.999   5.197   9.643  0.0715 -0.2207 -0.4104
22670OCT     C245340   1.254   4.815   9.515  0.0083  0.2829  0.0068
22671OCT     C145341   5.300  13.305   7.234  0.0815 -0.2728 -0.0035
22671OCT     C245342   4.887  13.342   7.067  0.0526  0.1925 -0.1247
22672OCT     C145343  15.423   5.961   0.040 -0.0215  0.0017 -0.1597
22672OCT     C245344  15.570   5.521  23.736  0.1598 -0.3222  0.1569
22673OCT     C145345  13.008  16.858   0.884 -0.0776 -0.0052 -0.0807
22673OCT     C245346  13.194  17.139   1.215  0.4962  0.2516 -0.0010
22674OCT     C145347   1.417   5.006  16.766 -0.0702 -0.2542  0.0772
22674OCT     C245348   1.110   5.318  16.674 -0.0102 -0.1837  0.0714
22675OCT     C145349  11.399  15.032   7.565  0.2665  0.1822 -0.1484
22675OCT     C245350  11.296  14.646   7.323  0.0633 -0.1158 -0.1314
22676OCT     C145351  10.308  12.445  11.600 -0.0368  0.0562 -0.1452
22676OCT     C245352  10.042  12.860  11.618  0.1105  0.1841  0.0335
22677OCT     C145353  14.399   7.452  22.013  0.0158 -0.2648  0.0838
22677OCT     C245354  14.721   7.551  22.420 -0.1691  0.3923 -0.2330
22678OCT     C145355  13.712  14.263  23.319 -0.1492 -0.3054 -0.3376
22678OCT     C245356  13.572  14.456  22.950  0.2748 -0.2746 -0.2786
22679OCT     C145357   5.475  11.967  16.944 -0.0173  0.2742 -0.1636
22679OCT     C245358   5.520  12.387  16.707 -0.0257 -0.1254 -0.3171
22680OCT     C145359   1.491   2.527  21.314  0.0224 -0.4069  0.0229
22680OCT     C245360   1.894   2.722  21.184  0.1524 -0.2788 -0.2916
22681OCT     C145361  11.002  21.211   4.771  0.0976  0.1357 -0.5138
22681OCT     C245362  11.325  20.948   4.545 -0.1079  0.1896 -0.1131
22682OCT     C145363   7.641   3.535  19.373  0.2233  0.1191  0.3537
22682OCT     C245364   7.363   3.266  19.126 -0.0779  0.0773  0.1438
22683OCT     C145365  21.201  20.308  21.610  0.0144 -0.3967 -0.0868
22683OCT     C245366  20.939  20.087  21.319  0.0251  0.0257 -0.0354
22684OCT     C145367   2.926  12.543  18.303 -0.0808 -0.2550 -0.2580
22684OCT     C245368   2.620  12.459  17.969  0.0640 -0.3954  0.0503
22685OCT     C145369   3.316  22.962   1.760  0.2249 -0.0181  0.0324
22685OCT     C245370   3.559  22.537   1.879 -0.0564 -0.4072 -0.1625
22686OCT     C145371  19.311  13.187  11.545 -0.5074 -0.3910 -0.0262
22686OCT     C245372  19.420  12.978  11.964 -0.0334 -0.2406 -0.2793
22687OCT     C145373  10.955  15.847  11.572  0.2562 -0.1281  0.0005
22687OCT     C245374  11.333  15.908  11.918 -0.1940  0.1507  0.1939
22688OCT     C145375   4.427   2.114  17.937 -0.0625 -0.2467 -0.3283
22688OCT     C245376   4.855   2.186  18.061  0.1040  0.2660  0.1640
22689OCT     C145377  20.787   9.407   2.715  0.4754  0.3354 -0.0612
22689OCT     C245378  20.522   9.232   3.077 -0.0277 -0.1387  0.1767
22690OCT     C145379   6.056  20.369  18.497  0.1415 -0.2664 -0.1555
22690OCT     C245380   6.021  20.838  18.598  0.1458  0.1659  0.3486
22691OCT     C145381  11.670  19.160  12.032  0.3652 -0.2349 -0.2334
22691OCT     C245382  11.284  19.196  12.307 -0.2384  0.2075  0.0979
22692OCT     C145383   8.141  20.410  20.039 -0.2104  0.0560 -0.2885
22692OCT     C245384   8.074  19.968  19.905 -0.1204  0.1904 -0.4799
22693OCT     C145385  19.653   1.070   8.385 -0.1146  0.0533  0.0505
22693OCT     C245386  19.143   1.078   8.310 -0.1426 -0.0588  0.3442
22694OCT     C145387  20.624  20.696  20.384 -0.3425  0.3988 -0.0027
22694OCT     C245388  20.607  20.518  20.810  0.0363  0.2017 -0.0297
22695OCT     C145389  23.207   3.094  23.581 -0.1256 -0.0825  0.2367
22695OCT     C245390  23.498   3.406  23.387 -0.1494 -0.1730  0.1561
22696OCT     C145391   1.847  20.887  10.946 -0.0189 -0.1797 -0.1419
22696OCT     C245392   2.188  20.492  11.076 -0.0852 -0.0671  0.1123
22697OCT     C145393   8.088  20.714  13.880  0.2348  0.1663  0.0518
22697OCT     C245394   8.335  20.926  13.538  0.1644 -0.3053  0.0493
22698OCT     C145395   8.666   9.048   7.678 -0.2155  0.1920 -0.1057
22698OCT     C245396   9.096   9.120   7.783  0.1537 -0.0825  0.0774
22699OCT     C145397  12.576  15.777  20.155 -0.1205 -0.6659  0.0572
22699OCT     C245398  12.375  15.605  19.777  0.0724 -0.2200 -0.0938
22700OCT     C145399  22.944  18.641   5.248  0.3054  0.2330 -0.3436
22700OCT     C245400  22.644  18.498   4.892 -0.0481 -0.4800 -0.0094
22701OCT     C145401   0.710  17.976   7.543  0.0648  0.2042  0.1084
22701OCT     C245402   0.332  17.748   7.314 -0.1284  0.0811 -0.0561
22702OCT     C145403   7.775   0.122  17.704 -0.4921  0.0102 -0.4088
22702OCT     C245404   8.082   0.005  17.406 -0.0829  0.0511  0.0124
22703OCT     C145405   4.817  21.208  16.083  0.0874 -0.2021 -0.0258
22703OCT     C245406   4.452  21.096  16.422 -0.3225 -0.0859 -0.2156
22704OCT     C145407  22.525  12.225   3.162  0.2687  0.2773 -0.0951
22704OCT     C245408  22.842  12.541   3.045 -0.1509 -0.0587  0.0200
22705OCT     C145409   7.022   9.438   8.020  0.2158 -0.0127  0.4136
22705OCT     C245410   7.342   9.819   8.018  0.3207 -0.0099 -0.1794
22706OCT     C145411  15.094   4.248  20.216  0.4463 -0.0268  0.1355
22706OCT     C245412  15.494   4.253  19.959 -0.0155 -0.3766  0.1178
22707OCT     C145413  22.313   4.079   7.454  0.1481  0.1305  0.0265
22707OCT     C245414  22.528   4.466   7.287 -0.2763  0.1578  0.2003
22708OCT     C145415  12.473  16.202  23.350 -0.0648 -0.2542 -0.0908
22708OCT     C245416  12.609  15.778  23.436  0.3340  0.0926 -0.2728
22709OCT     C145417  15.868   0.747  12.267  0.0623 -0.2981 -0.4152
22709OCT     C245418  15.525   0.535  12.561 -0.0631 -0.1166  0.3828
22710OCT     C145419  10.866  16.883   6.847  0.0126  0.1607  0.0770
22710OCT     C245420  11.233  16.698   6.653 -0.2149  0.3002 -0.0516
22711OCT     C145421  22.960  11.012   6.154  0.3817 -0.2189  0.1134
22711OCT     C245422  22.639  10.958   5.724  0.1839  0.2588 -0.2300
22712OCT     C145423   9.836  19.319   0.550 -0.3927 -0.4896 -0.1369
22712OCT     C245424   9.914  19.522   0.141  0.0598  0.0018  0.2060
22713OCT     C145425   1.075  11.410  16.284  0.4661 -0.1292 -0.0689
22713OCT     C245426   0.871  11.134  16.583 -0.0028  0.0798  0.0909
22714OCT     C145427   0.443  10.518  15.097  0.3481 -0.0176 -0.1389
22714OCT     C245428   0.293  10.270  14.722 -0.1160 -0.0117 -0.2008
22715OCT     C145429  11.708   7.250   1.301 -0.1075  0.1055 -0.0198
22715OCT     C245430  11.522   7.684   1.140 -0.1434  0.4125  0.0769
22716OCT     C145431  20.614   9.496  15.367  0.2172 -0.0251  0.2676
22716OCT     C245432  20.348   9.449  15.754 -0.1505  0.0941  0.1674
22717OCT     C145433  13.454   6.026  15.030  0.1164  0.1851 -0.1089
22717OCT     C245434  13.071   5.978  15.124 -0.1294 -0.1675 -0.2755
22718OCT     C145435  19.458  11.680  19.990  0.2082  0.0503 -0.0474
22718OCT     C245436  19.521  12.111  19.860  0.4447  0.2635  0.1207
22719OCT     C145437  10.080  23.120   4.776  0.0570  0.2954 -0.1561
22719OCT     C245438  10.124  23.157   4.336 -0.1255  0.1092 -0.0078
22720OCT     C145439  11.117   7.847   3.691 -0.0097 -0.1102 -0.3061
22720OCT     C245440  11.388   8.231   3.856  0.1354  0.1087 -0.1319
22721OCT     C145441  22.770   3.605   4.292 -0.1305 -0.0247  0.4792
22721OCT     C245442  22.794   4.033   4.474 -0.1826 -0.0140  0.0642
22722OCT     C145443  15.823   9.715  11.033 -0.0167 -0.2773  0.0785
22722OCT     C245444  15.458   9.833  11.326  0.3795 -0.4286 -0.0318
22723OCT     C145445  12.719   2.109   3.998  0.3385 -0.0121  0.2091
22723OCT     C245446  12.386   2.097   4.345  0.4010  0.1717  0.2629
22724OCT     C145447  16.839  22.466  19.588 -0.3405 -0.2798 -0.1232
22724OCT     C245448  16.579  22.238  19.907  0.3622  0.2652  0.0261
22725OCT     C145449   8.168  20.503   8.832 -0.0088 -0.1907  0.0007
22725OCT     C245450   8.592  20.238   8.836  0.1242  0.0638  0.3173
22726OCT     C145451  10.286   0.274   3.758  0.1367  0.1973  0.0411
22726OCT     C245452  10.108   0.231   3.334  0.2642  0.0944  0.2283
22727OCT     C145453  12.711   7.041  22.289 -0.0322 -0.1839  0.1961
22727OCT     C245454  13.038   6.755  22.489 -0.1766 -0.0005 -0.0830
22728OCT     C145455  15.234  15.882   0.793 -0.0411 -0.3534  0.2623
22728OCT     C245456  15.664  15.747   0.597  0.3285 -0.0813 -0.1681
22729OCT     C145457  18.523  19.198  18.714 -0.0756  0.1176  0.1297
22729OCT     C245458  18.463  18.928  19.062 -0.4612  0.3143  0.3132
22730OCT     C145459  23.641  11.999  16.663 -0.3377  0.2285  0.0840
22730OCT     C245460   0.231  11.652  16.567  0.3407  0.2954  0.1797
22731OCT     C145461  13.521   8.493   2.587  0.1427 -0.0282  0.3153
22731OCT     C245462  13.220   8.360   2.922 -0.1023  0.0262 -0.4067
22732OCT     C145463  14.210  20.858   0.873 -0.1389 -0.1756 -0.0211
22732OCT     C245464  13.760  20.879   0.747  0.2536  0.0006 -0.3974
22733OCT     C145465   3.073  23.528  20.655 -0.3759  0.2884 -0.4039
22733OCT     C245466   2.806  23.550  20.298  0.2351 -0.1864  0.4832
22734OCT     C145467  19.388  16.540  23.485  0.1806  0.2264 -0.0740
22734OCT     C245468  19.102  16.913  23.379 -0.0398 -0.1293  0.2469
22735OCT     C145469  16.900   1.184  23.598  0.4073  0.3432  0.3348
22735OCT     C245470  16.894   1.019   0.293  0.0650  0.0633  0.1249
22736OCT     C145471   1.492   9.053  16.820 -0.0758 -0.0838 -0.0638
22736OCT     C245472   1.782   8.686  16.773  0.0653  0.0104  0.1526
22737OCT     C145473   5.264  13.779  22.811  0.1307  0.0862  0.3151
22737OCT     C245474   4.776  13.725  22.631 -0.1232  0.0893 -0.2796
22738OCT     C145475  14.799  22.596  12.988  0.1642  0.2321 -0.2063
22738OCT     C245476  14.754  22.871  12.687 -0.0337 -0.1947  0.0472
22739OCT     C145477  21.761   4.201  18.658  0.1649 -0.1915  0.0535
22739OCT     C245478  21.386   4.463  18.602  0.1505 -0.2377 -0.0688
22740OCT     C145479   1.874  22.001  16.549  0.0379 -0.1775 -0.3562
22740OCT     C245480   1.466  22.153  16.610 -0.1612  0.2524  0.1289
22741OCT     C145481   3.986   8.378   4.907 -0.2853 -0.2483  0.0062
22741OCT     C245482   3.596   8.608   5.047  0.2651  0.1654 -0.1320
22742OCT     C145483  17.592  20.505   3.191  0.1300  0.0473 -0.0083
22742OCT     C245484  17.191  20.401   3.084  0.1929  0.0132  0.1291
22743OCT     C145485   8.861  11.041  11.508 -0.2032 -0.2787 -0.2548
22743OCT     C245486   9.234  10.916  11.256  0.2629  0.3387  0.2205
22744OCT     C145487   8.560  14.277   3.798  0.0440  0.0948 -0.1421
22744OCT     C245488   8.855  14.197   3.500 -0.3450  0.0987  0.1264
22745OCT     C145489  20.294  10.934  15.872 -0.4073 -0.0758 -0.3809
22745OCT     C245490  19.982  11.206  15.665 -0.0586 -0.2044  0.0683
22746OCT     C145491  12.996   8.177  23.355 -0.0346 -0.1629  0.0339
22746OCT     C245492  12.625   8.452  23.159  0.0717  0.0109 -0.2730
22747OCT     C145493  11.417   2.429   8.155 -0.1435  0.0452  0.1730
22747OCT     C245494  11.304   2.910   8.246  0.1378 -0.0902  0.1440
22748OCT     C145495   7.376  20.133  22.465 -0.2357  0.0226  0.0226
22748OCT     C245496   7.713  20.462  22.541  0.2346  0.1693  0.2522
22749OCT     C145497  12.717  17.687   5.400  0.1506 -0.0358  0.0573
22749OCT     C245498  12.402  17.648   5.742  0.2662  0.1134 -0.0129
22750OCT     C145499  22.467   8.884   9.490  0.2086  0.0833  0.0203
22750OCT     C245500  22.516   8.537   9.163 -0.0593  0.0905 -0.0248
22751OCT     C145501   6.993  11.641  23.107 -0.1535 -0.2211 -0.1683
22751OCT     C245502   6.894  12.086  22.926 -0.1802 -0.3084  0.1344
22752OCT     C145503  20.862   6.663  14.973  0.0574 -0.0806  0.2300
22752OCT     C245504  21.213   6.353  14.901  0.0207 -0.1400 -0.3947
22753OCT     C145505   9.413   9.490  10.338 -0.3407  0.0119 -0.0413
22753OCT     C245506   9.052   9.588  10.666 -0.1954  0.1078  0.2081
22754OCT     C145507  16.629  20.019   4.538 -0.0932  0.0693  0.1236
22754OCT     C245508  16.386  19.651   4.851 -0.0271 -0.2994 -0.1893
22755OCT     C145509   3.515  19.769   0.821 -0.2917 -0.1228 -0.1009
22755OCT     C245510   3.520  20.177   1.065  0.1412  0.4637 -0.0812
22756OCT     C145511   8.999   0.036  18.546 -0.1400  0.1370 -0.0076
22756OCT     C245512   8.536  23.722  18.631 -0.2103 -0.2092 -0.2648
22757OCT     C145513  19.259   9.432  20.912  0.4583 -0.2041 -0.1510
22757OCT     C245514  18.955   9.277  21.207  0.0602 -0.1431  0.3520
22758OCT     C145515   0.896  10.350  22.928  0.3094 -0.0388  0.2267
22758OCT     C245516   0.981  10.193  22.512 -0.3353 -0.3404  0.0102
22759OCT     C145517   6.226  17.730  18.901 -0.2033  0.0864 -0.1765
22759OCT     C245518   6.217  18.058  18.634 -0.0369 -0.1837 -0.3954
22760OCT     C145519  22.849  13.920  15.323 -0.1600  0.0436  0.0233
22760OCT     C245520  22.426  13.997  15.109  0.2335 -0.1831 -0.1886
22761OCT     C145521  19.718  15.475  15.358 -0.0176  0.0451  0.1113
22761OCT     C245522  19.873  15.801  15.064 -0.1106  0.1310 -0.0600
22762OCT     C145523   1.938   9.948   9.493 -0.1630  0.1156 -0.5093
22762OCT     C245524   2.135   9.795   9.054  0.4117  0.0589 -0.0168
22763OCT     C145525   1.953   9.906  15.684  0.2276 -0.1771  0.1111
22763OCT     C245526   2.410  10.008  15.713  0.3415 -0.3014 -0.2305
22764OCT     C145527  14.583   0.094  20.761 -0.1870 -0.1172  0.0282
22764OCT     C245528  14.848   0.327  20.428 -0.2664 -0.2504 -0.0525
22765OCT     C145529  19.610  15.367   9.486 -0.0042 -0.0917 -0.1577
22765OCT     C245530  19.607  15.040   9.818  0.1768 -0.0556 -0.2684
22766OCT     C145531  23.666   8.609   9.825  0.1323 -0.1560  0.0071
22766OCT     C245532  23.362   8.727   9.470  0.0078 -0.0484 -0.0871
22767OCT     C145533  14.577  17.492  16.777  0.0975 -0.0521 -0.0347
22767OCT     C245534  14.798  17.754  16.511 -0.0332 -0.3682 -0.2391
22768OCT     C145535  15.644   0.954   1.795 -0.0511  0.1271 -0.1048
22768OCT     C245536  15.863   0.563   1.570 -0.0191 -0.0082 -0.0665
22769OCT     C145537  17.984   5.311  23.581 -0.2408 -0.1248 -0.2543
22769OCT     C245538  18.254   5.454  23.231 -0.1700 -0.3061 -0.2645
22770OCT     C145539  21.275   1.853  23.527 -0.2398 -0.0302 -0.1651
22770OCT     C245540  21.222   2.196   0.102 -0.0372 -0.2531  0.0771
22771OCT     C145541   3.769  11.453   7.659 -0.3275  0.1539  0.0123
22771OCT     C245542   3.570  11.643   7.283  0.0045 -0.0561  0.1640
22772OCT     C145543  13.087   2.273   0.625  0.0303  0.0964  0.6003
22772OCT     C245544  13.425   2.279   0.941 -0.1005 -0.0560  0.5881
22773OCT     C145545  11.121  18.539   2.514 -0.0769 -0.4418 -0.0538
22773OCT     C245546  10.965  18.121   2.331 -0.0116 -0.1675  0.1886
22774OCT     C145547   8.835  17.897   2.664  0.1803 -0.0484 -0.0459
22774OCT     C245548   8.517  18.030   2.990 -0.2717  0.1588  0.0370
22775OCT     C145549  16.820   5.515   3.061  0.0168  0.0857  0.0141
22775OCT     C245550  16.788   5.906   3.308 -0.2306  0.3866 -0.2738
22776OCT     C145551  12.422  15.871   8.739 -0.0002  0.2881  0.0229
22776OCT     C245552  12.240  15.976   9.211 -0.3556  0.0951  0.4267
22777OCT     C145553  16.043  23.519  23.223 -0.0532 -0.0879  0.2635
22777OCT     C245554  15.643  23.547  23.486 -0.2294  0.0803 -0.3397
22778OCT     C145555  23.645  19.322   0.452  0.3629  0.3056  0.0019
22778OCT     C245556   0.341  19.322   0.586  0.3531  0.0880  0.4300
22779OCT     C145557  14.383   5.863  21.674  0.0076  0.0515  0.1140
22779OCT     C245558  14.608   5.770  21.302 -0.1945  0.1039 -0.0196
22780OCT     C145559  21.992  17.378   3.819  0.0299 -0.0609  0.0574
22780OCT     C245560  21.981  17.853   3.894 -0.3601 -0.2142 -0.0713
22781OCT     C145561   3.404   0.963   2.296  0.0103 -0.1380 -0.4022
22781OCT     C245562   3.623   1.215   1.987  0.1336 -0.0533 -0.0168
22782OCT     C145563  12.292   7.691   7.006  0.2382  0.1084 -0.0124
22782OCT     C245564  12.743   7.521   7.033  0.2731 -0.0638  0.1291
22783OCT     C145565   0.778   0.705   1.316  0.0659  0.2220  0.3012
22783OCT     C245566   0.674   1.118   1.425 -0.0358 -0.3643 -0.1346
22784OCT     C145567   0.180   1.253   7.153 -0.1292  0.2332  0.2742
22784OCT     C245568   0.136   1.621   6.836  0.0271  0.0265  0.0401
22785OCT     C145569   2.798   4.274   9.084 -0.2326  0.1767 -0.0424
22785OCT     C245570   3.191   4.041   9.048  0.5644 -0.2885  0.0848
22786OCT     C145571  18.230   9.977   7.607  0.2418 -0.1136 -0.0838
22786OCT     C245572  18.268   9.628   7.262 -0.1616 -0.1211 -0.0078
22787OCT     C145573   4.037  23.345  23.271  0.0961  0.0805 -0.0622
22787OCT     C245574   4.349  22.979  23.278 -0.3477 -0.0261  0.4175
22788OCT     C145575  19.811  11.601   5.629  0.0536 -0.0440  0.1268
22788OCT     C245576  19.853  11.293   5.294 -0.0774  0.0855  0.0047
22789OCT     C145577   5.372   4.624   0.338  0.0095 -0.0301  0.1207
22789OCT     C245578   5.458   5.030   0.127  0.1774 -0.1443  0.0504
22790OCT     C145579   4.835  19.450  17.647  0.2917 -0.1719  0.3463
22790OCT     C245580   5.218  19.185  17.630  0.2549  0.0010  0.2975
22791OCT     C145581   3.789  19.041  22.620  0.1681 -0.1732  0.0573
22791OCT     C245582   3.837  19.394  22.939 -0.2211 -0.2045  0.0677
22792OCT     C145583   3.234   2.392  14.265  0.4516 -0.1247 -0.1580
22792OCT     C245584   2.969   2.118  14.533  0.1444  0.1057 -0.3049
22793OCT     C145585   2.909   1.445   1.583  0.1683  0.1776  0.0458
22793OCT     C245586   3.010   1.825   1.483 -0.0418  0.3016  0.3405
22794OCT     C145587  17.289   7.604   6.827 -0.3376  0.0531 -0.0881
22794OCT     C245588  17.523   7.362   6.502 -0.2167 -0.4045  0.2155
22795OCT     C145589  11.886   4.229   7.398  0.2487  0.1640 -0.4143
22795OCT     C245590  11.535   4.275   7.686  0.2527 -0.2651 -0.1730
22796OCT     C145591  17.157   6.082   2.091 -0.2038  0.0088  0.0610
22796OCT     C245592  17.410   6.042   2.528  0.2588 -0.2043 -0.1953
22797OCT     C145593   5.794   5.957  13.389  0.1864  0.0358 -0.0459
22797OCT     C245594   6.151   5.781  13.599 -0.3102  0.3391 -0.0264
22798OCT     C145595  13.560   2.918   9.936 -0.3161  0.1953 -0.0977
22798OCT     C245596  13.099   3.015   9.986 -0.1056  0.3823  0.2673
22799OCT     C145597  20.693   7.135   6.168 -0.3873  0.1862  0.0582
22799OCT     C245598  21.060   7.442   6.153  0.2379 -0.2828  0.1587
22800OCT     C145599  10.613  16.754  21.198 -0.1525 -0.1073 -0.3410
22800OCT     C245600  10.525  16.861  20.720  0.0253  0.1833  0.6191
22801OCT     C145601   4.736  17.918   2.531  0.0220  0.5431  0.0572
22801OCT     C245602   4.476  18.102   2.814  0.1834  0.0266 -0.1429
22802OCT     C145603   0.022   9.227  21.815  0.2944  0.1197  0.2643
22802OCT     C245604   0.128   9.489  22.145 -0.0522 -0.2909  0.1549
22803OCT     C145605   8.137   2.918  14.074  0.0748 -0.1408 -0.2024
22803OCT     C245606   8.399   2.716  13.682  0.0714 -0.1096  0.2858
22804OCT     C145607  10.950   5.450   2.385  0.0281 -0.0503  0.3370
22804OCT     C245608  11.251   5.214   2.645  0.0753 -0.1156 -0.2637
22805OCT     C145609   2.152  21.405  11.866  0.2173  0.1092 -0.1888
22805OCT     C245610   1.803  21.469  12.161 -0.0496  0.3240 -0.3231
22806OCT     C145611   9.666   1.730   8.346 -0.1171 -0.2264  0.1068
22806OCT     C245612   9.441   2.126   8.410  0.0929  0.1337  0.2234
22807OCT     C145613  12.613  18.889   6.490  0.2277 -0.0180  0.1461
22807OCT     C245614  12.888  18.902   6.111  0.1191 -0.4900  0.0788
22808OCT     C145615  18.144  23.246  16.987  0.0171  0.1599  0.4314
22808OCT     C245616  18.348  23.580  17.241 -0.0508  0.0014 -0.0496
22809OCT     C145617  16.375   4.718   6.186  0.0907 -0.0837 -0.1898
22809OCT     C245618  16.249   4.265   6.135 -0.0826  0.1880  0.4668
22810OCT     C145619  17.779  11.981   7.330 -0.3212 -0.2271  0.3356
22810OCT     C245620  17.555  11.877   6.947  0.0166 -0.0299 -0.4627
22811OCT     C145621   3.722   9.342   1.822  0.2684  0.0933 -0.0690
22811OCT     C245622   3.857   9.591   1.454  0.3332  0.1894 -0.1413
22812OCT     C145623  19.119   9.099  21.778  0.0055 -0.3104 -0.1093
22812OCT     C245624  19.537   9.082  21.585  0.1318  0.0875  0.3048
22813OCT     C145625  22.563  10.399  22.390  0.0488  0.0010  0.5066
22813OCT     C245626  22.497   9.968  22.205 -0.0868  0.2086  0.2330
22814OCT     C145627  23.713   2.943   3.077  0.1607 -0.5775 -0.0443
22814OCT     C245628   0.098   3.197   3.467 -0.0894  0.3051 -0.0111
22815OCT     C145629  21.427   2.704  18.218  0.0802 -0.1199  0.0667
22815OCT     C245630  21.504   2.444  18.604 -0.0157 -0.1515 -0.1485
22816OCT     C145631   3.636  21.835  17.869  0.0041  0.4448  0.3579
22816OCT     C245632   3.423  22.046  17.505 -0.4086 -0.1258  0.0432
22817OCT     C145633   1.564  15.284  21.969 -0.1199  0.1103  0.0993
22817OCT     C245634   1.528  15.618  21.641 -0.0445 -0.4460  0.1219
22818OCT     C145635   8.645  14.753  13.162  0.3222 -0.4823  0.3047
22818OCT     C245636   8.464  15.160  12.963  0.1939  0.0082  0.0325
22819OCT     C145637  19.913  12.278   4.223  0.0879  0.0722  0.1074
22819OCT     C245638  19.497  12.127   4.242 -0.0540 -0.0696  0.0561
22820OCT     C145639  20.293  15.625  16.388  0.0582 -0.0209 -0.2770
22820OCT     C245640  20.557  15.386  16.705 -0.0909  0.2701  0.1971
22821OCT     C145641   3.734  18.134   0.085  0.1567  0.2753 -0.1088
22821OCT     C245642   3.691  17.948   0.551  0.1009  0.0521 -0.0650
22822OCT     C145643   8.575  11.238   4.061 -0.2317  0.3102  0.2011
22822OCT     C245644   8.597  10.828   3.785 -0.1438  0.1776 -0.4212
22823OCT     C145645  17.510   6.399  11.477 -0.0080 -0.2822 -0.2171
22823OCT     C245646  17.423   6.239  11.015  0.3238 -0.2770 -0.3426
22824OCT     C145647   6.425  10.400  12.950 -0.2160  0.0174  0.0006
22824OCT     C245648   6.542  10.544  13.354  0.2861  0.0456  0.0712
22825OCT     C145649   3.936  14.790  12.652 -0.5341  0.2309  0.0981
22825OCT     C245650   3.593  14.550  12.487 -0.2170 -0.3122 -0.0977
22826OCT     C145651  11.633  15.359   5.691 -0.1585 -0.2946  0.2812
22826OCT     C245652  11.777  15.188   6.092  0.2644 -0.3270 -0.2870
22827OCT     C145653  18.380   8.963  17.462 -0.2439 -0.0599 -0.4302
22827OCT     C245654  18.433   9.464  17.444  0.1149 -0.0519 -0.2886
22828OCT     C145655   1.259   7.860   3.035  0.2730 -0.2316  0.0487
22828OCT     C245656   1.680   7.693   3.041  0.0880 -0.0310  0.0765
22829OCT     C145657  15.708  11.747  15.105 -0.2341 -0.0503 -0.0737
22829OCT     C245658  15.736  11.688  15.531  0.2088  0.0536 -0.1235
22830OCT     C145659  19.801  18.606   9.337 -0.2995 -0.0682  0.1912
22830OCT     C245660  20.204  18.491   9.517 -0.0395  0.1458 -0.4326
22831OCT     C145661   4.775   1.641   2.604 -0.2400 -0.2251 -0.1571
22831OCT     C245662   4.637   1.521   2.111 -0.3734 -0.1895 -0.4069
22832OCT     C145663   5.079   3.528  22.298 -0.1477 -0.1150 -0.0708
22832OCT     C245664   5.119   3.986  22.346  0.3298  0.0054  0.2005
22833OCT     C145665   0.485   9.374   2.129 -0.2682  0.3607 -0.0978
22833OCT     C245666   0.062   9.236   2.076  0.1435  0.1723  0.0377
22834OCT     C145667  13.988   2.692  14.068  0.0248 -0.1477 -0.1441
22834OCT     C245668  13.542   2.670  14.207  0.1007 -0.1155  0.0001
22835OCT     C145669  17.900  17.099  13.353 -0.4078  0.3510  0.1791
22835OCT     C245670  17.786  17.215  13.763 -0.1343 -0.4679 -0.1821
22836OCT     C145671  20.702  14.446  10.322 -0.2214 -0.0493  0.0011
22836OCT     C245672  20.964  14.251  10.667 -0.2415 -0.3678 -0.1801
22837OCT     C145673   0.188  23.157   1.201  0.0803  0.2809  0.2819
22837OCT     C245674  23.723  23.610   1.231  0.0873  0.0332  0.1055
22838OCT     C145675   3.636  15.303  21.823  0.0920  0.0164  0.0994
22838OCT     C245676   3.993  15.612  21.782  0.2897  0.2262  0.1757
22839OCT     C145677   5.048   5.029   2.186  0.0740 -0.1601 -0.1343
22839OCT     C245678   5.022   4.735   1.819 -0.1669  0.0560 -0.3171
22840OCT     C145679  13.864   9.827  10.659  0.1952  0.1456 -0.2023
22840OCT     C245680  14.011  10.074  11.052 -0.0813  0.0709  0.3116
22841OCT     C145681  17.208   9.726   5.899  0.1847 -0.0641  0.4085
22841OCT     C245682  17.200   9.311   5.709  0.0507  0.1195 -0.0642
22842OCT     C145683   5.519  22.893  16.461  0.3317 -0.1478 -0.1546
22842OCT     C245684   5.905  23.053  16.252 -0.3066  0.0014  0.2727
22843OCT     C145685   1.071   0.306  23.624  0.4003  0.0699  0.2618
22843OCT     C245686   0.659   0.454  23.388 -0.1397  0.2035  0.1832
22844OCT     C145687  22.720   5.646   1.995  0.1594 -0.2952 -0.1229
22844OCT     C245688  22.470   5.775   2.367 -0.2589 -0.3306 -0.4158
22845OCT     C145689  21.925   9.632  11.390 -0.2545 -0.0847  0.0383
22845OCT     C245690  21.611   9.549  11.723 -0.0787  0.0374 -0.1153
22846OCT     C145691   9.514  13.417   4.277 -0.0775 -0.2969  0.2222
22846OCT     C245692   9.232  13.095   3.996 -0.2288  0.2995 -0.2279
22847OCT     C145693  19.876   9.248   6.474  0.2873 -0.1783 -0.2269
22847OCT     C245694  19.611   9.541   6.755 -0.0838 -0.0750  0.0203
22848OCT     C145695   3.833  19.025   2.400  0.2130  0.3474  0.1609
22848OCT     C245696   4.287  18.996   2.386 -0.0619 -0.2495 -0.1096
22849OCT     C145697   4.557  15.900   8.711 -0.1254  0.2647 -0.2289
22849OCT     C245698   4.398  15.644   9.085 -0.0114  0.0436  0.2759
22850OCT     C145699  20.921   2.764   5.986 -0.0185 -0.0377 -0.0598
22850OCT     C245700  21.091   3.212   6.097  0.1826  0.1353 -0.0802
22851OCT     C145701   4.968  19.492  23.584  0.1484 -0.0444  0.0412
22851OCT     C245702   4.955  19.515  23.118  0.0859  0.2722 -0.0842
22852OCT     C145703   6.309  17.831   8.135 -0.0917  0.0030 -0.0744
22852OCT     C245704   6.175  17.851   8.636 -0.0516 -0.4251 -0.0320
22853OCT     C145705  14.421   4.416  16.969 -0.0468 -0.0639  0.0309
22853OCT     C245706  14.699   4.205  17.263 -0.3336 -0.0772 -0.1057
22854OCT     C145707  12.266  15.624   0.084 -0.2058 -0.1254 -0.0399
22854OCT     C245708  12.523  15.213   0.289  0.0411  0.2620  0.0990
22855OCT     C145709   6.157  12.830  17.343  0.2372 -0.2101 -0.0480
22855OCT     C245710   6.135  12.647  17.784 -0.0441 -0.2312 -0.0027
22856OCT     C145711  17.364  18.751  13.662 -0.2840  0.0443 -0.1549
22856OCT     C245712  17.235  19.178  13.508  0.0727 -0.2113  0.3399
22857OCT     C145713  21.026   7.910  16.599 -0.1250 -0.3666  0.3217
22857OCT     C245714  21.387   8.128  16.516  0.0437  0.3570 -0.0927
22858OCT     C145715   4.376   2.807  22.710 -0.1802  0.1658 -0.0564
22858OCT     C245716   4.475   2.663  23.093  0.1332  0.0763  0.0810
22859OCT     C145717  23.703  19.626   5.456  0.0359 -0.2534 -0.2890
22859OCT     C245718  23.687  19.360   5.054 -0.1077  0.1581 -0.1295
22860OCT     C145719   8.381  11.192  12.845  0.1214 -0.3478  0.0802
22860OCT     C245720   8.852  11.312  12.752 -0.4271 -0.0647  0.1468
22861OCT     C145721   2.550   5.896   9.312 -0.2217  0.2576 -0.0991
22861OCT     C245722   2.514   5.727   8.866  0.3667 -0.0272 -0.4976
22862OCT     C145723   1.061   9.856   0.015 -0.2499  0.0244 -0.2823
22862OCT     C245724   1.008   9.406   0.119  0.0879 -0.2975 -0.0540
22863OCT     C145725   5.673  16.944  19.593 -0.2075  0.3202 -0.3476
22863OCT     C245726   5.996  17.119  19.313  0.0803  0.0007 -0.0570
22864OCT     C145727   6.952   4.416  19.769  0.0101 -0.2776  0.1968
22864OCT     C245728   6.794   4.504  20.253  0.2974  0.1611  0.1118
22865OCT     C145729  22.087  15.404  13.059  0.0108 -0.1354  0.1919
22865OCT     C245730  22.147  14.969  12.884 -0.0712  0.0815 -0.0808
22866OCT     C145731   8.098   4.012  23.272  0.0176 -0.0715 -0.1807
22866OCT     C245732   8.017   3.768  23.710 -0.3587 -0.2112 -0.1375
22867OCT     C145733  14.942  15.605  18.341 -0.2682 -0.0067 -0.0347
22867OCT     C245734  14.479  15.630  18.187  0.2404  0.0352 -0.0018
22868OCT     C145735  19.646  14.457  15.262 -0.1592  0.5259 -0.3807
22868OCT     C245736  19.204  14.589  15.397 -0.1073  0.3209  0.2208
22869OCT     C145737   0.087  16.844   1.317  0.3278 -0.0440 -0.0673
22869OCT     C245738  23.461  17.042   1.434  0.1784  0.1141  0.2241
22870OCT     C145739  12.274   4.118   2.558  0.1118 -0.2038  0.0218
22870OCT     C245740  11.927   3.906   2.841 -0.0063  0.1163  0.0773
22871OCT     C145741   9.835   1.904  20.157 -0.3625  0.1519 -0.1846
22871OCT     C245742   9.619   1.599  20.404  0.1181  0.3595  0.1542
22872OCT     C145743  23.411   6.041  12.178 -0.2148  0.3238  0.0581
22872OCT     C245744  23.152   5.606  12.208  0.0702 -0.2431  0.4916
22873OCT     C145745   4.068   3.152  18.672 -0.1077  0.2445 -0.0614
22873OCT     C245746   4.026   3.571  18.658  0.3337  0.1050  0.1422
22874OCT     C145747   6.090   3.138   6.678 -0.0175 -0.0701  0.1312
22874OCT     C245748   5.970   3.387   7.081  0.0131 -0.0628 -0.1023
22875OCT     C145749  17.967  18.996  11.559  0.3042 -0.1963  0.0924
22875OCT     C245750  17.854  18.636  11.220 -0.3484  0.0888 -0.0046
22876OCT     C145751   3.954  10.898   9.507  0.2202 -0.1762  0.3769
22876OCT     C245752   4.355  11.208   9.370  0.0451 -0.2421  0.1772
22877OCT     C145753   2.005  15.247  22.561 -0.1604  0.0943  0.3284
22877OCT     C245754   2.118  15.659  22.604 -0.2155 -0.1198 -0.3205
22878OCT     C145755  21.383   1.807  10.637 -0.3866 -0.2526  0.4514
22878OCT     C245756  21.522   1.773  11.084 -0.0659  0.0891 -0.1747
22879OCT     C145757  16.585   9.700   3.648  0.2276 -0.4643  0.0086
22879OCT     C245758  16.152   9.507   3.678  0.0421 -0.2084  0.2292
22880OCT     C145759   3.102  17.872   7.929  0.1955  0.0356  0.1025
22880OCT     C245760   3.461  17.621   7.755 -0.3682 -0.0178 -0.3442
22881OCT     C145761   7.972  16.985   3.908 -0.0705  0.2061 -0.0102
22881OCT     C245762   7.675  17.098   4.243 -0.3088 -0.0224 -0.1391
22882OCT     C145763   4.123   7.740   5.973  0.1387 -0.0764 -0.3155
22882OCT     C245764   3.674   7.944   5.990 -0.1515  0.0268 -0.1696
22883OCT     C145765  18.539  15.962  20.438  0.3017  0.0998  0.1395
22883OCT     C245766  18.464  15.859  19.988  0.1720 -0.4305  0.2911
22884OCT     C145767  19.141   3.238  20.368  0.0581  0.3499 -0.1641
22884OCT     C245768  19.275   2.800  20.244  0.0416 -0.1311  0.2710
22885OCT     C145769  14.065  16.539   8.586  0.1589  0.0659  0.2514
22885OCT     C245770  14.138  16.876   8.245 -0.3495  0.1315 -0.0102
22886OCT     C145771  11.106   4.844   2.110 -0.1167 -0.0677 -0.0582
22886OCT     C245772  11.183   4.506   1.760  0.0668 -0.0450 -0.0534
22887OCT     C145773   4.511   1.565  13.909 -0.3526  0.1149 -0.1944
22887OCT     C245774   4.147   1.872  13.881  0.0017  0.2576 -0.2686
22888OCT     C145775   4.271  18.202  12.599 -0.0998 -0.1897 -0.1811
22888OCT     C245776   4.612  18.103  12.293 -0.0075  0.1007 -0.4186
22889OCT     C145777   8.438  18.062  16.690  0.1040 -0.1562  0.0345
22889OCT     C245778   8.383  18.301  16.275  0.0342 -0.0664  0.3840
22890OCT     C145779  22.214   6.464  13.108  0.2984  0.3463 -0.0530
22890OCT     C245780  22.135   6.880  12.935 -0.3813  0.1528  0.1374
22891OCT     C145781  18.316  14.824   4.138  0.1188  0.2021  0.1059
22891OCT     C245782  18.019  14.477   4.118  0.0271 -0.1376 -0.2420
22892OCT     C145783  11.390   7.442   8.991  0.2261 -0.3230  0.0435
22892OCT     C245784  11.483   7.382   9.437  0.1254  0.0606 -0.3276
22893OCT     C145785   6.034  20.358  17.141 -0.1734 -0.4267 -0.0440
22893OCT     C245786   6.264  20.713  17.393 -0.0367 -0.4685 -0.4624
22894OCT     C145787  19.785  14.462  13.377 -0.2376  0.0509  0.4260
22894OCT     C245788  19.384  14.250  13.246 -0.0697 -0.0591  0.0154
22895OCT     C145789  10.166  15.414  15.936 -0.0741 -0.1366  0.1279
22895OCT     C245790   9.806  15.250  16.225  0.2986 -0.0025 -0.1298
22896OCT     C145791   3.817  12.621   9.139 -0.0509  0.0244  0.2332
22896OCT     C245792   3.790  12.716   8.659 -0.0721 -0.2057  0.1124
22897OCT     C145793  17.322   1.239   0.966 -0.1754 -0.2317 -0.3731
22897OCT     C245794  17.713   0.971   0.838 -0.4474 -0.1340  0.1130
22898OCT     C145795   8.970  19.995   2.397 -0.1752 -0.0749 -0.0258
22898OCT     C245796   9.070  19.775   2.789 -0.0753  0.3283  0.1688
22899OCT     C145797  16.669   4.980   2.091 -0.2360  0.0546  0.1736
22899OCT     C245798  16.396   4.859   1.661  0.3204  0.1185  0.0656
22900OCT     C145799  12.724   4.097  10.818 -0.2620  0.2672 -0.1162
22900OCT     C245800  13.022   4.128  10.447 -0.1560  0.0074 -0.0680
22901OCT     C145801  14.299   4.402  13.401 -0.2159 -0.5038  0.1394
22901OCT     C245802  13.875   4.283  13.461  0.2172  0.2393  0.2880
22902OCT     C145803  12.359  17.133  17.990  0.1903  0.1349  0.4653
22902OCT     C245804  12.676  17.346  17.773 -0.1490 -0.0597 -0.0843
22903OCT     C145805  21.135  18.352  12.606  0.3200  0.0229  0.0716
22903OCT     C245806  21.372  18.610  12.235  0.2980  0.0214  0.2552
22904OCT     C145807   0.755  23.288  23.117 -0.0478 -0.1938  0.0566
22904OCT     C245808   1.203  23.418  23.085  0.6042 -0.0479  0.0535
22905OCT     C145809  16.818   3.480   5.043 -0.0423 -0.0022 -0.1721
22905OCT     C245810  17.271   3.585   5.001 -0.0685 -0.0478 -0.2584
22906OCT     C145811  21.149   2.097   8.927 -0.1660 -0.1736 -0.0096
22906OCT     C245812  21.171   1.619   9.042  0.2825  0.2641 -0.3686
22907OCT     C145813   5.922  19.870  17.290 -0.0625 -0.0455 -0.4032
22907OCT     C245814   5.539  20.166  17.241  0.0349  0.0831 -0.1856
22908OCT     C145815  22.539   7.079   6.506 -0.4139  0.5517 -0.1629
22908OCT     C245816  22.999   7.098   6.415 -0.3761 -0.3788  0.2359
22909OCT     C145817   4.056  13.941  11.555 -0.0393 -0.1220 -0.0405
22909OCT     C245818   4.453  13.805  11.706  0.0326  0.0188  0.2384
22910OCT     C145819   1.198  13.618   0.602 -0.5716 -0.1087 -0.0444
22910OCT     C245820   1.565  13.297   0.590  0.0146 -0.1180  0.1839
22911OCT     C145821  10.313   1.160  18.406 -0.4953 -0.4213 -0.1514
22911OCT     C245822   9.859   1.232  18.431 -0.3029 -0.2062  0.0407
22912OCT     C145823   4.039   7.412  12.777 -0.2437  0.0187 -0.0174
22912OCT     C245824   4.396   7.249  13.047 -0.1867  0.2871 -0.0983
22913OCT     C145825  20.717   1.088  22.289  0.2730  0.2400 -0.1599
22913OCT     C245826  20.367   1.328  22.054 -0.0378 -0.1164  0.0979
22914OCT     C145827  23.725   5.667  18.787 -0.2732 -0.1503  0.1646
22914OCT     C245828   0.091   5.683  18.306 -0.0355  0.0100 -0.1553
22915OCT     C145829  21.493  17.655  19.371 -0.1299  0.1755  0.3062
22915OCT     C245830  21.499  17.541  19.843 -0.1122  0.1800  0.4972
22916OCT     C145831   2.410  14.163   2.580 -0.0407 -0.2138  0.0580
22916OCT     C245832   2.266  14.535   2.356  0.0011  0.0477  0.2642
22917OCT     C145833   3.419   5.124  21.274  0.0034 -0.0920  0.0626
22917OCT     C245834   3.688   5.044  20.835  0.3429 -0.2186 -0.2122
22918OCT     C145835   7.401  21.228  21.720 -0.1469  0.0111 -0.0788
22918OCT     C245836   7.145  21.475  21.955  0.1202  0.2771  0.0965
22919OCT     C145837  22.372   9.800  16.296 -0.2270  0.0283 -0.4776
22919OCT     C245838  22.364   9.741  16.803 -0.1410  0.2380  0.0801
22920OCT     C145839   7.479  21.440  11.310 -0.5665  0.1799 -0.3251
22920OCT     C245840   7.787  21.135  11.516 -0.0840 -0.0954 -0.0937
22921OCT     C145841   0.163  18.648  14.657 -0.0712 -0.0850  0.1046
22921OCT     C245842   0.508  18.490  14.358 -0.0766 -0.2635 -0.0879
22922OCT     C145843   8.051   3.853   0.719  0.0618  0.0514 -0.4275
22922OCT     C245844   7.621   3.885   0.840 -0.0278 -0.3752  0.0293
22923OCT     C145845   6.135   0.517  10.439 -0.0693  0.1644 -0.2382
22923OCT     C245846   5.979   0.951  10.657 -0.1729 -0.1067  0.1158
22924OCT     C145847   3.122  19.783   3.354  0.1284 -0.3377 -0.5283
22924OCT     C245848   2.907  19.762   3.789  0.0745  0.4457  0.3777
22925OCT     C145849   8.076   3.167  13.596 -0.0315  0.5754  0.0600
22925OCT     C245850   7.734   3.163  13.849 -0.0578 -0.1733 -0.4425
22926OCT     C145851  16.376  16.228  17.055  0.1197  0.2479 -0.1275
22926OCT     C245852  16.742  16.045  17.245  0.1475 -0.2793  0.0640
22927OCT     C145853  23.037   1.184  23.633  0.1943 -0.2185 -0.2144
22927OCT     C245854  23.431   1.361  23.637  0.1044  0.4243 -0.1360
22928OCT     C145855   9.825  22.596   8.452  0.0026  0.0050 -0.2786
22928OCT     C245856   9.847  22.927   8.111  0.1256 -0.2120  0.9544
22929OCT     C145857  18.084  14.752   2.962  0.0229  0.1867 -0.2495
22929OCT     C245858  18.185  15.187   2.790 -0.2524  0.0577 -0.0236
22930OCT     C145859   8.719  23.654  21.001  0.2155 -0.1025 -0.1244
22930OCT     C245860   8.261  23.674  21.092  0.0167 -0.2306  0.1000
22931OCT     C145861  18.727   9.695  14.502  0.1634 -0.1596  0.0780
22931OCT     C245862  18.868   9.826  14.900  0.3694  0.1538  0.0404
22932OCT     C145863  20.973   4.457  11.456 -0.2363 -0.0164  0.3103
22932OCT     C245864  20.888   4.544  11.903  0.1816 -0.0625 -0.2755
22933OCT     C145865  15.113  22.960  14.699  0.1743  0.1503  0.1281
22933OCT     C245866  15.399  22.753  14.403  0.1267  0.2275  0.2147
22934OCT     C145867  17.300   4.884  18.487  0.1542  0.4527  0.0253
22934OCT     C245868  17.146   5.301  18.733 -0.2602  0.0759  0.4231
22935OCT     C145869  14.508  10.647  21.231  0.2132  0.1296  0.3283
22935OCT     C245870  14.446  11.081  21.327  0.1312 -0.0076  0.3510
22936OCT     C145871  23.635  19.684   2.209  0.2201 -0.0036 -0.0136
22936OCT     C245872  23.252  19.524   2.172  0.2055 -0.0271 -0.4233
22937OCT     C145873  10.410   8.215   4.076 -0.0425 -0.0246 -0.1363
22937OCT     C245874  10.613   8.596   4.240  0.0074  0.1955  0.1219
22938OCT     C145875  20.004  10.392  13.127 -0.0813  0.2511  0.1643
22938OCT     C245876  20.001  10.396  13.562  0.1294  0.0285 -0.2208
22939OCT     C145877  16.333  18.855   3.934  0.4631  0.1304  0.4133
22939OCT     C245878  15.926  18.717   3.758 -0.2511  0.0897 -0.0523
22940OCT     C145879  21.657   2.677  10.163 -0.1467  0.1274  0.0866
22940OCT     C245880  21.561   3.021   9.914 -0.4262  0.1684 -0.1880
22941OCT     C145881  15.784  15.547   5.173  0.1394 -0.1182 -0.0911
22941OCT     C245882  15.481  15.820   5.340 -0.0575 -0.2834  0.2499
22942OCT     C145883  15.610  16.703  10.821 -0.1882 -0.0102  0.0411
22942OCT     C245884  15.499  16.288  10.994  0.1294  0.1782  0.1961
22943OCT     C145885  14.759   6.922  12.231  0.0328 -0.0413  0.0499
22943OCT     C245886  14.462   7.105  12.663  0.1635 -0.1563 -0.3096
22944OCT     C145887  10.393   2.106  19.982 -0.0153  0.3210 -0.1287
22944OCT     C245888  10.473   1.775  20.297  0.0864 -0.2149  0.0484
22945OCT     C145889  19.212   5.319  11.446  0.0602 -0.1042  0.0260
22945OCT     C245890  18.907   5.074  11.617 -0.0225 -0.1463 -0.0057
22946OCT     C145891   9.970  20.483  10.687  0.2149 -0.1485  0.1426
22946OCT     C245892   9.832  20.087  10.738  0.0548 -0.0086 -0.4393
22947OCT     C145893  13.346  22.412  15.335 -0.0509 -0.3742  0.3747
22947OCT     C245894  13.144  22.055  15.585 -0.1578  0.0463 -0.1022
22948OCT     C145895   6.053   3.682  18.369 -0.0825  0.4183 -0.1449
22948OCT     C245896   5.814   4.050  18.358 -0.0328 -0.1688  0.0940
22949OCT     C145897  22.747   2.628   5.681 -0.0536  0.4617  0.0738
22949OCT     C245898  22.275   2.696   5.470 -0.2695  0.1327 -0.0380
22950OCT     C145899   4.484  12.000  21.215 -0.1823  0.1139  0.2635
22950OCT     C245900   4.668  12.236  20.834 -0.1010 -0.0037  0.1530
22951OCT     C145901   6.434   5.571  15.820 -0.3389 -0.0154  0.0073
22951OCT     C245902   6.402   5.831  15.401  0.2656  0.0251 -0.0470
22952OCT     C145903   4.478   8.508  17.509 -0.2710 -0.1748  0.0519
22952OCT     C245904   4.881   8.333  17.695  0.0392  0.0866  0.2675
22953OCT     C145905  13.426  18.764  15.627 -0.0917  0.5223  0.1274
22953OCT     C245906  13.016  18.607  15.592 -0.1716  0.2859 -0.0035
22954OCT     C145907  19.196   7.587   2.120  0.3059  0.2973  0.0882
22954OCT     C245908  19.406   7.182   2.105 -0.0035  0.0489  0.1814
22955OCT     C145909  21.527   1.992   6.331 -0.3515 -0.1519  0.1228
22955OCT     C245910  21.734   2.258   5.994 -0.0197  0.0625 -0.1656
22956OCT     C145911   6.669  21.422  18.198 -0.3525 -0.0721 -0.0592
22956OCT     C245912   6.997  21.093  18.194 -0.1573  0.0222 -0.0029
22957OCT     C145913   1.632  22.159  15.703  0.3066 -0.1161 -0.1588
22957OCT     C245914   1.750  21.968  16.072 -0.3541  0.1145  0.1154
22958OCT     C145915  15.388   2.705  11.967  0.3259  0.0308  0.0750
22958OCT     C245916  15.015   2.481  12.150  0.2054 -0.3205  0.0253
22959OCT     C145917  15.887   7.145  22.426 -0.4477 -0.2270  0.0520
22959OCT     C245918  15.971   6.683  22.485  0.1624 -0.0597  0.0586
22960OCT     C145919  20.895   7.213  20.985 -0.2270 -0.1218  0.0984
22960OCT     C245920  20.782   6.708  21.046  0.2477  0.3418  0.0569
22961OCT     C145921  19.049   6.042  20.490  0.2386 -0.3036  0.0300
22961OCT     C245922  18.904   6.341  20.758 -0.1656 -0.0527  0.1163
22962OCT     C145923  16.392  17.053  14.327  0.0196  0.0230  0.3323
22962OCT     C245924  16.064  17.269  14.585  0.0355 -0.2424  0.2156
22963OCT     C145925  12.018   5.061  23.564 -0.1735  0.2414  0.1642
22963OCT     C245926  11.910   4.897   0.236 -0.1706  0.2924  0.3298
22964OCT     C145927  10.473   4.157   2.404  0.0754  0.0844  0.0345
22964OCT     C245928  10.514   4.516   2.081  0.0759 -0.1349  0.3644
22965OCT     C145929   5.424  16.071   4.847  0.0132  0.3224  0.0408
22965OCT     C245930   5.508  15.912   4.378 -0.0671  0.4842 -0.0829
22966OCT     C145931  18.433   0.493  13.297  0.0903  0.0632 -0.3370
22966OCT     C245932  18.462   0.041  13.545  0.1486  0.1557  0.0444
22967OCT     C145933  16.737  21.013  20.937 -0.1296 -0.0429 -0.2379
22967OCT     C245934  17.035  20.626  20.918  0.0431 -0.1281 -0.3706
22968OCT     C145935  22.256  17.163   0.276  0.0730  0.0586  0.1427
22968OCT     C245936  22.208  17.189   0.707 -0.1182  0.0712 -0.0206
22969OCT     C145937   4.260  13.793  23.275 -0.0692  0.3897  0.1906
22969OCT     C245938   4.181  13.809  22.819  0.1029 -0.0141 -0.1094
22970OCT     C145939   0.456  22.743  21.637  0.1579 -0.2120 -0.1207
22970OCT     C245940   0.527  22.428  21.318  0.3490  0.0291  0.0674
22971OCT     C145941   9.795  22.273  12.255  0.0946  0.2171  0.3569
22971OCT     C245942   9.849  22.175  12.735 -0.2741 -0.0999 -0.0947
22972OCT     C145943  18.597   9.271  17.855 -0.1063  0.0977 -0.0473
22972OCT     C245944  19.089   9.199  17.907 -0.1566 -0.3296 -0.0512
22973OCT     C145945  19.278  18.346   2.441  0.0632 -0.3212 -0.0429
22973OCT     C245946  19.117  18.069   2.084  0.0182 -0.1206 -0.3520
22974OCT     C145947   9.254   5.975  16.142 -0.0927  0.0564  0.0546
22974OCT     C245948   8.810   6.046  16.023 -0.0258 -0.0376  0.2673
22975OCT     C145949  11.947  21.052   4.570 -0.0641  0.3668  0.0113
22975OCT     C245950  11.726  20.633   4.487  0.2114  0.2074  0.0315
22976OCT     C145951  11.363  17.477   6.621  0.1170  0.1342 -0.2865
22976OCT     C245952  11.808  17.388   6.604  0.1335 -0.4790  0.3809
22977OCT     C145953  15.907   2.290  12.777 -0.1743  0.2779  0.0655
22977OCT     C245954  15.732   2.357  13.243 -0.0209  0.0759 -0.1564
22978OCT     C145955  18.706  16.401  18.262 -0.1287  0.0426  0.0900
22978OCT     C245956  18.632  16.718  18.610 -0.1094 -0.1883  0.0405
22979OCT     C145957   4.613  21.127   8.800  0.4369 -0.2805  0.1525
22979OCT     C245958   4.352  21.064   8.484  0.0613  0.1942 -0.2181
22980OCT     C145959   3.541  20.440   9.372 -0.4451 -0.1533  0.0750
22980OCT     C245960   3.216  20.766   9.532  0.0595  0.1794  0.0252
22981OCT     C145961  19.349   8.961  21.132 -0.0602  0.1660 -0.0015
22981OCT     C245962  19.198   8.611  21.422 -0.0468  0.0565  0.0852
22982OCT     C145963   0.344  21.689  20.998  0.4139 -0.3789 -0.2318
22982OCT     C245964   0.820  21.820  20.916 -0.1346 -0.1530 -0.0898
22983OCT     C145965  12.949  15.899   9.933  0.1227  0.2223  0.2769
22983OCT     C245966  12.801  16.341   9.878 -0.3655  0.0472 -0.1023
22984OCT     C145967  10.826   1.806   8.397 -0.0240 -0.1271 -0.0472
22984OCT     C245968  11.170   2.127   8.479  0.2988  0.0917 -0.0063
22985OCT     C145969   3.950  13.445  16.993 -0.1364 -0.0318  0.3290
22985OCT     C245970   4.360  13.331  16.822 -0.1787 -0.0453  0.0283
22986OCT     C145971   4.944  18.260  17.492 -0.0010 -0.2214  0.0735
22986OCT     C245972   4.591  18.464  17.243  0.0083  0.0484 -0.0671
22987OCT     C145973   9.758  18.717  17.440 -0.1446 -0.0939 -0.0510
22987OCT     C245974   9.298  18.866  17.461 -0.0050 -0.0504  0.0776
22988OCT     C145975   4.308  19.693  13.022 -0.1575 -0.0690 -0.3267
22988OCT     C245976   4.650  19.914  13.231  0.0684 -0.2383  0.5132
22989OCT     C145977  23.020  11.750   6.167  0.4080 -0.2763 -0.1028
22989OCT     C245978  22.730  11.658   5.778  0.1316 -0.4352 -0.0989
22990OCT     C145979  14.374  17.605   4.308  0.1562 -0.0781 -0.0952
22990OCT     C245980  14.287  17.216   4.129  0.2214  0.0607 -0.2824
22991OCT     C145981  13.501  17.435  19.751 -0.0152 -0.1014  0.0419
22991OCT     C245982  13.119  17.136  19.649  0.0337 -0.1867  0.0800
22992OCT     C145983  18.483  11.635   2.366 -0.1836  0.1241  0.0563
22992OCT     C245984  18.275  11.459   1.960  0.3962 -0.1092 -0.0992
22993OCT     C145985   3.074   2.371  23.224  0.2708  0.1151 -0.1658
22993OCT     C245986   2.907   2.125  22.824  0.1103  0.2065  0.2250
22994OCT     C145987   8.927   3.601  16.775 -0.4242  0.3129 -0.1067
22994OCT     C245988   8.995   3.385  16.279 -0.0843 -0.1531 -0.1048
22995OCT     C145989  20.349   5.343  13.857  0.2145  0.0041  0.6337
22995OCT     C245990  20.447   5.443  14.321  0.0073  0.1137  0.0242
22996OCT     C145991  23.466   9.725   2.998 -0.3221 -0.0498  0.3807
22996OCT     C245992   0.130   9.473   2.917 -0.0011 -0.2284 -0.0554
22997OCT     C145993   7.467  17.605  23.373 -0.3047  0.0400  0.3806
22997OCT     C245994   7.761  17.947  23.290  0.1732 -0.2629  0.0221
22998OCT     C145995   4.983   1.897   7.483  0.4764 -0.3569  0.0210
22998OCT     C245996   4.822   2.147   7.868 -0.2829 -0.0674 -0.2442
22999OCT     C145997  20.637   6.828  13.800 -0.0541  0.2703 -0.2855
22999OCT     C245998  20.509   7.300  13.709 -0.1034  0.1960 -0.1438
23000OCT     C145999   4.772  21.335  21.446 -0.1615  0.1880 -0.0125
23000OCT     C246000   5.129  21.279  21.725  0.1908  0.2778 -0.2922
23001OCT     C146001  13.228   7.141   2.739 -0.0011  0.1177 -0.2710
23001OCT     C246002  13.077   7.340   2.357 -0.0854 -0.3280  0.2152
23002OCT     C146003   7.770   9.728   2.913 -0.2584  0.2324 -0.0503
23002OCT     C246004   7.814   9.770   2.465  0.0193 -0.0950  0.1257
23003OCT     C146005   9.880  16.126  15.389 -0.3053  0.0868  0.2621
23003OCT     C246006   9.434  16.033  15.336  0.0079  0.0482  0.1689
23004OCT     C146007  21.193   6.066   1.096  0.1281  0.2220  0.0157
23004OCT     C246008  20.779   6.101   1.216  0.4948 -0.2361 -0.3108
23005OCT     C146009  14.506  19.013   6.105 -0.0438  0.4003 -0.0132
23005OCT     C246010  14.222  18.671   5.995 -0.3480  0.2124  0.2937
23006OCT     C146011   4.567  22.799  19.590  0.0905 -0.4488  0.0416
23006OCT     C246012   4.625  22.617  20.016 -0.2602 -0.0216 -0.1723
23007OCT     C146013  18.596  18.900  17.926 -0.1230  0.0824  0.0185
23007OCT     C246014  18.845  18.949  18.276 -0.0521  0.1653  0.4883
23008OCT     C146015  11.539  11.359  14.787 -0.0185 -0.2952  0.3227
23008OCT     C246016  11.790  11.342  14.358  0.0762 -0.4147 -0.0113
23009OCT     C146017   6.462   3.840  12.747  0.1080  0.2856  0.0635
23009OCT     C246018   6.144   4.152  12.678 -0.0049 -0.0359 -0.1287
23010OCT     C146019  20.311   2.975   5.254  0.2331  0.4091  0.1303
23010OCT     C246020  20.039   3.071   4.887 -0.1640  0.2437  0.2085
23011OCT     C146021   6.004  12.251  23.648  0.1679 -0.0667 -0.0593
23011OCT     C246022   5.780  12.520   0.163  0.2296  0.0068  0.0328
23012OCT     C146023  18.873   4.431   3.687 -0.0031 -0.2488  0.2639
23012OCT     C246024  18.742   4.239   4.085 -0.2763  0.1444 -0.0970
23013OCT     C146025   1.651   2.877   1.215  0.1367 -0.0888  0.1010
23013OCT     C246026   1.632   2.408   1.048  0.4687 -0.2816 -0.2814
23014OCT     C146027  17.896  20.089   2.383 -0.3878  0.2520 -0.2568
23014OCT     C246028  18.209  20.433   2.276  0.2650  0.5188  0.0811
23015OCT     C146029   1.614   3.079   0.494  0.0859  0.0667  0.2339
23015OCT     C246030   1.166   3.074   0.410 -0.0196  0.1452  0.4137
23016OCT     C146031  15.134   0.418   9.830  0.3493  0.1243  0.0995
23016OCT     C246032  15.325   0.787  10.026 -0.1767  0.1386 -0.2689
23017OCT     C146033  11.211  22.042  18.777 -0.2432  0.1815 -0.0146
23017OCT     C246034  10.772  21.790  18.847 -0.1357  0.0256  0.0356
23018OCT     C146035   8.145   1.145   6.454  0.1311 -0.2403 -0.3480
23018OCT     C246036   8.522   0.877   6.420  0.1497 -0.1117 -0.0091
23019OCT     C146037  19.756  23.101   8.566 -0.3432 -0.1774 -0.2624
23019OCT     C246038  19.995  22.985   8.987  0.2721  0.4717 -0.0162
23020OCT     C146039  13.516  16.396  10.080  0.0414  0.3812 -0.0021
23020OCT     C246040  13.102  16.412  10.235 -0.2992 -0.1868 -0.1383
23021OCT     C146041   3.353   0.901  14.109  0.3540 -0.1367 -0.3945
23021OCT     C246042   3.652   0.762  14.456  0.0318  0.2216 -0.1152
23022OCT     C146043  16.920  22.384  15.901 -0.0274  0.0273  0.3173
23022OCT     C246044  17.362  22.397  16.014  0.0930  0.1162 -0.3834
23023OCT     C146045  13.666  18.001   1.298 -0.1480  0.2125  0.1210
23023OCT     C246046  13.470  17.911   0.874  0.0129  0.0985  0.2122
23024OCT     C146047  12.524  11.454  15.952 -0.0599  0.0498 -0.3904
23024OCT     C246048  12.239  11.129  15.847  0.1421  0.0143 -0.1270
23025OCT     C146049   6.954  10.151   7.045 -0.2434  0.0232  0.2205
23025OCT     C246050   7.149   9.719   7.181  0.3301 -0.1990  0.0728
23026OCT     C146051  14.323   6.803  13.664  0.2903  0.1749 -0.2188
23026OCT     C246052  13.904   6.702  13.499  0.1429  0.2775 -0.1307
23027OCT     C146053   0.533   0.172  10.682 -0.0165 -0.1414 -0.1288
23027OCT     C246054   0.943   0.360  10.557 -0.4173 -0.0691 -0.1515
23028OCT     C146055   3.810  22.292   4.735 -0.1265 -0.0293 -0.3756
23028OCT     C246056   3.655  22.593   4.375 -0.1497 -0.1271 -0.2512
23029OCT     C146057   6.967  23.569  17.192 -0.0280 -0.3480  0.2615
23029OCT     C246058   6.978   0.291  17.054  0.2009  0.0380 -0.3585
23030OCT     C146059   3.169   9.039   1.965  0.0478  0.4182  0.1175
23030OCT     C246060   3.373   9.077   1.534 -0.3258 -0.0787  0.2574
23031OCT     C146061   0.495   1.948  18.293 -0.0042 -0.2102  0.5648
23031OCT     C246062   0.622   2.229  17.962 -0.1856  0.1726  0.4111
23032OCT     C146063   7.579  23.445   4.969 -0.2300  0.0588 -0.4265
23032OCT     C246064   7.848   0.037   5.180 -0.1776 -0.1017 -0.2060
23033OCT     C146065  16.364  11.846   1.832  0.0508  0.1788  0.0947
23033OCT     C246066  16.046  12.179   1.750  0.3382  0.1416  0.1805
23034OCT     C146067   3.007  21.815   8.547  0.0026  0.0826 -0.1061
23034OCT     C246068   2.704  21.493   8.667  0.2740 -0.2868 -0.4051
23035OCT     C146069  15.439  19.610   1.611 -0.2329 -0.1339 -0.1388
23035OCT     C246070  15.356  19.706   2.080 -0.0721 -0.3396 -0.0645
23036OCT     C146071  20.286  23.193  22.683 -0.1381  0.0536  0.1372
23036OCT     C246072  20.491  23.087  23.106  0.0418 -0.0920 -0.0609
23037OCT     C146073  17.088  17.976   1.919  0.5627 -0.2612  0.1270
23037OCT     C246074  17.062  18.137   2.397 -0.3631 -0.1116  0.0566
23038OCT     C146075   7.324   4.982  18.002 -0.1393 -0.1839 -0.3189
23038OCT     C246076   7.577   4.757  17.685  0.4649  0.2784 -0.2845
23039OCT     C146077  10.038   1.178  17.698 -0.1056 -0.0836 -0.0226
23039OCT     C246078  10.294   1.504  17.463  0.0180 -0.4736 -0.2564
23040OCT     C146079   8.420   9.127  13.155 -0.1396  0.0260 -0.0672
23040OCT     C246080   8.525   9.185  13.551 -0.3379  0.1447 -0.2983
23041OCT     C146081   6.081  11.443  17.336 -0.0113  0.0879  0.0336
23041OCT     C246082   5.741  11.380  17.668 -0.1583 -0.0853  0.0994
23042OCT     C146083  18.622   0.865  12.917  0.1636  0.0141 -0.0695
23042OCT     C246084  18.656   1.007  13.360 -0.0810 -0.4511  0.1747
23043OCT     C146085  10.009   2.602  20.494  0.0146  0.3621  0.0901
23043OCT     C246086  10.057   2.660  20.050 -0.2263 -0.0398  0.0340
23044OCT     C146087  11.174   4.253   9.364  0.2049 -0.4256  0.0462
23044OCT     C246088  11.564   4.387   9.101  0.1157  0.4894 -0.1444
23045OCT     C146089  10.248   3.886  17.052  0.2179  0.0080  0.3401
23045OCT     C246090   9.915   4.006  16.815  0.2749  0.0613  0.2189
23046OCT     C146091   5.847  22.745   9.147  0.2410 -0.0855  0.0421
23046OCT     C246092   6.182  22.482   9.291 -0.1249 -0.1643  0.1938
23047OCT     C146093   9.474  15.696  11.795 -0.1097  0.2445 -0.0276
23047OCT     C246094   9.824  15.434  11.572 -0.4337  0.0808  0.0148
23048OCT     C146095  11.571  22.701  19.240 -0.0516 -0.2760  0.1204
23048OCT     C246096  11.360  22.344  19.126  0.3057 -0.0965  0.1501
23049OCT     C146097   4.549  17.962   7.826 -0.1037  0.1460  0.0600
23049OCT     C246098   4.139  18.051   7.589  0.1771  0.2808 -0.2766
23050OCT     C146099   3.917  11.414  13.427  0.0905 -0.1862  0.0661
23050OCT     C246100   3.573  11.705  13.336  0.0090  0.0916  0.2016
23051OCT     C146101  21.147   4.664  10.547  0.1674 -0.0208 -0.1694
23051OCT     C246102  21.429   4.846  10.198 -0.4916  0.2719 -0.0361
23052OCT     C146103  11.534  13.244   1.278 -0.0923  0.0816 -0.2694
23052OCT     C246104  11.790  12.856   1.324 -0.0792 -0.3282  0.0931
23053OCT     C146105  20.618  18.782  22.554 -0.3118 -0.0637 -0.3527
23053OCT     C246106  20.969  19.068  22.675 -0.1482 -0.2495  0.2475
23054OCT     C146107  23.718  19.822  18.668  0.0605  0.3055  0.0782
23054OCT     C246108  23.506  19.824  18.237  0.0106  0.3317 -0.0414
23055OCT     C146109   5.042  23.576   2.825 -0.1851  0.0904 -0.1106
23055OCT     C246110   4.657   0.069   2.914 -0.1029 -0.0766 -0.1069
23056OCT     C146111  16.649  23.544  11.378  0.1364 -0.0507  0.1947
23056OCT     C246112  16.643   0.299  11.423 -0.0671  0.0855  0.2155
23057OCT     C146113  19.139  15.218  13.645  0.0778  0.0645 -0.2865
23057OCT     C246114  19.460  15.456  13.788 -0.2760  0.1411  0.1223
23058OCT     C146115   4.316   5.249  10.771  0.5259 -0.4655 -0.3459
23058OCT     C246116   3.870   5.194  10.667 -0.0703  0.0863 -0.0773
23059OCT     C146117   4.562   3.920   2.285  0.2556  0.2461  0.1623
23059OCT     C246118   4.705   4.037   1.842  0.0367  0.0854 -0.1172
23060OCT     C146119  18.191  16.583   6.012 -0.5066  0.1991 -0.2212
23060OCT     C246120  18.620  16.357   6.077  0.1591 -0.2353  0.0652
23061OCT     C146121  21.588  18.546  22.129 -0.0310 -0.3621  0.2129
23061OCT     C246122  21.821  18.653  21.704 -0.1062  0.1887 -0.2611
23062OCT     C146123   1.775  22.058  19.130  0.2345 -0.0370  0.2881
23062OCT     C246124   2.234  22.236  19.163  0.0907 -0.1732 -0.4060
23063OCT     C146125   2.868   4.031   7.253 -0.1248  0.3346  0.0102
23063OCT     C246126   2.539   3.791   7.512 -0.1821  0.0137  0.2180
23064OCT     C146127  11.327   9.688   4.341 -0.0573 -0.0529 -0.2059
23064OCT     C246128  10.865   9.758   4.226 -0.1682 -0.0430  0.0613
23065OCT     C146129  21.990   5.359  21.126 -0.3132 -0.1469  0.0775
23065OCT     C246130  22.100   4.939  21.328  0.2887 -0.1242  0.1900
23066OCT     C146131  17.663  10.730  11.878 -0.2721  0.1190 -0.0422
23066OCT     C246132  17.397  10.355  11.773  0.0583 -0.1640  0.1791
23067OCT     C146133  19.712   5.933   8.313  0.0234 -0.2797 -0.2370
23067OCT     C246134  20.118   6.001   8.169 -0.0200  0.3827  0.0422
23068OCT     C146135   8.495  23.646  17.014  0.0573 -0.2074  0.1917
23068OCT     C246136   8.540   0.149  17.416 -0.0673 -0.0223 -0.3724
23069OCT     C146137  18.692  16.220   3.056  0.1297  0.0212 -0.7306
23069OCT     C246138  18.397  16.296   2.726  0.1449 -0.3255 -0.0247
23070OCT     C146139   0.302   2.537  14.553 -0.0496  0.2089 -0.1105
23070OCT     C246140   0.219   2.939  14.380  0.4142 -0.1985 -0.1713
23071OCT     C146141  20.763  10.017   8.757 -0.3382  0.1407 -0.3031
23071OCT     C246142  20.833  10.399   9.016  0.1967  0.1722  0.1445
23072OCT     C146143  17.098   1.371  11.617 -0.0097 -0.0672  0.1466
23072OCT     C246144  16.789   1.323  11.950 -0.0096  0.0178 -0.0580
23073OCT     C146145  15.076  11.625   6.244 -0.3750  0.2429  0.0827
23073OCT     C246146  14.998  11.354   5.876  0.2962  0.0352  0.0372
23074OCT     C146147  13.233  21.738  10.339  0.0893  0.2631  0.2749
23074OCT     C246148  13.186  21.281  10.223 -0.4306 -0.0848 -0.0373
23075OCT     C146149  10.273   1.127   2.091  0.0024  0.2064 -0.2469
23075OCT     C246150  10.217   0.669   2.289 -0.3132 -0.0968 -0.0551
23076OCT     C146151  19.236  21.195  21.065 -0.1414  0.0731 -0.1696
23076OCT     C246152  19.621  21.443  21.120 -0.1275 -0.0127  0.0832
23077OCT     C146153  15.679   9.648  12.810  0.1529 -0.1858 -0.2951
23077OCT     C246154  15.689   9.939  12.515 -0.3376 -0.2167 -0.0427
23078OCT     C146155  10.791   2.977   5.776 -0.5440 -0.1935 -0.3424
23078OCT     C246156  10.309   3.035   5.883  0.0994 -0.3063 -0.1202
23079OCT     C146157   2.892   6.056  19.134 -0.0383  0.2900 -0.3166
23079OCT     C246158   2.526   5.864  18.945 -0.3201 -0.0149  0.2033
23080OCT     C146159  13.002  22.211  11.572  0.2226 -0.2756 -0.1769
23080OCT     C246160  12.800  22.321  11.189 -0.3413  0.0741 -0.2511
23081OCT     C146161  15.320   8.691  11.924  0.0405  0.2113  0.1028
23081OCT     C246162  15.321   8.408  11.606  0.1226 -0.2062  0.2460
23082OCT     C146163  23.226  17.341  22.759 -0.1614  0.0784 -0.3834
23082OCT     C246164  23.695  17.484  22.698 -0.1092  0.0049  0.0334
23083OCT     C146165  20.094  17.601  22.711 -0.1308 -0.1737 -0.5064
23083OCT     C246166  19.961  17.607  22.280  0.2349 -0.2210 -0.2367
23084OCT     C146167   5.240  22.608  12.291 -0.2451 -0.0695 -0.3175
23084OCT     C246168   4.882  22.303  12.220 -0.2045  0.1305  0.1401
23085OCT     C146169   7.494   4.746  23.528  0.3810  0.3684  0.0477
23085OCT     C246170   7.271   4.352  23.705  0.0129  0.1449  0.0310
23086OCT     C146171   2.417   4.088   0.252  0.1558 -0.2498 -0.0878
23086OCT     C246172   2.090   4.130  23.690  0.1495  0.1653  0.2363
23087OCT     C146173   9.630   4.222  23.539  0.3409 -0.3892  0.1918
23087OCT     C246174   9.389   4.340  23.123 -0.0896  0.1043  0.5137
23088OCT     C146175   7.408  20.427  11.962 -0.0128  0.0841  0.3043
23088OCT     C246176   7.070  20.555  11.649 -0.1387  0.0773 -0.2248
23089OCT     C146177   0.723   2.268   8.009 -0.0828  0.2220 -0.1380
23089OCT     C246178   0.475   2.461   7.728  0.2277 -0.1867  0.1108
23090OCT     C146179  16.793  15.213   1.675  0.0149  0.4374  0.0577
23090OCT     C246180  17.071  15.224   1.302  0.2522  0.0477  0.1728
23091OCT     C146181   3.544  21.356  11.928  0.0524  0.0499 -0.0921
23091OCT     C246182   3.772  20.900  11.898 -0.0557 -0.2093 -0.0942
23092OCT     C146183  13.711  12.524   8.379 -0.1513  0.0499 -0.2025
23092OCT     C246184  13.647  12.875   8.679  0.3595 -0.1799  0.2583
23093OCT     C146185  11.160   0.763  19.414 -0.3383 -0.1421  0.0365
23093OCT     C246186  11.421   1.127  19.249  0.0869 -0.1700 -0.0820
23094OCT     C146187   5.947   2.077   7.835 -0.1528  0.3172 -0.0531
23094OCT     C246188   6.063   2.031   7.416  0.1899 -0.0940 -0.0616
23095OCT     C146189  18.222  15.884  17.954  0.1353  0.1259  0.0563
23095OCT     C246190  18.440  15.550  18.183  0.0531 -0.3214 -0.0676
23096OCT     C146191  10.821   1.594   7.954  0.0986 -0.0437  0.2226
23096OCT     C246192  10.391   1.803   7.984  0.3394  0.0159 -0.2647
23097OCT     C146193  11.094  10.129  10.761 -0.1452  0.2858 -0.0632
23097OCT     C246194  10.678  10.132  10.461  0.0310 -0.2675 -0.2026
23098OCT     C146195   7.491  15.011   2.520  0.0120 -0.0192  0.0343
23098OCT     C246196   7.073  14.971   2.254 -0.5674  0.1206 -0.0343
23099OCT     C146197   9.594   5.697  10.543 -0.3068  0.2422 -0.4864
23099OCT     C246198   9.506   5.338  10.848 -0.0614  0.0982 -0.0209
23100OCT     C146199  15.691  10.920   3.401  0.3601  0.0599 -0.1080
23100OCT     C246200  15.615  11.314   3.688 -0.1732  0.0869  0.0457
23101OCT     C146201   1.686   5.847   2.667  0.5928 -0.2115  0.1911
23101OCT     C246202   1.773   6.048   2.266 -0.0121 -0.2007 -0.2841
23102OCT     C146203  22.158   2.896  20.721 -0.0316  0.0713 -0.0132
23102OCT     C246204  22.396   3.333  20.611 -0.5820 -0.5498  0.0398
23103OCT     C146205  15.320   9.443   5.304 -0.2915  0.0519  0.4534
23103OCT     C246206  15.223   9.063   5.130  0.0158  0.0121  0.1340
23104OCT     C146207   1.312  21.415  18.544  0.1704  0.1789  0.0672
23104OCT     C246208   1.550  21.797  18.692 -0.0996 -0.0262 -0.2311
23105OCT     C146209  16.662  16.426  10.613 -0.0912  0.0664 -0.1781
23105OCT     C246210  16.642  16.589  10.172  0.1066 -0.0096  0.0936
23106OCT     C146211  16.981  11.418  14.961  0.0694 -0.0141 -0.5435
23106OCT     C246212  17.271  11.512  15.353  0.0202  0.1199  0.0927
23107OCT     C146213   3.184  16.089  21.616 -0.4976  0.2812 -0.0871
23107OCT     C246214   2.995  16.449  21.863 -0.0641  0.0464  0.3029
23108OCT     C146215  15.638  10.602   9.405  0.1239  0.3488  0.1296
23108OCT     C246216  15.937  10.324   9.226  0.1901  0.0653  0.1664
23109OCT     C146217   4.373  23.326   0.579 -0.2247 -0.0105  0.3591
23109OCT     C246218   3.969  23.388   0.401  0.3905 -0.0235  0.1867
23110OCT     C146219  21.669  22.843  12.925 -0.0086 -0.0661 -0.1421
23110OCT     C246220  21.428  23.202  13.074 -0.0107 -0.0646  0.3169
23111OCT     C146221  23.683   3.285   8.014  0.0122 -0.0759  0.0942
23111OCT     C246222  23.674   2.801   7.916 -0.2034 -0.1631  0.1976
23112OCT     C146223   3.442  23.181  23.576  0.0024 -0.1028  0.3526
23112OCT     C246224   3.553  23.534  23.234  0.0651 -0.0911  0.3785
23113OCT     C146225   9.644  15.286   4.913 -0.0781 -0.0394 -0.1612
23113OCT     C246226   9.551  14.858   5.014 -0.2354  0.1765  0.3875
23114OCT     C146227  14.345   0.650  12.143 -0.2599 -0.3624  0.1637
23114OCT     C246228  14.625   0.711  11.736  0.1921 -0.2394 -0.0500
23115OCT     C146229  11.922   8.151   7.622 -0.0580  0.0884  0.0012
23115OCT     C246230  12.133   8.124   7.207 -0.0528  0.4894 -0.1069
23116OCT     C146231   1.371  10.312   7.689 -0.3493 -0.0600  0.4885
23116OCT     C246232   1.247   9.875   7.846  0.0947 -0.1454 -0.1345
23117OCT     C146233   5.971  17.789   5.195  0.2397  0.2234  0.2192
23117OCT     C246234   6.039  17.311   5.270  0.0843  0.0127 -0.1564
23118OCT     C146235   4.951   0.385  16.768  0.3526  0.1141 -0.0820
23118OCT     C246236   5.232   0.262  17.143 -0.2267 -0.1577  0.2134
23119OCT     C146237  13.114   5.541  20.578 -0.0795 -0.3574 -0.0242
23119OCT     C246238  12.721   5.760  20.649 -0.0501  0.0241 -0.2356
23120OCT     C146239  10.846  16.555   3.704 -0.2503  0.1865 -0.1983
23120OCT     C246240  10.396  16.620   3.725 -0.3502 -0.3106 -0.1269
23121OCT     C146241   9.884  17.766  10.302 -0.0164 -0.2948  0.1650
23121OCT     C246242  10.121  17.435  10.502 -0.0530 -0.1716 -0.0313
23122OCT     C146243  22.394  19.468   9.767 -0.3752 -0.3290 -0.0804
23122OCT     C246244  22.578  19.054   9.707  0.0067 -0.0135  0.1578
23123OCT     C146245  13.247  13.415  21.301  0.2949  0.2674  0.1378
23123OCT     C246246  13.631  13.153  21.348  0.0513  0.0642  0.1704
23124OCT     C146247  10.825  10.282   4.005 -0.4022 -0.0104  0.1815
23124OCT     C246248  10.418  10.282   4.104  0.2282  0.2305 -0.0182
23125OCT     C146249   7.351   7.531  14.121 -0.0537  0.3888  0.1327
23125OCT     C246250   7.549   7.120  14.265  0.1807  0.0436  0.3756
23126OCT     C146251  12.790  18.217   7.045  0.3683 -0.1561  0.0776
23126OCT     C246252  12.769  18.223   7.489 -0.2251  0.0430 -0.3332
23127OCT     C146253  10.938  12.792  18.678 -0.1229  0.2021 -0.2523
23127OCT     C246254  10.547  12.508  18.853 -0.1258  0.1547  0.2824
23128OCT     C146255  16.956  11.109   5.717  0.0641  0.3302 -0.0171
23128OCT     C246256  16.461  11.203   5.679 -0.0749  0.2142 -0.3945
23129OCT     C146257  23.413   2.137   4.962  0.0609 -0.0443 -0.1378
23129OCT     C246258  22.987   2.282   4.854  0.2497 -0.0789 -0.2173
23130OCT     C146259   1.334   8.918  15.454  0.1038  0.0466 -0.2079
23130OCT     C246260   1.141   9.331  15.246 -0.2892 -0.1263 -0.3296
23131OCT     C146261  22.716  22.236   8.969 -0.1943 -0.0068  0.1178
23131OCT     C246262  22.805  22.192   8.506  0.0613  0.1436  0.0487
23132OCT     C146263   7.703  13.103  17.059 -0.2040 -0.1811  0.0355
23132OCT     C246264   7.909  12.749  16.862  0.0993  0.1500 -0.2292
23133OCT     C146265  10.326  11.689   8.870  0.2101 -0.3265  0.1026
23133OCT     C246266  10.680  11.475   9.087 -0.1866  0.0219 -0.2030
23134OCT     C146267  20.209  21.138  18.333 -0.0072  0.1050 -0.3192
23134OCT     C246268  20.089  21.523  18.091  0.0887  0.3936 -0.0704
23135OCT     C146269  11.225   3.556  12.524  0.0873 -0.1841 -0.0743
23135OCT     C246270  11.047   3.373  12.130  0.1996  0.1595 -0.0194
23136OCT     C146271   6.332   3.489  11.070 -0.0240 -0.0940 -0.1875
23136OCT     C246272   5.884   3.304  11.254 -0.0078 -0.4398 -0.2395
23137OCT     C146273  11.622  23.311   1.772  0.0993  0.1490  0.4055
23137OCT     C246274  12.069  23.123   1.871  0.1851 -0.3370  0.2562
23138OCT     C146275  12.450  11.303   7.207 -0.1309  0.1217 -0.4502
23138OCT     C246276  12.068  11.115   7.171 -0.1389  0.1350 -0.1508
23139OCT     C146277   1.393   7.984  17.539  0.1804  0.2250  0.2565
23139OCT     C246278   1.854   7.976  17.363  0.0064  0.0261 -0.1739
23140OCT     C146279   1.995   5.795   4.163  0.2386 -0.0743 -0.0266
23140OCT     C246280   1.890   5.757   4.572 -0.2901 -0.2791  0.0781
23141OCT     C146281  14.448   8.363  13.905  0.0059  0.0014  0.1852
23141OCT     C246282  14.473   7.979  14.135 -0.1746  0.0752  0.0339
23142OCT     C146283  16.730  17.744  21.024 -0.0231  0.1317  0.1055
23142OCT     C246284  16.606  18.054  21.340 -0.1575 -0.2364 -0.1381
23143OCT     C146285  13.889   3.628   4.487 -0.0305  0.0121  0.1910
23143OCT     C246286  13.567   3.799   4.173 -0.0670  0.1118 -0.1788
23144OCT     C146287  19.509  16.726  17.132  0.1574  0.1392  0.2031
23144OCT     C246288  19.252  16.550  16.821  0.0387  0.2686 -0.0163
23145OCT     C146289  14.750  23.318  18.256  0.2058 -0.0072  0.1490
23145OCT     C246290  14.733  23.671  17.993  0.0636 -0.2176 -0.1135
23146OCT     C146291  20.913  18.492  15.614 -0.1540 -0.0603 -0.1638
23146OCT     C246292  21.250  18.212  15.428 -0.1363  0.3305 -0.2985
23147OCT     C146293  10.465  18.653  12.567  0.0036  0.0003 -0.2606
23147OCT     C246294  10.744  19.003  12.293 -0.2208  0.0109  0.0632
23148OCT     C146295  14.130   3.550  14.509  0.1062 -0.0393  0.0447
23148OCT     C246296  13.824   3.863  14.624 -0.0600 -0.1369 -0.0597
23149OCT     C146297  10.297   6.019   9.398 -0.0650 -0.1794 -0.3950
23149OCT     C246298  10.655   5.672   9.408  0.3417 -0.1718 -0.0455
23150OCT     C146299  21.951  16.267  13.720  0.1653 -0.1777  0.0733
23150OCT     C246300  22.336  16.004  13.799 -0.0827 -0.1517 -0.0382
23151OCT     C146301  19.797   6.717  11.400 -0.0133 -0.1804 -0.0800
23151OCT     C246302  19.519   6.890  11.737  0.2940  0.0162  0.1360
23152OCT     C146303   5.174  15.795  18.947 -0.3168 -0.0339  0.2356
23152OCT     C246304   5.510  16.095  19.161  0.4553  0.1661  0.1281
23153OCT     C146305  13.673  15.190  14.262 -0.1522 -0.1627 -0.3411
23153OCT     C246306  13.811  14.925  14.666 -0.1738 -0.0737  0.1412
23154OCT     C146307   7.087   0.828  17.253  0.2441  0.1479 -0.4488
23154OCT     C246308   7.253   0.441  17.435 -0.2539  0.2127 -0.2239
23155OCT     C146309  22.061   5.639  18.654 -0.2003  0.1006 -0.6330
23155OCT     C246310  21.651   5.791  18.822  0.1847 -0.5039  0.3211
23156OCT     C146311  15.984  23.558   9.912 -0.1486  0.3440 -0.1130
23156OCT     C246312  15.846  23.712   9.483 -0.3068  0.1159 -0.3413
23157OCT     C146313  17.172  22.415  16.915  0.2980 -0.2055  0.0272
23157OCT     C246314  17.276  22.721  17.264 -0.0314 -0.0952  0.0982
23158OCT     C146315   4.149   6.333  15.420  0.1309 -0.1434  0.1919
23158OCT     C246316   4.249   6.810  15.395  0.0537 -0.3847  0.3650
23159OCT     C146317   3.383  22.517  17.638 -0.0563  0.0047 -0.3359
23159OCT     C246318   3.452  22.790  17.992  0.1204 -0.1238  0.2586
23160OCT     C146319   9.080  11.489  13.657  0.0024 -0.2807 -0.1281
23160OCT     C246320   8.826  11.511  14.058  0.0577 -0.2254 -0.0097
23161OCT     C146321  21.272  19.949   5.443 -0.1012  0.2085 -0.0979
23161OCT     C246322  20.862  19.680   5.402 -0.1290  0.1491 -0.0810
23162OCT     C146323  19.813   5.099  17.679  0.0983 -0.0675 -0.0700
23162OCT     C246324  20.179   5.004  17.870 -0.2615 -0.2824  0.0439
23163OCT     C146325  10.401   0.158  22.529  0.0811  0.2178 -0.0603
23163OCT     C246326  10.548   0.579  22.693 -0.3308  0.3147 -0.2682
23164OCT     C146327  13.835   2.897  21.601 -0.1055 -0.1258 -0.4687
23164OCT     C246328  13.597   3.277  21.587 -0.2143 -0.1408  0.2179
23165OCT     C146329   5.202  10.224  11.221 -0.0637  0.1484 -0.0455
23165OCT     C246330   4.745  10.237  11.069 -0.0559 -0.0875  0.0810
23166OCT     C146331  22.038  15.645  15.946  0.1841  0.1112 -0.0276
23166OCT     C246332  22.317  15.807  15.688 -0.4380 -0.0693  0.0800
23167OCT     C146333   1.608  19.420  17.879 -0.1278 -0.0856 -0.0344
23167OCT     C246334   1.715  19.343  17.420 -0.2799 -0.0577 -0.0999
23168OCT     C146335   8.368  12.744   6.625  0.0056  0.2310 -0.1247
23168OCT     C246336   8.794  12.738   6.868  0.0438  0.1263 -0.2337
23169OCT     C146337  15.613  22.208  17.256 -0.1624  0.4272  0.2210
23169OCT     C246338  15.649  22.624  17.172  0.1219  0.1476  0.1354
23170OCT     C146339  21.633  10.003  23.651 -0.1073  0.1598  0.0893
23170OCT     C246340  21.218   9.899  23.666  0.0876  0.1091  0.1626
23171OCT     C146341   8.925   4.411   3.257 -0.2044 -0.1532  0.0479
23171OCT     C246342   9.117   4.147   2.907 -0.1357 -0.2637  0.1979
23172OCT     C146343   8.769  17.284   5.522  0.0593 -0.0312  0.0643
23172OCT     C246344   8.526  16.961   5.218  0.0117  0.0122  0.0342
23173OCT     C146345   5.207   9.046  19.557 -0.0994  0.3229 -0.2070
23173OCT     C246346   4.814   8.761  19.673  0.0369 -0.0369  0.0071
23174OCT     C146347  14.554  22.999   2.718  0.2017  0.1817  0.2087
23174OCT     C246348  14.721  22.683   3.041 -0.3603 -0.0199  0.4956
23175OCT     C146349  12.606   2.579   0.180 -0.1174  0.0182  0.0878
23175OCT     C246350  12.783   2.648   0.654  0.1071 -0.1161  0.0256
23176OCT     C146351   6.208   0.591   0.687  0.2172 -0.2232 -0.0839
23176OCT     C246352   5.903   0.952   0.583 -0.0443 -0.1395 -0.0818
23177OCT     C146353  14.549   4.152  21.176 -0.3547  0.0011  0.1304
23177OCT     C246354  14.646   4.018  21.631 -0.1347  0.2483  0.3157
23178OCT     C146355   0.285  18.389   9.852  0.1102  0.1139  0.2255
23178OCT     C246356   0.414  18.778   9.922 -0.0380 -0.0105 -0.1405
23179OCT     C146357  18.753  23.089  20.913 -0.2357  0.0566 -0.0934
23179OCT     C246358  18.673  22.751  20.561 -0.0071  0.0806  0.3916
23180OCT     C146359  15.510   5.244   5.502 -0.0060  0.2018 -0.2801
23180OCT     C246360  15.959   5.297   5.555  0.1158  0.0863 -0.4051
23181OCT     C146361   6.217  20.992  21.851  0.3634 -0.1013 -0.0248
23181OCT     C246362   6.117  20.797  21.463 -0.4406 -0.2096  0.0406
23182OCT     C146363  20.393  13.561  15.594  0.2746  0.1611 -0.3738
23182OCT     C246364  20.774  13.810  15.643  0.0499 -0.1829 -0.2274
23183OCT     C146365  19.893   3.298  20.035 -0.0368  0.5351 -0.0638
23183OCT     C246366  20.263   3.365  19.716 -0.0421 -0.2835  0.2198
23184OCT     C146367  18.870  12.155  19.039 -0.1115  0.1304  0.0608
23184OCT     C246368  18.825  12.432  18.695 -0.1761 -0.2186 -0.3312
23185OCT     C146369  14.627  17.737   0.562  0.3681 -0.1597  0.1405
23185OCT     C246370  14.684  17.225   0.631  0.2327  0.1464  0.3074
23186OCT     C146371  22.841  21.306   1.048 -0.2093  0.0580 -0.1615
23186OCT     C246372  23.102  21.542   1.338  0.1143 -0.1127 -0.1620
23187OCT     C146373  10.891   5.906  20.684 -0.2611  0.0672  0.1261
23187OCT     C246374  10.629   5.542  20.859 -0.1300  0.0822 -0.0327
23188OCT     C146375  13.218  20.947  12.332  0.2090 -0.0465  0.1983
23188OCT     C246376  12.772  20.871  12.272 -0.0791 -0.1140  0.0812
23189OCT     C146377   3.970  15.627   9.518  0.1285 -0.0330 -0.0667
23189OCT     C246378   3.839  15.222   9.623 -0.2753 -0.1692  0.0841
23190OCT     C146379  14.938   1.834  15.349 -0.0131 -0.0592 -0.2161
23190OCT     C246380  15.229   1.643  15.028 -0.0177 -0.1941 -0.5178
23191OCT     C146381  14.646   3.125  13.307  0.3116 -0.3891 -0.2681
23191OCT     C246382  14.652   2.648  13.331  0.0845 -0.0489 -0.3673
23192OCT     C146383   5.217  22.786  11.805  0.1929  0.1885 -0.2724
23192OCT     C246384   5.338  22.364  11.819 -0.0270  0.3490  0.2012
23193OCT     C146385  18.521  19.824   6.851 -0.3756  0.4552  0.2034
23193OCT     C246386  18.545  19.512   6.473  0.0353 -0.2720 -0.4904
23194OCT     C146387  13.117   9.890   0.971  0.1532 -0.0296  0.0491
23194OCT     C246388  12.927   9.807   1.406 -0.3371 -0.4349  0.0063
23195OCT     C146389   7.768   9.236   7.040  0.1855  0.3208 -0.1478
23195OCT     C246390   7.790   8.751   7.139 -0.0856  0.0897  0.2107
23196OCT     C146391   2.594   1.096   8.329 -0.3075 -0.2601 -0.2495
23196OCT     C246392   2.483   0.823   8.713  0.3811  0.0900 -0.3078
23197OCT     C146393   8.511  19.164  18.129  0.0268 -0.2363  0.1562
23197OCT     C246394   8.910  18.867  18.120 -0.3302 -0.2942 -0.0527
23198OCT     C146395   3.462   4.069   1.560 -0.0593  0.0506 -0.2004
23198OCT     C246396   3.615   4.176   1.176 -0.0877  0.2293  0.0536
23199OCT     C146397  22.992   0.066   7.409  0.5202  0.3288  0.3595
23199OCT     C246398  23.183  23.489   7.071 -0.1133 -0.1800  0.0618
23200OCT     C146399  17.138  20.355  22.422 -0.2576 -0.1435 -0.2144
23200OCT     C246400  17.135  20.600  21.990  0.2761 -0.0407 -0.1215
23201OCT     C146401   1.105   5.945  17.056 -0.0291  0.5457 -0.1102
23201OCT     C246402   0.998   5.474  17.256  0.3243 -0.1571  0.3992
23202OCT     C146403  21.325  14.790   7.553 -0.1039 -0.3062 -0.1151
23202OCT     C246404  21.116  14.765   7.109 -0.0639 -0.2788 -0.0534
23203OCT     C146405   5.932  10.721  15.225  0.0526 -0.0691  0.2617
23203OCT     C246406   5.909  10.729  15.685 -0.4288  0.2999 -0.1243
23204OCT     C146407   6.081  22.814  12.453 -0.4560 -0.1747  0.1880
23204OCT     C246408   5.636  22.869  12.591 -0.4519 -0.0953  0.0504
23205OCT     C146409  13.215   3.789  16.330 -0.0080  0.1680 -0.0259
23205OCT     C246410  13.109   3.799  15.888  0.0182 -0.0971  0.1276
23206OCT     C146411  23.446  23.314  10.382  0.1636  0.2295  0.0172
23206OCT     C246412   0.150  23.066  10.442 -0.5063 -0.1056  0.0597
23207OCT     C146413  10.163   1.161   1.013  0.1464  0.2965  0.0541
23207OCT     C246414  10.100   1.150   0.526 -0.0965  0.0029 -0.0414
23208OCT     C146415  19.814  13.526  17.020 -0.0327  0.0351  0.3193
23208OCT     C246416  19.827  13.075  17.098  0.0847  0.4210  0.2965
23209OCT     C146417  13.798  11.994   8.233  0.0959 -0.2233  0.0142
23209OCT     C246418  13.500  11.897   7.868 -0.1429 -0.0824 -0.0160
23210OCT     C146419  18.230  12.408  16.259 -0.2259 -0.1576  0.1686
23210OCT     C246420  18.198  12.573  16.640  0.0207 -0.3392 -0.0558
23211OCT     C146421   6.439  18.485   5.715 -0.2495 -0.4446 -0.0342
23211OCT     C246422   6.446  18.450   5.251 -0.1977  0.2432 -0.0058
23212OCT     C146423  18.517  18.834   3.934  0.1758  0.0184 -0.1524
23212OCT     C246424  18.934  18.602   4.032 -0.0680 -0.0705 -0.0210
23213OCT     C146425  12.779  20.679   4.400  0.1207 -0.1117  0.4112
23213OCT     C246426  12.676  20.181   4.445 -0.0902  0.0339 -0.2642
23214OCT     C146427  23.057  22.245   6.853  0.0767 -0.1450 -0.0570
23214OCT     C246428  22.919  22.704   6.830  0.3331 -0.0269 -0.1657
23215OCT     C146429   6.112   7.157   9.166  0.2058 -0.1391  0.0646
23215OCT     C246430   5.808   7.515   9.286 -0.4082 -0.1131  0.1163
23216OCT     C146431   4.809   8.706  20.869 -0.0322  0.0755  0.0141
23216OCT     C246432   4.744   8.298  20.602  0.1221 -0.0864  0.0512
23217OCT     C146433  15.331  13.696  20.432  0.4643  0.3054  0.2838
23217OCT     C246434  14.843  13.639  20.453  0.0958 -0.2406 -0.2743
23218OCT     C146435   5.421   8.893  14.557 -0.0871 -0.2154 -0.0118
23218OCT     C246436   5.656   8.502  14.499  0.4601  0.4273 -0.2660
23219OCT     C146437  15.816  22.930   3.999  0.1110 -0.0944  0.1335
23219OCT     C246438  15.479  22.619   4.148 -0.1631  0.0312  0.3218
23220OCT     C146439  21.169  13.788   4.838  0.0194 -0.1363  0.1152
23220OCT     C246440  21.444  13.968   5.130 -0.3206 -0.0852 -0.0446
23221OCT     C146441  19.489  21.101   8.485 -0.0363 -0.0843 -0.1079
23221OCT     C246442  19.563  21.367   8.857  0.2261  0.1961  0.1360
23222OCT     C146443  18.259  17.130   0.705  0.3976 -0.2912  0.0273
23222OCT     C246444  18.300  16.793   0.397  0.0217  0.1536 -0.2869
23223OCT     C146445   1.937  11.248  13.289  0.1962 -0.0534  0.2759
23223OCT     C246446   2.019  11.627  13.580 -0.5110 -0.2745 -0.4720
23224OCT     C146447   3.524  13.368  18.254 -0.0641  0.1170  0.1670
23224OCT     C246448   3.441  13.144  17.896  0.1545 -0.1542 -0.2327
23225OCT     C146449  18.568  12.220  16.830  0.2500  0.1365 -0.0999
23225OCT     C246450  18.702  12.638  16.693 -0.1696  0.0458 -0.0235
23226OCT     C146451  21.991   1.273  22.090 -0.3614  0.0821  0.2076
23226OCT     C246452  22.169   1.434  22.505  0.5389 -0.0992  0.0256
23227OCT     C146453   4.948  10.282  19.283  0.0115  0.7800 -0.0839
23227OCT     C246454   4.993   9.886  18.971 -0.0672 -0.2434 -0.0973
23228OCT     C146455  15.676  18.158   3.133 -0.1139  0.0012 -0.0702
23228OCT     C246456  15.250  18.261   2.959  0.2163 -0.0848  0.2349
23229OCT     C146457  11.145   6.421   1.439 -0.1979  0.3175  0.3875
23229OCT     C246458  11.545   6.238   1.421 -0.3634 -0.0871  0.2072
23230OCT     C146459  15.921   2.882   7.466 -0.6031  0.1654  0.4669
23230OCT     C246460  16.220   2.611   7.243  0.1180  0.1351  0.0408
23231OCT     C146461  13.498   9.449   3.925  0.3518  0.0767  0.1139
23231OCT     C246462  13.734   9.598   3.597  0.0172  0.0929  0.1199
23232OCT     C146463   6.911   2.501  18.560 -0.0604  0.5014  0.0535
23232OCT     C246464   6.917   2.594  18.069  0.1646  0.2546 -0.1053
23233OCT     C146465  23.356  12.554   3.080  0.0937 -0.0266  0.3280
23233OCT     C246466  23.346  12.722   3.482 -0.3520  0.2434  0.1337
23234OCT     C146467   2.598  23.169   2.804 -0.2569 -0.0440  0.4924
23234OCT     C246468   2.657  23.000   3.264 -0.0103  0.1108 -0.2008
23235OCT     C146469   2.123  21.573  11.161 -0.3388 -0.0443 -0.0136
23235OCT     C246470   2.460  21.553  11.446  0.0725 -0.2286 -0.0657
23236OCT     C146471  17.305  20.618   5.023  0.0737  0.0294  0.0396
23236OCT     C246472  17.531  20.830   5.337  0.1962 -0.1555  0.0931
23237OCT     C146473   6.992  22.959   7.523  0.0539  0.1109  0.2610
23237OCT     C246474   6.671  23.110   7.188  0.1719  0.2196  0.3648
23238OCT     C146475  11.133   4.168   8.192  0.0837  0.4224 -0.4177
23238OCT     C246476  11.316   3.896   7.875  0.2196  0.1432 -0.2553
23239OCT     C146477  10.631  12.317  11.974 -0.0560 -0.2743  0.5277
23239OCT     C246478  10.590  12.560  12.387 -0.0680  0.0690 -0.2484
23240OCT     C146479  15.982  13.072  20.078  0.2363  0.0397  0.1159
23240OCT     C246480  15.700  12.979  19.796  0.4160 -0.0468 -0.0543
23241OCT     C146481  12.996  22.812  13.493 -0.0819 -0.1131  0.2031
23241OCT     C246482  12.888  23.083  13.836  0.1035 -0.2135  0.2400
23242OCT     C146483  11.557  13.272  21.161  0.0173 -0.0743  0.0939
23242OCT     C246484  11.798  13.651  20.959 -0.0189  0.1241  0.2945
23243OCT     C146485   5.864  22.177  10.947  0.2488 -0.0929  0.1898
23243OCT     C246486   6.208  22.050  11.203  0.3355 -0.1800  0.2835
23244OCT     C146487   9.657  14.825   6.323 -0.0953  0.2779 -0.3036
23244OCT     C246488   9.597  14.443   6.076 -0.1744 -0.0049 -0.0820
23245OCT     C146489  11.340  12.191  13.761  0.2336 -0.0254  0.0682
23245OCT     C246490  11.748  12.145  13.522  0.1001 -0.1673  0.0603
23246OCT     C146491   6.398   9.862   9.934 -0.0086 -0.0022  0.0626
23246OCT     C246492   6.701   9.489   9.973  0.3565 -0.2661  0.2619
23247OCT     C146493  12.315  13.051   1.286  0.0357 -0.1327 -0.1142
23247OCT     C246494  12.065  13.350   1.100 -0.0410 -0.0361 -0.3883
23248OCT     C146495   7.624  21.208   4.965 -0.0262 -0.0287  0.1959
23248OCT     C246496   7.670  20.735   4.955  0.0633 -0.4121  0.0197
23249OCT     C146497  12.691   4.249  17.283  0.5915  0.1402  0.2257
23249OCT     C246498  13.034   3.997  17.256  0.1223 -0.3233  0.2428
23250OCT     C146499  12.283   9.860  23.428 -0.2670 -0.4572  0.0109
23250OCT     C246500  12.376  10.305  23.395 -0.1664 -0.4232  0.0564
23251OCT     C146501  17.045  16.163   2.603  0.0992 -0.2100 -0.3500
23251OCT     C246502  16.771  15.928   2.329  0.1179 -0.1312  0.0085
23252OCT     C146503  20.241  16.696   0.278 -0.0366 -0.2133  0.2362
23252OCT     C246504  19.844  16.603   0.260 -0.2434  0.0208 -0.3128
23253OCT     C146505   6.041  15.429  18.680  0.0874  0.0934 -0.0419
23253OCT     C246506   6.280  15.051  18.643 -0.4185 -0.0533 -0.1187
23254OCT     C146507  19.208   6.613   1.540  0.0033  0.2653  0.0421
23254OCT     C246508  19.140   6.870   1.201  0.1018  0.1054  0.0191
23255OCT     C146509   5.108   9.151  20.086  0.0634 -0.0051  0.2344
23255OCT     C246510   5.337   9.431  20.305 -0.4242 -0.0693 -0.0248
23256OCT     C146511   6.254   2.047  22.265  0.1989  0.2520  0.0890
23256OCT     C246512   6.440   1.721  22.000 -0.4215 -0.1550 -0.0560
23257OCT     C146513   9.408  22.495  23.171 -0.3719 -0.0157  0.4623
23257OCT     C246514   8.974  22.698  23.046 -0.1636  0.0742 -0.0998
23258OCT     C146515  23.640   6.543  20.828  0.2633 -0.2254 -0.0271
23258OCT     C246516   0.039   6.657  20.346  0.1864 -0.1876  0.2190
23259OCT     C146517   9.444  10.754   5.948  0.0509 -0.4425  0.2906
23259OCT     C246518   9.776  10.830   5.602 -0.0274  0.1027 -0.0718
23260OCT     C146519  14.768  21.061  19.628  0.0261 -0.0241  0.0490
23260OCT     C246520  14.920  20.597  19.560  0.2201 -0.2131 -0.0834
23261OCT     C146521  22.730  12.544  11.462  0.1700  0.0973 -0.2854
23261OCT     C246522  22.704  12.498  11.953 -0.0237 -0.0749  0.0477
23262OCT     C146523   3.683   3.954  22.766  0.1083  0.0283 -0.2238
23262OCT     C246524   3.919   4.370  22.897  0.1301 -0.4047 -0.1207
23263OCT     C146525  12.185   1.706  20.807  0.1554  0.0742  0.2209
23263OCT     C246526  11.711   1.726  20.750  0.0225 -0.4207 -0.2448
23264OCT     C146527   0.018  21.284  14.918  0.0161 -0.0645  0.0629
23264OCT     C246528   0.181  20.852  14.907  0.0053  0.0787 -0.3608
23265OCT     C146529  20.481  21.013  19.435 -0.3455 -0.3325  0.0852
23265OCT     C246530  20.205  21.118  19.797 -0.1897 -0.0978  0.0512
23266OCT     C146531  13.961  22.128   2.903 -0.3140  0.0046  0.3112
23266OCT     C246532  13.533  22.328   2.921  0.3509 -0.2300  0.3290
23267OCT     C146533   0.823   5.181   6.748  0.2259 -0.0495  0.1387
23267OCT     C246534   0.857   5.113   6.287  0.3067  0.0847 -0.1564
23268OCT     C146535   1.839  21.869   0.417  0.1132  0.0818 -0.2660
23268OCT     C246536   2.061  21.710   0.089  0.2644 -0.0196 -0.2681
23269OCT     C146537  11.891  20.753  20.365  0.1043 -0.1764  0.1346
23269OCT     C246538  11.782  20.352  20.212 -0.0410  0.0082  0.1796
23270OCT     C146539   7.856  20.429   3.094  0.0504  0.0900 -0.0194
23270OCT     C246540   7.438  20.145   3.192 -0.0748 -0.2378 -0.0871
23271OCT     C146541  11.350  12.168   3.583 -0.1216  0.1555  0.3279
23271OCT     C246542  11.727  12.207   3.840  0.1403  0.0960 -0.2289
23272OCT     C146543   0.867   3.688  22.506  0.0618  0.2308 -0.2515
23272OCT     C246544   0.484   3.626  22.740 -0.1291  0.1109  0.1663
23273OCT     C146545  12.233  23.165   8.811  0.1330  0.1984 -0.5067
23273OCT     C246546  12.199  22.724   9.048 -0.0630  0.1676  0.0903
23274OCT     C146547  13.758   8.141   0.041  0.1262  0.0690 -0.2089
23274OCT     C246548  13.934   7.877   0.322  0.0577  0.5769  0.0463
23275OCT     C146549   9.443  10.448  14.689 -0.2489 -0.2474 -0.0894
23275OCT     C246550   9.308  10.842  14.885 -0.2114 -0.0690  0.3477
23276OCT     C146551   3.662  21.177  16.738  0.1972  0.3671  0.1158
23276OCT     C246552   3.272  21.465  16.615 -0.1649 -0.0770  0.0145
23277OCT     C146553   7.462   8.368   5.309 -0.1491  0.2479 -0.0144
23277OCT     C246554   7.098   8.576   5.409 -0.0055  0.1747  0.1930
23278OCT     C146555   5.427  13.272  16.601  0.1111 -0.0521 -0.0401
23278OCT     C246556   5.742  13.261  16.993  0.1412  0.1019 -0.1545
23279OCT     C146557  14.882   7.281  19.803  0.0566 -0.0920  0.0764
23279OCT     C246558  14.895   6.810  19.818  0.1522 -0.2078  0.1675
23280OCT     C146559  12.189  21.065  12.105 -0.3165  0.0697 -0.3230
23280OCT     C246560  12.421  21.193  12.504 -0.1210 -0.4560  0.2546
23281OCT     C146561   9.603  19.255  20.932  0.5063  0.0835  0.3347
23281OCT     C246562   9.849  19.559  20.711 -0.1030 -0.1765 -0.0641
23282OCT     C146563  20.767  15.165  10.205  0.2983 -0.4040  0.4866
23282OCT     C246564  20.808  15.641  10.148  0.0538 -0.3154  0.1211
23283OCT     C146565   6.322  20.390  21.691 -0.0479  0.1505  0.1345
23283OCT     C246566   5.954  20.492  21.852  0.2665 -0.1272 -0.1771
23284OCT     C146567  12.876   6.528   4.924 -0.2543 -0.3138 -0.3974
23284OCT     C246568  13.191   6.818   4.701 -0.1507 -0.0108 -0.1273
23285OCT     C146569   7.868  10.607   9.252 -0.1462 -0.1520  0.0370
23285OCT     C246570   7.498  10.750   8.960 -0.1950  0.2655  0.2349
23286OCT     C146571  11.588  10.648  13.189  0.0108 -0.3971  0.2215
23286OCT     C246572  11.129  10.794  13.075 -0.5266 -0.0763  0.1847
23287OCT     C146573  12.904   3.870   8.084  0.2036 -0.1766  0.0390
23287OCT     C246574  12.720   4.278   7.909  0.1064  0.1749 -0.5322
23288OCT     C146575  10.637   6.412   5.933  0.0646  0.4463  0.1650
23288OCT     C246576  10.165   6.458   6.028 -0.0403 -0.1315  0.2179
23289OCT     C146577   3.350  14.925  22.210 -0.1421 -0.3866 -0.3799
23289OCT     C246578   3.763  14.695  22.179 -0.3382  0.4104 -0.0902
23290OCT     C146579  22.343  11.879   7.607 -0.2205 -0.0026  0.2362
23290OCT     C246580  22.070  12.249   7.335 -0.0850 -0.1080 -0.0864
23291OCT     C146581   0.414  19.203  20.348  0.0847  0.1246 -0.1517
23291OCT     C246582   0.672  19.022  20.083 -0.0986  0.0286  0.1344
23292OCT     C146583   0.185   6.551  22.892 -0.1014  0.3011  0.1529
23292OCT     C246584   0.480   6.772  23.200  0.2906 -0.1139  0.1379
23293OCT     C146585  21.804   9.540  20.100 -0.4750 -0.2320  0.0448
23293OCT     C246586  22.272   9.528  20.216 -0.2892  0.1334  0.4254
23294OCT     C146587   4.439   6.744  18.858  0.0258  0.2994 -0.1157
23294OCT     C246588   4.403   7.165  18.747 -0.1240 -0.0948  0.1308
23295OCT     C146589  23.249  21.031  13.719  0.5274  0.0616 -0.0228
23295OCT     C246590  23.264  20.816  14.092  0.0026  0.2469 -0.1836
23296OCT     C146591   2.566  18.981  21.777  0.1234 -0.0837  0.4734
23296OCT     C246592   2.189  18.946  21.562  0.1917 -0.0730  0.0779
23297OCT     C146593   5.679  17.507   1.318  0.1623 -0.1695  0.2474
23297OCT     C246594   6.063  17.780   1.254 -0.0087  0.0014  0.2712
23298OCT     C146595  23.483   1.784  20.616 -0.2760  0.0320 -0.2020
23298OCT     C246596  23.176   1.669  20.277  0.2362  0.3137  0.1327
23299OCT     C146597   3.862   2.507  18.015 -0.1114  0.2624  0.3517
23299OCT     C246598   4.296   2.660  17.951  0.2304  0.2364 -0.3540
23300OCT     C146599  22.076   6.537   6.050 -0.0748  0.3745  0.2279
23300OCT     C246600  22.099   6.135   5.843 -0.1217  0.0831  0.1390
23301OCT     C146601  23.302   1.952  14.572 -0.0924  0.3950 -0.1560
23301OCT     C246602  23.069   2.332  14.716  0.0000  0.0283 -0.1863
23302OCT     C146603   8.455   4.611  14.373  0.2368 -0.0174 -0.3619
23302OCT     C246604   8.169   4.311  14.134 -0.1463 -0.2104 -0.4070
23303OCT     C146605   5.652   9.902  20.042 -0.0156  0.1308  0.3055
23303OCT     C246606   5.916  10.116  20.355 -0.1048  0.3067 -0.0480
23304OCT     C146607  16.085  20.079  22.277 -0.0252 -0.3948 -0.2636
23304OCT     C246608  15.998  20.546  22.386  0.0340  0.0485 -0.0485
23305OCT     C146609   9.049  18.483  23.095 -0.0522  0.1683 -0.3136
23305OCT     C246610   8.779  18.859  23.153  0.0605  0.1279  0.3137
23306OCT     C146611  10.290  16.128   9.415  0.2294 -0.4869 -0.1231
23306OCT     C246612   9.883  16.313   9.484 -0.4208  0.2036  0.1066
23307OCT     C146613  20.511   2.639  18.642  0.1152  0.1299 -0.1140
23307OCT     C246614  20.959   2.540  18.595 -0.2082 -0.1956  0.3691
23308OCT     C146615  11.533  15.824   8.836 -0.1149  0.1463  0.0891
23308OCT     C246616  11.727  15.546   8.519  0.0001  0.4052 -0.2692
23309OCT     C146617  15.278  15.316  11.549 -0.0598 -0.0220  0.1443
23309OCT     C246618  14.852  15.342  11.700  0.1748  0.5631  0.0448
23310OCT     C146619  16.538  19.597   8.084  0.1610  0.1983  0.0021
23310OCT     C246620  16.604  19.114   8.080 -0.0877  0.3515 -0.0228
23311OCT     C146621  13.712  13.817  19.297  0.1550  0.2689 -0.1323
23311OCT     C246622  14.018  13.552  19.550  0.0264  0.0565  0.2074
23312OCT     C146623   5.214   4.841  22.984 -0.2220  0.1370  0.1960
23312OCT     C246624   5.688   4.772  23.100  0.1404 -0.0510  0.0677
23313OCT     C146625  14.620  16.544   2.270  0.0960 -0.1631  0.0677
23313OCT     C246626  14.408  16.422   2.644 -0.0161 -0.0123 -0.0561
23314OCT     C146627   0.115  14.410  22.833  0.0642  0.0760 -0.0091
23314OCT     C246628  23.416  14.395  22.880  0.2601  0.0268  0.3499
23315OCT     C146629  10.094   3.215  21.948  0.0616  0.1736  0.2211
23315OCT     C246630  10.464   3.160  21.686  0.1522  0.3575 -0.0004
23316OCT     C146631   6.196   0.395  22.928  0.0800  0.2148 -0.2460
23316OCT     C246632   6.001   0.137  22.660 -0.3912  0.3635  0.1314
23317OCT     C146633   3.386  18.661   1.161 -0.0895 -0.0371 -0.2954
23317OCT     C246634   3.680  18.964   1.394 -0.0876  0.1527  0.3744
23318OCT     C146635  11.402   4.074   4.074 -0.2413  0.0701  0.0790
23318OCT     C246636  10.975   3.945   4.249 -0.1092 -0.0347 -0.0489
23319OCT     C146637  11.953  12.991  15.703 -0.0928  0.1899 -0.3889
23319OCT     C246638  11.945  13.222  16.126 -0.1316  0.1411 -0.0642
23320OCT     C146639  16.751  18.806  19.321 -0.1894  0.0080  0.0999
23320OCT     C246640  16.977  18.381  19.395  0.1711 -0.0712 -0.3367
23321OCT     C146641   3.891   4.102  17.401  0.4252  0.0901  0.0666
23321OCT     C246642   4.029   4.493  17.413  0.5511  0.0239  0.0119
23322OCT     C146643  15.180   4.861   5.439 -0.5767  0.2119  0.2853
23322OCT     C246644  14.790   5.132   5.525 -0.4206  0.3184 -0.1006
23323OCT     C146645   5.140   5.247  19.767  0.1391 -0.1497  0.0702
23323OCT     C246646   5.223   4.794  19.853  0.3028 -0.1499  0.0866
23324OCT     C146647  19.714  20.935  17.222  0.3130 -0.0501  0.0841
23324OCT     C246648  19.878  21.280  17.000 -0.2301 -0.0190  0.0335
23325OCT     C146649  14.158  22.804  10.641  0.3133  0.0762  0.1458
23325OCT     C246650  14.503  22.854  10.350  0.2636  0.1156  0.1251
23326OCT     C146651  15.813  18.600   9.655 -0.0055  0.0736 -0.1602
23326OCT     C246652  15.897  18.991   9.370  0.2196  0.0661 -0.1207
23327OCT     C146653  17.300   1.004  14.516  0.3221  0.0056 -0.1626
23327OCT     C246654  17.353   1.064  14.980 -0.2170 -0.0067  0.0900
23328OCT     C146655   1.906  23.295   4.507 -0.0593  0.1391 -0.3035
23328OCT     C246656   2.154  23.366   4.906  0.2144  0.2321 -0.3371
23329OCT     C146657  16.761  16.785  18.968 -0.0112  0.0721 -0.0579
23329OCT     C246658  16.732  17.212  18.774 -0.0584 -0.4272 -0.0957
23330OCT     C146659  22.307   1.474  23.520  0.1957  0.1114  0.1678
23330OCT     C246660  22.483   1.691  23.160  0.2629 -0.1382  0.0609
23331OCT     C146661  10.369   0.133   6.418 -0.4570  0.1090 -0.0127
23331OCT     C246662  10.293   0.014   5.972 -0.0938  0.1809  0.1431
23332OCT     C146663  21.570   0.689   7.576 -0.2468 -0.3121  0.0452
23332OCT     C246664  21.295   0.446   7.791  0.0335 -0.1845 -0.1039
23333OCT     C146665  15.096   2.317   2.436 -0.1170 -0.1771 -0.3835
23333OCT     C246666  14.947   1.930   2.699 -0.1865 -0.3567  0.0660
23334OCT     C146667   7.371   0.613   0.709 -0.1150 -0.1038 -0.1579
23334OCT     C246668   7.330   0.358   0.328  0.3590  0.1440  0.1152
23335OCT     C146669  22.002  11.052   4.042  0.1696 -0.1731 -0.0640
23335OCT     C246670  22.103  10.773   4.411 -0.5457  0.1485  0.2394
23336OCT     C146671  18.695  20.009   5.504  0.2066  0.5372 -0.0860
23336OCT     C246672  18.511  20.352   5.236  0.1274 -0.1753 -0.1378
23337OCT     C146673   3.282   5.639   5.661  0.0736  0.0130  0.1330
23337OCT     C246674   3.370   6.022   5.890 -0.3181  0.0052 -0.3126
23338OCT     C146675  12.414  17.876  14.492  0.1370 -0.0330 -0.1979
23338OCT     C246676  12.234  18.184  14.772  0.1593  0.0414  0.2637
23339OCT     C146677   2.635   4.244  11.820 -0.1634 -0.0661 -0.1004
23339OCT     C246678   2.603   4.413  12.247 -0.0834 -0.0814 -0.5334
23340OCT     C146679  11.729  19.357   3.860  0.1596  0.3866  0.1925
23340OCT     C246680  12.132  19.480   3.996 -0.1538 -0.0007 -0.0228
23341OCT     C146681   8.157   9.134   6.391 -0.2889 -0.0921 -0.0034
23341OCT     C246682   8.112   9.594   6.434 -0.0263  0.3222  0.3106
23342OCT     C146683   4.605   7.300  16.617 -0.0322 -0.1333 -0.1024
23342OCT     C246684   4.550   7.683  16.360 -0.1628 -0.3467 -0.1548
23343OCT     C146685  13.293   6.309   5.090 -0.2991  0.3377  0.0755
23343OCT     C246686  13.539   6.725   5.057 -0.1653  0.1582 -0.0235
23344OCT     C146687  12.617  20.181  14.772 -0.1258  0.1110 -0.0880
23344OCT     C246688  12.692  20.632  14.912  0.0418  0.0251  0.1592
23345OCT     C146689  12.860   9.689   8.082 -0.0143 -0.1104  0.0639
23345OCT     C246690  12.450   9.525   8.060  0.1713 -0.0875  0.0619
23346OCT     C146691  11.851  11.752   3.749  0.0421 -0.2902  0.2046
23346OCT     C246692  11.640  11.516   3.396 -0.1633 -0.1012 -0.0086
23347OCT     C146693  21.902  14.379   8.024 -0.2828  0.1481 -0.0699
23347OCT     C246694  21.841  14.813   8.067 -0.3116 -0.1181  0.1348
23348OCT     C146695  17.108   3.559  11.943 -0.2671  0.0555 -0.3779
23348OCT     C246696  17.393   3.193  12.136  0.0664 -0.0638  0.0908
23349OCT     C146697  14.472   4.278   1.647  0.0611 -0.2115 -0.1782
23349OCT     C246698  14.240   4.601   1.406  0.1962 -0.2108 -0.2592
23350OCT     C146699  19.397   7.293  12.055  0.3906  0.0533  0.2469
23350OCT     C246700  19.005   7.602  12.023 -0.2101 -0.0803 -0.2063
23351OCT     C146701  21.956   6.937  23.073 -0.0418 -0.0682 -0.2294
23351OCT     C246702  22.204   6.527  23.246  0.1281  0.0134  0.2271
23352OCT     C146703  13.736   4.649  21.749 -0.0811  0.0185  0.0333
23352OCT     C246704  14.067   4.883  21.621 -0.2494  0.2470 -0.0585
23353OCT     C146705   2.189  11.349  17.906 -0.1391 -0.2851 -0.1334
23353OCT     C246706   2.018  11.412  17.456 -0.0668  0.4349  0.3059
23354OCT     C146707   6.567  22.276  21.650  0.0165 -0.0061 -0.0901
23354OCT     C246708   6.338  22.527  21.266 -0.1099  0.0629  0.0768
23355OCT     C146709   9.475   8.560   5.548  0.1983 -0.1180  0.0859
23355OCT     C246710   9.174   8.402   5.837 -0.1655 -0.0603  0.2633
23356OCT     C146711   0.222   8.140  23.636  0.2253 -0.0995  0.3390
23356OCT     C246712   0.321   8.275  23.206  0.0056 -0.1055  0.1208
23357OCT     C146713  20.337  12.489   9.324 -0.0628  0.1395 -0.1554
23357OCT     C246714  20.801  12.592   9.506  0.0361  0.0795 -0.1658
23358OCT     C146715   1.573   0.984   5.759 -0.0767 -0.1136  0.0943
23358OCT     C246716   1.386   1.241   5.438  0.0962 -0.0275 -0.3949
23359OCT     C146717  14.248  17.291  12.794  0.1006 -0.0992  0.1937
23359OCT     C246718  14.436  17.388  13.166 -0.1936  0.3504  0.3268
23360OCT     C146719   3.432  20.656  11.312  0.2201  0.2311 -0.3994
23360OCT     C246720   3.646  20.222  11.269 -0.1470  0.2167 -0.0255
23361OCT     C146721   4.577   4.747  12.593 -0.3964 -0.0075  0.0922
23361OCT     C246722   4.993   4.459  12.623 -0.1917 -0.1838  0.1810
23362OCT     C146723   8.007   8.501   9.124  0.0033 -0.2191  0.1562
23362OCT     C246724   7.738   8.445   8.759  0.1585 -0.2865  0.3260
23363OCT     C146725  20.841  13.077  10.725 -0.0610  0.2188 -0.3349
23363OCT     C246726  20.900  12.674  10.880 -0.1537  0.3984  0.3301
23364OCT     C146727   6.629   8.766   4.572 -0.1369 -0.0765 -0.1133
23364OCT     C246728   6.772   9.052   4.924 -0.1934  0.1476  0.1216
23365OCT     C146729  20.122  10.612  16.778 -0.1434  0.1114  0.0287
23365OCT     C246730  20.309  10.644  17.240  0.3181 -0.2697 -0.0371
23366OCT     C146731  20.308  21.337  17.671  0.1202  0.0965  0.0100
23366OCT     C246732  20.577  20.956  17.785  0.1960  0.2043 -0.2604
23367OCT     C146733   7.240  18.178  10.714 -0.0916 -0.2473 -0.2022
23367OCT     C246734   7.287  18.668  10.577  0.0146  0.4146  0.2353
23368OCT     C146735  10.306   2.809  11.931  0.0785 -0.0570 -0.0529
23368OCT     C246736  10.352   3.298  11.959 -0.1769 -0.1351  0.3144
23369OCT     C146737   1.852  16.492  16.574 -0.0389  0.0637  0.0750
23369OCT     C246738   1.473  16.659  16.769  0.2062  0.1494 -0.2073
23370OCT     C146739   6.347  17.821   9.632  0.1477 -0.2717 -0.2654
23370OCT     C246740   6.453  17.393   9.665  0.2962 -0.0944 -0.1566
23371OCT     C146741  17.358  18.121   5.881  0.1844 -0.3860  0.2579
23371OCT     C246742  17.332  18.508   5.644  0.2611  0.1244  0.2289
23372OCT     C146743   9.543  13.774   5.543 -0.3864  0.2572  0.2565
23372OCT     C246744   9.420  13.521   5.142  0.3205  0.0030  0.0897
23373OCT     C146745   9.666   8.665  22.316  0.0925 -0.1379 -0.1182
23373OCT     C246746   9.533   8.295  22.044 -0.1355  0.2252  0.1243
23374OCT     C146747  17.811  10.363  18.637 -0.1591  0.1221  0.1316
23374OCT     C246748  17.736  10.618  19.009 -0.1318  0.0973  0.1623
23375OCT     C146749  14.665  14.819   8.416 -0.0467  0.0260  0.1449
23375OCT     C246750  14.192  14.638   8.430 -0.0500 -0.3644 -0.4312
23376OCT     C146751   1.494  10.347   6.914 -0.2218  0.2378  0.2859
23376OCT     C246752   1.187  10.743   6.972 -0.1806 -0.3373  0.2563
23377OCT     C146753  17.983  16.587   3.595 -0.1270  0.1094  0.2341
23377OCT     C246754  18.083  16.317   3.980 -0.2099 -0.1981  0.0736
23378OCT     C146755  10.170  18.696   3.181  0.1165 -0.0067  0.3046
23378OCT     C246756   9.945  18.996   2.963  0.3362 -0.1092  0.0176
23379OCT     C146757  17.041  14.985   0.764  0.0924  0.2070 -0.2527
23379OCT     C246758  16.830  15.424   0.856 -0.3149 -0.1238 -0.0776
23380OCT     C146759  17.022  16.735  10.374 -0.2802  0.1905 -0.0541
23380OCT     C246760  17.493  16.697  10.539  0.3205  0.0348  0.4127
23381OCT     C146761  19.130   7.805  14.248  0.5106  0.0776 -0.1588
23381OCT     C246762  18.751   7.636  14.019  0.0382 -0.1751  0.0440
23382OCT     C146763   1.068  23.042  19.991  0.1063 -0.0137  0.1801
23382OCT     C246764   1.336  22.709  19.755  0.0121 -0.2136 -0.3847
23383OCT     C146765   3.473  16.084  19.607  0.1818  0.1321  0.0059
23383OCT     C246766   3.079  15.849  19.462 -0.1662 -0.0195  0.1756
23384OCT     C146767  17.489   9.715   6.684  0.1819  0.0056 -0.4092
23384OCT     C246768  17.932   9.840   6.858  0.1730  0.1399 -0.0728
23385OCT     C146769  21.103  13.899   1.971  0.0779  0.0153  0.0681
23385OCT     C246770  20.629  13.767   1.876 -0.2847 -0.0613 -0.0311
23386OCT     C146771  17.505  13.167  14.716  0.0799 -0.1272  0.4442
23386OCT     C246772  17.058  13.172  14.625  0.4923  0.1133  0.0031
23387OCT     C146773   8.991   4.836   6.730  0.1062  0.1980 -0.1224
23387OCT     C246774   8.574   4.968   6.510 -0.4705 -0.0853 -0.3656
23388OCT     C146775  19.026   6.699  16.229  0.1677 -0.1115 -0.2076
23388OCT     C246776  18.993   7.164  16.241 -0.1015 -0.1225  0.3212
23389OCT     C146777  17.417  12.487  14.210  0.2339 -0.2453 -0.2777
23389OCT     C246778  17.458  12.943  14.115 -0.1444 -0.2561  0.0973
23390OCT     C146779   3.969  20.435   9.755 -0.0455  0.2437  0.1683
23390OCT     C246780   3.973  20.762   9.400 -0.1053  0.1373  0.0126
23391OCT     C146781  16.885   9.493   7.628 -0.0921  0.1693 -0.3592
23391OCT     C246782  17.047   9.672   8.047 -0.0939 -0.4615 -0.3339
23392OCT     C146783   9.283  13.322  23.641 -0.0297  0.2972  0.0316
23392OCT     C246784   9.239  13.523   0.310  0.1072  0.1761  0.1408
23393OCT     C146785   2.339  13.118  11.838  0.2425 -0.0352 -0.2782
23393OCT     C246786   2.606  12.912  12.181  0.0912  0.1733  0.1032
23394OCT     C146787  17.162  21.414  22.638 -0.0557  0.1050 -0.1887
23394OCT     C246788  17.132  21.276  22.220 -0.1180 -0.1203  0.3295
23395OCT     C146789   5.905  13.251   1.928  0.0735  0.0668 -0.2797
23395OCT     C246790   5.454  13.432   1.763 -0.1029 -0.2787 -0.3135
23396OCT     C146791   8.598  12.097   4.039 -0.2497  0.0452 -0.1491
23396OCT     C246792   8.164  11.952   4.197 -0.2881  0.3899 -0.0231
23397OCT     C146793  14.814  16.956  19.702 -0.1733  0.2212 -0.0517
23397OCT     C246794  14.424  16.833  19.618  0.3106 -0.0418  0.2327
23398OCT     C146795  12.065  22.955   3.888  0.0414  0.3520 -0.0851
23398OCT     C246796  12.009  23.295   4.184 -0.3036  0.2633 -0.0968
23399OCT     C146797   7.354  22.201  21.307  0.1090  0.1065  0.1139
23399OCT     C246798   7.589  22.621  21.350  0.2472  0.3811 -0.0247
23400OCT     C146799   6.109   0.745   5.098  0.0054 -0.2492 -0.3378
23400OCT     C246800   5.641   0.809   5.160  0.2582  0.1835 -0.1202
23401OCT     C146801  16.305  12.992   2.670  0.3057  0.3527  0.1640
23401OCT     C246802  16.737  13.051   2.506  0.1566 -0.2557  0.2760
23402OCT     C146803   1.541  22.413   9.714 -0.1724  0.2370  0.1310
23402OCT     C246804   1.926  22.427   9.951  0.2954 -0.1497 -0.1391
23403OCT     C146805  20.769  20.262  16.814  0.2948  0.2269  0.2566
23403OCT     C246806  20.600  20.681  16.759  0.0351 -0.4080 -0.6872
23404OCT     C146807  15.531  14.641  23.300  0.0390 -0.0149  0.1794
23404OCT     C246808  15.639  14.204  23.158 -0.2677 -0.1973 -0.0662
23405OCT     C146809  14.444  10.787   4.763 -0.2102 -0.1888  0.1464
23405OCT     C246810  14.310  10.329   4.837 -0.0671 -0.1965  0.0741
23406OCT     C146811  23.503   3.850  20.612  0.1127 -0.2062  0.1562
23406OCT     C246812   0.031   3.448  20.467 -0.3163 -0.0728  0.1054
23407OCT     C146813  21.372  12.348  13.048  0.3353 -0.3053  0.3229
23407OCT     C246814  21.373  12.082  12.665 -0.5021  0.1254 -0.0475
23408OCT     C146815  12.131   9.254  13.803 -0.0719  0.0145  0.0555
23408OCT     C246816  12.161   9.086  14.233 -0.1678 -0.3587  0.3278
23409OCT     C146817  19.727  10.460  10.727 -0.2744  0.3861 -0.2560
23409OCT     C246818  19.387  10.685  10.976 -0.1566  0.0645 -0.2040
23410OCT     C146819  20.580  16.274  16.314 -0.2119 -0.1062 -0.0630
23410OCT     C246820  20.589  15.856  16.097  0.3777 -0.0730  0.2311
23411OCT     C146821  20.189   2.258  17.290 -0.2710 -0.3113 -0.0988
23411OCT     C246822  20.153   1.929  17.629 -0.0542 -0.0705 -0.2043
23412OCT     C146823  15.681  15.254   2.046 -0.3451  0.0857  0.1319
23412OCT     C246824  15.940  14.924   1.863  0.0868  0.1426 -0.1473
23413OCT     C146825  22.879   2.529  16.758  0.0088 -0.1219 -0.0401
23413OCT     C246826  23.325   2.373  16.752  0.2075  0.1748  0.1317
23414OCT     C146827  13.023  22.555  18.361  0.0380 -0.1876  0.1102
23414OCT     C246828  12.584  22.614  18.432  0.1162  0.0410  0.0239
23415OCT     C146829  10.208  19.937   0.001  0.1069  0.5350 -0.1066
23415OCT     C246830  10.391  19.501   0.045  0.0144 -0.1922 -0.6154
23416OCT     C146831   4.176  13.464  10.361 -0.0023  0.0594 -0.3155
23416OCT     C246832   4.089  13.086  10.699 -0.2008 -0.4205  0.1178
23417OCT     C146833  17.806   7.659  17.198  0.1551  0.3374  0.0369
23417OCT     C246834  17.956   7.420  16.828  0.0518  0.0708  0.1936
23418OCT     C146835  14.310  13.636   5.469  0.1805  0.0733 -0.0987
23418OCT     C246836  14.452  13.474   5.905  0.5204 -0.0174 -0.0423
23419OCT     C146837   4.160   4.428  11.076  0.1333  0.3345  0.2238
23419OCT     C246838   3.972   4.844  11.021 -0.0464 -0.0614 -0.0620
23420OCT     C146839   6.123  10.359  11.000 -0.1009 -0.0843  0.3729
23420OCT     C246840   5.667  10.267  10.959 -0.1641 -0.2722 -0.3710
23421OCT     C146841  23.028  11.366  18.369  0.1682  0.2207 -0.0330
23421OCT     C246842  23.280  11.703  18.394 -0.1719 -0.1264 -0.1943
23422OCT     C146843  17.546   2.797  19.214  0.2305  0.1258 -0.0397
23422OCT     C246844  17.790   2.617  18.898  0.2400 -0.3040  0.1754
23423OCT     C146845   4.695  17.287   5.656 -0.4249  0.1408 -0.2105
23423OCT     C246846   4.568  17.681   5.705  0.3933  0.3512 -0.2246
23424OCT     C146847  20.738  18.394   3.474 -0.2105 -0.2932  0.1147
23424OCT     C246848  21.111  18.509   3.770 -0.2301 -0.2144 -0.2079
23425OCT     C146849  13.513  21.204  19.843  0.2810  0.2274 -0.0407
23425OCT     C246850  13.362  20.894  20.218 -0.0906 -0.1032  0.5406
23426OCT     C146851   0.894  11.140   2.289  0.1171  0.0721 -0.2114
23426OCT     C246852   0.960  10.793   1.958 -0.1097  0.1353 -0.4214
23427OCT     C146853  13.465   1.957   8.377 -0.1745 -0.0889 -0.0137
23427OCT     C246854  13.874   2.085   8.690  0.1723  0.0423  0.1869
23428OCT     C146855  12.540  17.137  23.137  0.0184 -0.2233 -0.0289
23428OCT     C246856  12.753  17.534  23.054 -0.2063 -0.1560  0.1585
23429OCT     C146857   4.132  21.072  20.462  0.1073  0.0396  0.3928
23429OCT     C246858   4.536  20.909  20.551  0.2336  0.2407  0.1005
23430OCT     C146859  23.164  16.255  19.206  0.1208  0.0262  0.1750
23430OCT     C246860  23.291  15.904  18.891 -0.2725 -0.2111 -0.0735
23431OCT     C146861  23.014   2.368   8.802 -0.1927 -0.2907 -0.1697
23431OCT     C246862  22.611   2.455   8.987  0.1893  0.0988 -0.2397
23432OCT     C146863  20.372   7.587   4.464  0.1917 -0.2228  0.0061
23432OCT     C246864  20.651   7.196   4.543  0.1565  0.0184 -0.1868
23433OCT     C146865   6.332   7.091  10.107  0.2000 -0.4778  0.1883
23433OCT     C246866   6.540   6.733  10.335  0.0545 -0.2078 -0.1096
23434OCT     C146867   6.775   4.278  21.982  0.2255  0.2263  0.0738
23434OCT     C246868   6.808   4.050  22.340 -0.1728  0.0721  0.1557
23435OCT     C146869   7.384   3.637  17.134  0.1393 -0.0150  0.0808
23435OCT     C246870   7.472   3.847  16.717 -0.2557 -0.2674 -0.3052
23436OCT     C146871  17.806   0.213  12.672 -0.1120 -0.0493  0.1931
23436OCT     C246872  17.446   0.375  12.904  0.3487 -0.1750  0.0731
23437OCT     C146873   7.096  17.433   2.273 -0.0177  0.1041  0.2259
23437OCT     C246874   6.634  17.503   2.262  0.2409  0.1046  0.5963
23438OCT     C146875  11.958  12.963  21.245 -0.1636  0.0807 -0.0450
23438OCT     C246876  11.594  12.679  21.287 -0.1447 -0.4620 -0.1072
23439OCT     C146877   9.186   5.096  19.785 -0.1353  0.2439  0.2312
23439OCT     C246878   9.152   5.209  20.241  0.4056  0.0406 -0.1155
23440OCT     C146879  22.281  21.812   4.315  0.0338  0.0879  0.3117
23440OCT     C246880  22.239  22.275   4.126 -0.2325  0.0942 -0.3075
23441OCT     C146881  13.040   6.886   1.718 -0.1165  0.3393  0.0307
23441OCT     C246882  13.097   6.366   1.767  0.3853  0.0310 -0.0222
23442OCT     C146883  17.126  16.701   9.731  0.0759  0.0010 -0.2907
23442OCT     C246884  16.851  16.323   9.638  0.0487  0.0332  0.2388
23443OCT     C146885  21.398  14.641  13.019  0.3274  0.2855 -0.0702
23443OCT     C246886  21.499  14.333  13.418 -0.0786  0.3208 -0.2198
23444OCT     C146887  18.862  13.133   5.552 -0.2675  0.0226  0.1299
23444OCT     C246888  19.124  13.510   5.453 -0.1276 -0.2624 -0.3868
23445OCT     C146889   8.048  19.799  14.013 -0.0867  0.0650 -0.3119
23445OCT     C246890   8.438  19.918  13.745 -0.0528  0.1558  0.2715
23446OCT     C146891  21.597   3.379  21.008  0.0801 -0.0640  0.1178
23446OCT     C246892  21.358   3.547  20.627  0.1748 -0.2096  0.1463
23447OCT     C146893  15.870   6.937   8.616  0.2674 -0.4850 -0.0877
23447OCT     C246894  16.127   7.314   8.520 -0.1536  0.1569  0.0933
23448OCT     C146895   0.133   0.135   0.724  0.2107 -0.1272  0.0761
23448OCT     C246896   0.556   0.275   0.601 -0.1427  0.4447  0.2883
23449OCT     C146897   1.840  12.392   1.362  0.3701  0.0548 -0.1937
23449OCT     C246898   1.791  12.691   1.724  0.2163 -0.0870  0.0326
23450OCT     C146899  18.591  15.240   1.778 -0.0629 -0.2703  0.2521
23450OCT     C246900  18.114  15.055   1.711  0.1274 -0.1450 -0.3705
23451OCT     C146901  20.609  23.000  11.089 -0.2691  0.1086 -0.2320
23451OCT     C246902  20.740  23.296  10.752  0.2169  0.0267  0.0894
23452OCT     C146903  19.195   7.946   9.303 -0.0328 -0.4361  0.3672
23452OCT     C246904  19.629   7.946   9.584 -0.0571 -0.2568 -0.1750
23453OCT     C146905   2.794  20.710   1.477 -0.0427 -0.1397 -0.1203
23453OCT     C246906   3.175  20.474   1.532 -0.0623  0.2441  0.2892
23454OCT     C146907   1.094  11.396  13.028  0.2657 -0.0480  0.2883
23454OCT     C246908   1.100  10.944  12.841 -0.1742  0.1113 -0.1744
23455OCT     C146909   5.107  15.819   6.938 -0.0741 -0.1354  0.3855
23455OCT     C246910   5.032  16.226   7.076  0.0206 -0.1076  0.2454
23456OCT     C146911  22.741  10.756   4.139  0.3094  0.5741  0.1122
23456OCT     C246912  23.082  10.860   3.855 -0.1824 -0.0884 -0.1398
23457OCT     C146913  15.349  14.048   8.772  0.2639  0.1578 -0.0908
23457OCT     C246914  15.403  13.624   8.623 -0.0935 -0.3117 -0.4553
23458OCT     C146915   7.819  14.376  12.806 -0.1140  0.0334 -0.2002
23458OCT     C246916   7.352  14.400  12.873 -0.2763  0.3142 -0.0884
23459OCT     C146917   3.225   4.999  15.317 -0.4855 -0.1080 -0.2446
23459OCT     C246918   3.167   4.485  15.285 -0.1550  0.2050  0.2467
23460OCT     C146919  16.778   5.698   5.160  0.1670 -0.1143  0.1661
23460OCT     C246920  16.859   5.638   4.685 -0.2312  0.3211  0.0869
23461OCT     C146921  21.657  15.096   9.675  0.2212 -0.2448  0.1708
23461OCT     C246922  21.219  14.985   9.647  0.0326  0.1318  0.2402
23462OCT     C146923   2.558  19.051   7.404 -0.2166 -0.0435  0.1459
23462OCT     C246924   2.895  18.923   7.649 -0.1090  0.3305  0.2638
23463OCT     C146925   8.039  11.086   0.338  0.2308 -0.5219  0.4920
23463OCT     C246926   7.727  11.410   0.411  0.1371  0.2362 -0.3665
23464OCT     C146927  22.031  11.747  20.982 -0.0839  0.0457 -0.2361
23464OCT     C246928  22.160  11.578  21.310 -0.1530 -0.1246 -0.5096
23465OCT     C146929   7.662  23.338   2.255  0.1333  0.1466  0.0890
23465OCT     C246930   7.272  23.455   2.027 -0.0466  0.0545  0.6361
23466OCT     C146931  16.085   5.043   6.601  0.0590 -0.2053 -0.0420
23466OCT     C246932  16.473   4.988   6.683 -0.0160  0.0739  0.0578
23467OCT     C146933  22.890  10.854  18.871 -0.0588  0.1241  0.0539
23467OCT     C246934  22.655  10.513  19.115 -0.1398  0.1939 -0.1166
23468OCT     C146935   8.704  21.662  19.466 -0.0548 -0.1961 -0.1678
23468OCT     C246936   8.908  21.675  19.096  0.2233 -0.0352  0.2478
23469OCT     C146937  18.088  20.171   7.615 -0.0108  0.4554 -0.0723
23469OCT     C246938  17.728  19.911   7.511  0.3657  0.3307 -0.1727
23470OCT     C146939   5.553  15.068   4.896 -0.3920  0.0689  0.0396
23470OCT     C246940   5.685  15.274   5.290 -0.1676 -0.0706 -0.3647
23471OCT     C146941  21.153  11.678   5.213 -0.1453  0.0863 -0.1139
23471OCT     C246942  21.019  12.033   5.457 -0.0088  0.1933  0.0081
23472OCT     C146943  10.949  14.643   6.741 -0.1704  0.0318  0.0974
23472OCT     C246944  10.799  14.291   7.000 -0.3551 -0.3020  0.1103
23473OCT     C146945  22.452  19.101  18.433  0.2473 -0.1309 -0.0239
23473OCT     C246946  22.592  19.366  18.077 -0.0152 -0.1826  0.0161
23474OCT     C146947  17.660  12.790  11.284  0.5812  0.3695  0.4042
23474OCT     C246948  17.285  12.967  11.018  0.0871  0.0769 -0.2561
23475OCT     C146949  15.904   9.216  14.425  0.0717  0.1454 -0.1893
23475OCT     C246950  15.802   9.636  14.552 -0.1648  0.2214 -0.2338
23476OCT     C146951  15.219  15.975   4.088 -0.0825 -0.1520 -0.2520
23476OCT     C246952  14.884  15.898   3.808  0.0983 -0.2483  0.0154
23477OCT     C146953   2.090  15.200  10.268  0.0509 -0.0699  0.1219
23477OCT     C246954   1.997  15.504  10.627 -0.2269  0.0427 -0.2095
23478OCT     C146955  11.697   8.812   0.591 -0.1552 -0.0148  0.1343
23478OCT     C246956  12.089   9.052   0.479  0.0324 -0.0344  0.3171
23479OCT     C146957  22.245  16.846  21.364 -0.1747 -0.2570 -0.0401
23479OCT     C246958  21.942  17.068  21.651 -0.0017  0.0310 -0.0363
23480OCT     C146959   3.354   5.063  22.882 -0.2683 -0.1750  0.3042
23480OCT     C246960   3.669   4.772  22.745 -0.0537  0.1919 -0.4284
23481OCT     C146961   4.345  22.407   4.454 -0.1091 -0.0424 -0.1960
23481OCT     C246962   4.168  22.871   4.426 -0.4606  0.1622  0.0065
23482OCT     C146963  20.558  17.768  11.376 -0.0841 -0.1017  0.3645
23482OCT     C246964  20.301  18.149  11.378 -0.2183  0.0820 -0.4047
23483OCT     C146965   4.341  16.665  15.088  0.1360  0.0962 -0.3593
23483OCT     C246966   4.099  16.651  15.533  0.4480 -0.2572 -0.0875
23484OCT     C146967  22.479   0.814   3.014 -0.1074 -0.1845 -0.0240
23484OCT     C246968  22.953   0.700   3.070  0.4070 -0.2698 -0.1956
23485OCT     C146969   5.597  16.188  16.359 -0.0733 -0.0109 -0.1203
23485OCT     C246970   6.007  16.056  16.077  0.0800 -0.0404 -0.0130
23486OCT     C146971   7.696   4.005  19.423 -0.3394 -0.1986 -0.1329
23486OCT     C246972   7.833   4.277  19.770 -0.0462 -0.3396  0.1104
23487OCT     C146973  12.818   9.946  11.747 -0.1227 -0.0015 -0.0009
23487OCT     C246974  13.274   9.887  11.730 -0.0955 -0.2187  0.2540
23488OCT     C146975   0.310  10.895   6.125 -0.1296  0.2309  0.1193
23488OCT     C246976   0.127  10.626   6.527  0.1186 -0.1059 -0.2914
23489OCT     C146977  20.212   7.234   9.749  0.1548 -0.0574  0.1562
23489OCT     C246978  20.326   7.556   9.420 -0.1671  0.0843 -0.2088
23490OCT     C146979  21.084   5.803   4.743  0.3641 -0.0913  0.0567
23490OCT     C246980  20.639   5.631   4.696 -0.1534  0.3581 -0.3265
23491OCT     C146981  16.199  14.430  18.421 -0.4185 -0.0799 -0.1700
23491OCT     C246982  16.392  14.687  18.063  0.1036 -0.1871  0.2466
23492OCT     C146983  12.508  22.886   3.310  0.1785  0.1781 -0.1330
23492OCT     C246984  12.951  22.867   3.169 -0.0793 -0.0357 -0.1133
23493OCT     C146985   5.317  14.488  14.760 -0.0436  0.1425 -0.0628
23493OCT     C246986   5.672  14.374  15.022 -0.2055 -0.4414 -0.0991
23494OCT     C146987   0.916   5.418  18.588  0.1794 -0.1199  0.2015
23494OCT     C246988   0.427   5.371  18.729  0.2600 -0.2055 -0.1864
23495OCT     C146989   2.159  17.579   9.469  0.0067  0.3000  0.2206
23495OCT     C246990   1.750  17.799   9.346  0.0061  0.1422 -0.0547
23496OCT     C146991  11.045   8.331   6.345 -0.7221  0.1608  0.5204
23496OCT     C246992  11.478   8.194   6.469  0.4446 -0.0793  0.1480
23497OCT     C146993  22.489   3.902   8.066 -0.0481  0.0850 -0.3715
23497OCT     C246994  22.520   3.704   8.481  0.0459  0.0728  0.5087
23498OCT     C146995  21.445   1.495  17.458 -0.0407 -0.0398 -0.0315
23498OCT     C246996  21.426   1.018  17.543 -0.2472  0.0186  0.2199
23499OCT     C146997  18.204  12.384  12.080  0.2466 -0.2509 -0.2942
23499OCT     C246998  18.546  12.074  12.230 -0.1707  0.0617  0.2659
23500OCT     C146999   6.465   8.364  20.057 -0.2136  0.2862  0.1070
23500OCT     C247000   6.440   7.960  20.300  0.0312  0.0684 -0.0098
23501OCT     C147001   0.327   3.338   8.606  0.1023 -0.2312 -0.3616
23501OCT     C247002   0.157   2.985   8.388  0.0897 -0.2421 -0.0381
23502OCT     C147003  15.154  17.165  12.387  0.0847  0.2853  0.1555
23502OCT     C247004  15.571  16.868  12.424  0.0302 -0.0663 -0.0324
23503OCT     C147005  18.635   0.213   9.089 -0.2308  0.2307  0.0140
23503OCT     C247006  18.749   0.156   9.507  0.1499 -0.1199  0.2959
23504OCT     C147007  16.564  10.409   1.242  0.0608  0.4291  0.3748
23504OCT     C247008  16.646  10.864   1.399 -0.1805 -0.2136 -0.0799
23505OCT     C147009  16.169   9.570  19.415 -0.1784 -0.0200 -0.0042
23505OCT     C247010  16.116   9.869  19.803 -0.2566 -0.2460  0.2022
23506OCT     C147011  21.401  16.117  11.988 -0.0914  0.1922 -0.1115
23506OCT     C247012  21.818  15.880  12.001 -0.0424  0.4217 -0.0733
23507OCT     C147013   0.777  20.151  20.944 -0.5754 -0.0409 -0.2538
23507OCT     C247014   0.641  19.750  21.098 -0.1247  0.2847 -0.3178
23508OCT     C147015   9.246  19.251  10.229 -0.1941 -0.2859  0.1216
23508OCT     C247016   8.860  19.169  10.404 -0.1132 -0.0562 -0.3428
23509OCT     C147017  10.486   7.445   0.195  0.0666 -0.0059 -0.1864
23509OCT     C247018  10.889   7.682   0.213 -0.1142  0.1646 -0.3597
23510OCT     C147019  22.349  14.703  23.546  0.1243  0.1174  0.2486
23510OCT     C247020  22.090  14.371   0.014  0.0054  0.0462 -0.2526
23511OCT     C147021   9.442   3.716  16.763 -0.0177  0.0043  0.3114
23511OCT     C247022   9.630   3.278  16.764  0.0367  0.2145 -0.2718
23512OCT     C147023  20.548  13.306  19.472  0.0279 -0.1838 -0.0737
23512OCT     C247024  20.224  13.443  19.788  0.0288 -0.0104  0.1095
23513OCT     C147025   8.091  18.797  20.291  0.0991 -0.3082  0.0082
23513OCT     C247026   7.982  18.303  20.401  0.1012 -0.1782  0.0405
23514OCT     C147027  21.071   1.432  17.107 -0.2136  0.0020  0.3880
23514OCT     C247028  20.908   1.140  17.411  0.0394  0.0644  0.0537
23515OCT     C147029  18.438  11.194  10.236 -0.0078  0.0034 -0.0203
23515OCT     C247030  18.873  11.307  10.309  0.1797  0.0005 -0.1385
23516OCT     C147031  15.440  13.476   0.581 -0.0980 -0.5953  0.2684
23516OCT     C247032  15.786  13.252   0.768 -0.2495  0.3973  0.2098
23517OCT     C147033   1.756  11.238   3.567  0.1717  0.0431 -0.0991
23517OCT     C247034   2.094  11.509   3.384  0.1305  0.1174 -0.0818
23518OCT     C147035  14.321   6.989   3.215  0.3963  0.0495  0.0189
23518OCT     C247036  14.179   6.715   2.874 -0.0944  0.0649 -0.3982
23519OCT     C147037  14.710  17.041  21.208 -0.0623  0.2584  0.3216
23519OCT     C247038  14.704  16.627  21.025  0.0694 -0.2104  0.0897
23520OCT     C147039  19.239  14.159  16.393  0.1348 -0.0779 -0.1778
23520OCT     C247040  19.590  13.966  16.641 -0.2267 -0.0176 -0.2112
23521OCT     C147041   9.074  16.464  13.602  0.1317  0.2057  0.1790
23521OCT     C247042   8.854  16.116  13.579  0.2782  0.2101  0.1007
23522OCT     C147043   5.360  18.000   0.523  0.1816 -0.1678  0.3641
23522OCT     C247044   5.625  17.794   0.195 -0.1378 -0.1105 -0.0610
23523OCT     C147045  15.104  12.406   2.553  0.1501 -0.2612  0.0598
23523OCT     C247046  15.270  11.996   2.406 -0.3243 -0.4115  0.1965
23524OCT     C147047   6.650  14.608   3.505 -0.0326  0.0006  0.1035
23524OCT     C247048   7.031  14.262   3.591  0.1458  0.0946  0.0904
23525OCT     C147049   9.121   3.845   5.899 -0.1065 -0.1384  0.1340
23525OCT     C247050   9.318   4.128   6.154  0.0944 -0.1465 -0.3237
23526OCT     C147051  14.020  14.034  13.595  0.0744  0.1996 -0.3861
23526OCT     C247052  13.664  14.352  13.704  0.1151 -0.3009  0.0293
23527OCT     C147053  18.850   1.869  14.355 -0.1437 -0.2512 -0.2088
23527OCT     C247054  18.665   1.476  14.204 -0.3712 -0.0605  0.0701
23528OCT     C147055   9.372  19.747  20.672 -0.1657 -0.1080  0.2288
23528OCT     C247056   9.727  20.053  20.670  0.0632 -0.5746 -0.1993
23529OCT     C147057  16.708  16.799  18.478  0.0269 -0.3851  0.2769
23529OCT     C247058  17.046  16.462  18.274 -0.0035 -0.1661  0.1397
23530OCT     C147059   4.885   5.605  21.110  0.5678  0.1535 -0.0252
23530OCT     C247060   4.808   5.114  21.074  0.2405 -0.0824  0.1682
23531OCT     C147061   9.168  11.212   7.697  0.1525  0.0973 -0.1202
23531OCT     C247062   8.939  11.605   7.559  0.0420 -0.2622  0.1985
23532OCT     C147063  21.564  12.462  21.990 -0.0823 -0.1436  0.0825
23532OCT     C247064  21.228  12.683  21.760 -0.2019 -0.4505  0.0794
23533OCT     C147065   5.314  16.259  18.732  0.0381  0.1684  0.0657
23533OCT     C247066   5.007  16.547  18.916 -0.2278  0.0847  0.3283
23534OCT     C147067  14.592   9.488  13.449 -0.4007 -0.3207 -0.0653
23534OCT     C247068  14.886   9.373  13.118 -0.1498 -0.2103  0.3572
23535OCT     C147069   4.116   1.783  15.669  0.3826  0.0426 -0.0335
23535OCT     C247070   4.122   2.223  15.757  0.1535 -0.0642 -0.0333
23536OCT     C147071   3.591   1.318  14.206  0.2765 -0.1492  0.1646
23536OCT     C247072   4.052   1.462  14.182 -0.1281 -0.0105  0.4646
23537OCT     C147073  18.532   3.395  19.782 -0.1219  0.0347  0.0570
23537OCT     C247074  18.365   2.931  19.661  0.4082  0.0368  0.0774
23538OCT     C147075  20.107  10.841  19.558 -0.4451 -0.1485  0.2771
23538OCT     C247076  19.878  10.484  19.385 -0.1014  0.0775 -0.3448
23539OCT     C147077  22.989  13.029   0.718 -0.2178 -0.1294  0.3457
23539OCT     C247078  22.934  13.312   0.325  0.0783  0.2863 -0.0060
23540OCT     C147079  10.018   7.675  14.553  0.2307  0.0799 -0.1329
23540OCT     C247080   9.841   7.361  14.870 -0.0713  0.0827  0.5420
23541OCT     C147081  23.535  16.239  12.720  0.0482 -0.2620  0.1648
23541OCT     C247082   0.105  16.507  12.931 -0.0573 -0.0591  0.1911
23542OCT     C147083   7.061  17.665  21.500  0.0933  0.1704 -0.0889
23542OCT     C247084   7.153  18.079  21.734  0.0489  0.3621  0.2814
23543OCT     C147085  11.879  11.141   0.401 -0.0612 -0.1621 -0.3175
23543OCT     C247086  11.702  10.914   0.718 -0.0501  0.0890 -0.2911
23544OCT     C147087   6.113  17.613   3.251  0.1861 -0.0799  0.1271
23544OCT     C247088   6.440  17.804   2.978 -0.6961  0.0258  0.1534
23545OCT     C147089  21.757  13.871  23.490 -0.0766 -0.0945  0.0825
23545OCT     C247090  21.349  13.611  23.442  0.3030 -0.2394 -0.0434
23546OCT     C147091  10.602  17.474  20.046 -0.1427  0.1040  0.0382
23546OCT     C247092  10.869  17.100  19.951 -0.1193 -0.0063 -0.2913
23547OCT     C147093   9.327  22.950  18.899  0.3461  0.0685  0.1806
23547OCT     C247094   9.597  22.927  19.257  0.0746 -0.3060 -0.0328
23548OCT     C147095  16.189   2.495   6.593  0.1164 -0.0329  0.2822
23548OCT     C247096  15.785   2.303   6.714 -0.0288 -0.0024  0.3768
23549OCT     C147097   8.038  21.369  10.060 -0.2819  0.1731 -0.0445
23549OCT     C247098   7.664  21.392   9.816  0.0921 -0.2399 -0.1803
23550OCT     C147099   1.758  14.392  15.631  0.1816  0.0748 -0.0479
23550OCT     C247100   1.725  14.034  15.880  0.1750 -0.1282  0.4835
23551OCT     C147101   3.750  21.288   3.096 -0.3142 -0.1144  0.1069
23551OCT     C247102   3.349  21.569   2.967 -0.0396 -0.1454 -0.1964
23552OCT     C147103  16.620  19.361  12.353  0.1279  0.1101 -0.0702
23552OCT     C247104  16.533  18.902  12.274 -0.1465  0.2593  0.1023
23553OCT     C147105  21.205   3.238   2.511  0.4033  0.1594  0.2470
23553OCT     C247106  21.288   3.579   2.800 -0.3040 -0.0626 -0.1623
23554OCT     C147107  21.683   1.531  19.365  0.1727 -0.0318  0.1265
23554OCT     C247108  21.419   1.775  19.696 -0.2075  0.0822  0.1874
23555OCT     C147109  11.892   2.093   5.994 -0.2586  0.0291 -0.0069
23555OCT     C247110  11.811   1.953   6.494  0.2214 -0.0348 -0.0784
23556OCT     C147111   4.420  21.699   2.379  0.0076 -0.0063 -0.0649
23556OCT     C247112   4.189  21.554   2.768  0.2246 -0.2121 -0.0662
23557OCT     C147113  12.091  10.030   7.267  0.0171 -0.1986  0.0966
23557OCT     C247114  12.064  10.470   7.296  0.0893  0.3491  0.1433
23558OCT     C147115   0.060  10.237  14.303 -0.2229 -0.1112  0.0919
23558OCT     C247116  23.555  10.276  14.713  0.2547 -0.2430 -0.1065
23559OCT     C147117   7.861   6.788  17.157  0.0677 -0.3651  0.1432
23559OCT     C247118   7.777   7.034  16.796 -0.0135  0.0630  0.2104
23560OCT     C147119   7.427   5.477   3.961  0.1075  0.2953  0.3067
23560OCT     C247120   7.791   5.637   4.219 -0.1978  0.2790 -0.1697
23561OCT     C147121  10.735  17.285  11.766 -0.1272  0.2865 -0.3414
23561OCT     C247122  10.941  17.401  11.342  0.3031 -0.1034  0.0757
23562OCT     C147123  18.936  21.832   0.823 -0.1905  0.1957 -0.2738
23562OCT     C247124  19.013  21.367   0.854  0.0155 -0.1675 -0.3502
23563OCT     C147125   6.731   2.694  17.098  0.1701 -0.1509 -0.1881
23563OCT     C247126   6.705   2.642  16.610  0.2291  0.2384 -0.2169
23564OCT     C147127   5.416  12.763  16.369 -0.1050 -0.1787 -0.5295
23564OCT     C247128   5.278  12.865  15.937  0.1640  0.1111 -0.0730
23565OCT     C147129  19.850  13.379  21.847 -0.2824 -0.1801 -0.2267
23565OCT     C247130  19.787  13.066  22.162 -0.3872 -0.3133 -0.3215
23566OCT     C147131  17.752   5.218  22.401  0.0352 -0.2205 -0.1368
23566OCT     C247132  17.531   5.420  22.046  0.2170  0.3284  0.1859
23567OCT     C147133   0.501  22.244  12.447  0.1271 -0.5078  0.0741
23567OCT     C247134   0.783  22.105  12.102  0.0506 -0.0487 -0.1331
23568OCT     C147135   6.494  14.577  15.190 -0.1874  0.0371  0.2041
23568OCT     C247136   6.199  14.307  15.011  0.3376 -0.2867  0.0587
23569OCT     C147137   2.913   3.655  18.777  0.1107 -0.0782  0.1112
23569OCT     C247138   3.259   3.390  19.013  0.0703  0.0165 -0.1008
23570OCT     C147139   4.773  15.326   7.649  0.0544 -0.1580  0.2508
23570OCT     C247140   5.176  15.074   7.713  0.2752 -0.0155  0.1777
23571OCT     C147141   0.639  11.025   0.437  0.0651 -0.1335 -0.2727
23571OCT     C247142   1.026  10.972   0.612  0.4989  0.3980  0.0341
23572OCT     C147143   9.381   3.094  20.735 -0.3879  0.3480 -0.3947
23572OCT     C247144   9.227   3.087  21.242  0.0158  0.0850  0.2249
23573OCT     C147145  15.492   8.914   7.518  0.0020  0.0523  0.0601
23573OCT     C247146  15.191   9.254   7.433 -0.1044  0.0541 -0.0830
23574OCT     C147147   4.015   1.911  19.797  0.3897 -0.0494  0.2541
23574OCT     C247148   3.838   2.250  19.547  0.2472 -0.2349 -0.0350
23575OCT     C147149  10.159  22.015   1.985 -0.3178  0.1436  0.0171
23575OCT     C247150  10.209  22.276   2.442 -0.1498  0.2208 -0.2798
23576OCT     C147151   4.229   9.340  21.650  0.1420 -0.0242 -0.2630
23576OCT     C247152   4.262   8.888  21.417 -0.0862  0.0226 -0.2865
23577OCT     C147153  11.337   1.185  22.644  0.2424  0.0620  0.0893
23577OCT     C247154  11.314   0.904  22.972  0.3127  0.5868 -0.2080
23578OCT     C147155  10.883  22.715  15.894 -0.3001  0.2088 -0.2609
23578OCT     C247156  11.350  22.651  15.948  0.4196  0.0514 -0.2568
23579OCT     C147157   9.234  11.314  18.526  0.0491 -0.1140 -0.4369
23579OCT     C247158   8.962  11.577  18.235  0.1959 -0.2444 -0.0125
23580OCT     C147159  10.564  17.923  19.288 -0.1771 -0.2002  0.0311
23580OCT     C247160  11.023  18.011  19.451  0.2743 -0.1250 -0.0210
23581OCT     C147161  17.868  17.150   8.339 -0.4180 -0.0612 -0.0593
23581OCT     C247162  17.909  17.638   8.449 -0.4139 -0.1714  0.1949
23582OCT     C147163  12.734  18.137  23.189 -0.2781  0.4087 -0.1260
23582OCT     C247164  12.308  17.921  23.049 -0.3200 -0.3872 -0.0706
23583OCT     C147165  14.739  13.725   0.336 -0.1708  0.1114 -0.0499
23583OCT     C247166  14.466  13.415   0.520 -0.2095 -0.1475 -0.1335
23584OCT     C147167  21.686  19.494  20.107 -0.0730  0.0954  0.0898
23584OCT     C247168  21.831  19.913  19.915 -0.1028  0.1882  0.0876
23585OCT     C147169   2.547   0.334  20.494 -0.4578  0.1572  0.3897
23585OCT     C247170   3.065   0.303  20.494  0.3937 -0.0586  0.1161
23586OCT     C147171  15.979  16.703  20.592 -0.0999 -0.3629 -0.0254
23586OCT     C247172  15.863  16.717  21.027  0.4215 -0.0058  0.2142
23587OCT     C147173  16.558   7.283   7.243 -0.1018 -0.0172 -0.3779
23587OCT     C247174  16.432   6.992   7.557 -0.2535  0.0565 -0.1096
23588OCT     C147175  17.517  22.457   4.657  0.2432  0.0188  0.4269
23588OCT     C247176  17.237  22.625   4.414 -0.0026  0.2435  0.2822
23589OCT     C147177   3.861  18.461  12.389 -0.0730 -0.1509 -0.1817
23589OCT     C247178   3.624  18.243  12.038 -0.0080  0.0072  0.3312
23590OCT     C147179   9.627   8.574   2.842 -0.0896  0.1648 -0.3561
23590OCT     C247180   9.888   8.742   2.512  0.0792 -0.1609  0.0096
23591OCT     C147181   3.328  10.466  20.348 -0.0034  0.3114  0.1720
23591OCT     C247182   3.085  10.550  20.735 -0.0740  0.0890  0.3348
23592OCT     C147183   1.151  23.731  21.217  0.0907  0.1017 -0.3848
23592OCT     C247184   1.212  23.394  20.854 -0.0604 -0.0409 -0.1866
23593OCT     C147185  14.330  22.486   6.603  0.1628  0.1981 -0.0647
23593OCT     C247186  14.576  22.605   6.987 -0.5048  0.0821  0.0610
23594OCT     C147187   4.892  23.020  18.662 -0.1002 -0.0937  0.0912
23594OCT     C247188   5.225  23.324  18.628  0.3897 -0.1089 -0.1392
23595OCT     C147189   2.153  11.464  10.370  0.2567  0.1648  0.1897
23595OCT     C247190   1.849  11.094  10.390  0.1825  0.1984 -0.0230
23596OCT     C147191  12.972   3.241   3.670  0.3224  0.3743  0.0319
23596OCT     C247192  12.497   3.155   3.811 -0.0426 -0.2676 -0.2155
23597OCT     C147193  17.745  18.119  10.754 -0.1460 -0.2293 -0.1684
23597OCT     C247194  17.982  17.773  11.038 -0.5156 -0.5530  0.4733
23598OCT     C147195   9.126   8.332  18.779 -0.3082  0.1235 -0.1748
23598OCT     C247196   9.444   8.559  18.996  0.0806 -0.1712 -0.0161
23599OCT     C147197  20.852  15.911  19.866 -0.3013  0.1422  0.2849
23599OCT     C247198  20.808  16.105  20.229  0.2175  0.0221  0.0056
23600OCT     C147199  16.170  22.123   3.549  0.0446  0.5452  0.0991
23600OCT     C247200  16.467  21.856   3.291 -0.0418  0.4994 -0.1970
23601OCT     C147201   1.847  12.574  17.683  0.4998 -0.3474  0.2814
23601OCT     C247202   2.096  12.246  17.881  0.1936 -0.0109 -0.1845
23602OCT     C147203   3.374   9.301   9.873 -0.0198  0.2027  0.4132
23602OCT     C247204   3.313   9.706   9.713 -0.0300  0.1196  0.2934
23603OCT     C147205   5.452  13.325  15.119  0.2048  0.0072 -0.2412
23603OCT     C247206   5.432  13.651  15.443  0.2731 -0.0958 -0.1315
23604OCT     C147207  11.711   6.271  18.251 -0.1886  0.2937 -0.0793
23604OCT     C247208  11.801   5.822  18.454  0.1434  0.0602  0.0651
23605OCT     C147209   2.538   2.687   2.176 -0.0093 -0.1547  0.3394
23605OCT     C247210   2.082   2.845   2.144  0.0574  0.0816  0.0314
23606OCT     C147211   8.601   1.207  14.841  0.6751  0.0595 -0.0035
23606OCT     C247212   8.430   1.674  14.838 -0.0469  0.1284 -0.2090
23607OCT     C147213   9.027   3.784   4.038  0.0121 -0.1558 -0.0937
23607OCT     C247214   9.186   3.394   3.831  0.0150  0.2272 -0.2781
23608OCT     C147215  15.160   3.864   1.354  0.0525  0.1766  0.1774
23608OCT     C247216  15.525   3.627   1.326 -0.4008  0.0982  0.1030
23609OCT     C147217   6.882  13.219  18.380 -0.2346  0.2425  0.2413
23609OCT     C247218   7.207  13.199  18.102 -0.1297 -0.1790  0.3918
23610OCT     C147219  12.984  10.797  13.266  0.1194  0.1865  0.1347
23610OCT     C247220  12.610  10.723  13.524  0.0154 -0.0828  0.3487
23611OCT     C147221  22.687  11.739   6.861  0.3966 -0.0496  0.2873
23611OCT     C247222  22.629  11.265   7.010  0.3376 -0.3070 -0.0466
23612OCT     C147223   4.471   8.046  21.053  0.0348 -0.1993 -0.1277
23612OCT     C247224   4.583   8.480  21.295  0.0427  0.2992 -0.0162
23613OCT     C147225  13.835   0.906  12.039  0.1157 -0.4479  0.1488
23613OCT     C247226  14.053   1.078  12.379 -0.2275  0.0325 -0.3498
23614OCT     C147227  14.690   8.094  18.233 -0.2612 -0.1978  0.3720
23614OCT     C247228  14.371   8.432  18.125 -0.1077  0.0940  0.2088
23615OCT     C147229  20.841   9.895  12.021 -0.0092 -0.2037  0.2917
23615OCT     C247230  20.660  10.241  11.766  0.1787 -0.0488  0.1685
23616OCT     C147231   1.018  10.848  20.244 -0.1376 -0.1892 -0.0624
23616OCT     C247232   1.311  11.146  20.066  0.2818  0.2352  0.1432
23617OCT     C147233   9.834  18.923   8.513  0.1259 -0.1231  0.0316
23617OCT     C247234   9.805  18.802   8.986  0.0183 -0.0590 -0.0900
23618OCT     C147235  20.837   4.792  15.570 -0.2084  0.3090 -0.3700
23618OCT     C247236  21.299   4.850  15.690 -0.1873  0.0660 -0.0422
23619OCT     C147237   3.174   5.836   8.224  0.1035 -0.1094 -0.0483
23619OCT     C247238   3.093   5.377   8.326  0.1296 -0.0045 -0.2525
23620OCT     C147239  10.436   3.074  20.876  0.2217 -0.1667 -0.0215
23620OCT     C247240  10.426   3.393  21.245  0.1254 -0.0282  0.0324
23621OCT     C147241   3.011  17.804  15.225 -0.1152 -0.0527 -0.1967
23621OCT     C247242   3.054  18.222  15.074  0.0244  0.0562  0.1222
23622OCT     C147243   1.227  17.360  22.189  0.2376 -0.2273  0.3001
23622OCT     C247244   0.994  17.006  22.111  0.0622 -0.0157 -0.3297
23623OCT     C147245  21.847  21.310  18.773 -0.3348  0.0412 -0.2337
23623OCT     C247246  21.805  21.727  18.460  0.3395  0.4156 -0.2564
23624OCT     C147247  14.498  10.992   5.495 -0.3008  0.0433 -0.3208
23624OCT     C247248  14.592  10.992   5.938  0.2138 -0.1401  0.2706
23625OCT     C147249  22.025  23.033  20.570 -0.0727 -0.0982  0.4558
23625OCT     C247250  22.319  22.908  20.892 -0.0100  0.0615  0.1069
23626OCT     C147251  16.841  23.078  19.652  0.3285 -0.0543 -0.1244
23626OCT     C247252  16.846  22.805  19.229 -0.3719 -0.0217  0.2718
23627OCT     C147253   0.947   7.192  11.496  0.0306 -0.0107 -0.2296
23627OCT     C247254   0.688   6.897  11.206 -0.0725  0.0841  0.4552
23628OCT     C147255  11.977  23.547  15.112  0.0434 -0.0849 -0.0835
23628OCT     C247256  11.815  23.203  15.376  0.2330 -0.0898  0.1404
23629OCT     C147257  16.634  16.999  10.625 -0.1940 -0.1972 -0.0271
23629OCT     C247258  16.298  17.350  10.593 -0.2749  0.3821 -0.1459
23630OCT     C147259   7.784  10.936   2.957  0.0703 -0.0019  0.0088
23630OCT     C247260   7.992  10.755   2.568 -0.2578 -0.0031  0.0120
23631OCT     C147261  10.551   4.437   7.583  0.1966 -0.2469 -0.0501
23631OCT     C247262  10.338   4.540   7.203  0.1225 -0.0990 -0.0350
23632OCT     C147263  19.127  23.009   2.859  0.0990  0.1031  0.1904
23632OCT     C247264  19.406  23.236   3.098 -0.1128 -0.0571 -0.0902
23633OCT     C147265  22.411   5.393  16.533  0.0612 -0.3280  0.2053
23633OCT     C247266  22.333   4.994  16.751 -0.0846 -0.0255  0.3204
23634OCT     C147267  22.790   3.706  11.753 -0.1546 -0.3620  0.0417
23634OCT     C247268  22.743   4.151  11.751  0.0218 -0.1384 -0.2990
23635OCT     C147269   6.876  17.879   5.148 -0.1437 -0.1560  0.0966
23635OCT     C247270   6.934  17.489   5.330  0.0806  0.2082 -0.2441
23636OCT     C147271  17.710  14.631   0.109  0.0343  0.0480 -0.3969
23636OCT     C247272  17.393  14.526  23.489 -0.0466 -0.0124 -0.2492
23637OCT     C147273  12.269  15.707   7.515  0.0237  0.1067  0.1816
23637OCT     C247274  12.600  15.993   7.568 -0.1250 -0.3245  0.0735
23638OCT     C147275   7.245  23.588  17.632  0.2759  0.1020  0.1957
23638OCT     C247276   7.342   0.272  17.895  0.0493  0.1135 -0.0542
23639OCT     C147277   4.407  10.255  15.611 -0.2107 -0.3636 -0.1798
23639OCT     C247278   4.238  10.662  15.494  0.0946  0.0789  0.1154
23640OCT     C147279   8.665  11.360   0.600  0.0247  0.0221  0.0770
23640OCT     C247280   9.147  11.298   0.549  0.3675 -0.0960 -0.1246
23641OCT     C147281   8.744   0.615   4.202  0.0157 -0.0159 -0.2348
23641OCT     C247282   9.160   0.342   4.201 -0.3452  0.2675  0.1370
23642OCT     C147283   9.718   0.754  12.491 -0.0089 -0.2136 -0.1051
23642OCT     C247284   9.326   0.901  12.690  0.0850 -0.4373  0.2764
23643OCT     C147285  10.464   5.188  12.456  0.4907  0.0986  0.0569
23643OCT     C247286  10.519   4.777  12.721  0.0866 -0.1074  0.1329
23644OCT     C147287  17.039  16.389   6.221  0.0247  0.3400 -0.1411
23644OCT     C247288  16.619  16.458   6.251  0.0853 -0.0327 -0.1158
23645OCT     C147289  12.406   2.840  23.557  0.3977 -0.2532 -0.2308
23645OCT     C247290  12.530   2.764  23.145 -0.0654 -0.3930  0.0309
23646OCT     C147291  18.853  18.520   1.975  0.0580  0.3722  0.2077
23646OCT     C247292  18.473  18.436   1.726 -0.0047  0.3786  0.0776
23647OCT     C147293  11.328  21.309  21.590 -0.1346  0.3691 -0.2143
23647OCT     C247294  11.603  21.065  21.885 -0.0741  0.4456  0.0536
23648OCT     C147295   4.615  21.829  20.610  0.2989 -0.1320 -0.0218
23648OCT     C247296   4.935  21.807  20.989 -0.0554 -0.0370  0.0737
23649OCT     C147297   7.383   7.786   6.852 -0.2222 -0.0727 -0.1720
23649OCT     C247298   7.608   8.116   6.543  0.2147 -0.1249  0.2161
23650OCT     C147299   7.926   6.697   5.017 -0.0915  0.0643 -0.1841
23650OCT     C247300   7.656   7.060   5.159 -0.0903  0.3303 -0.0341
23651OCT     C147301   9.014  18.376   5.907  0.0793  0.1506 -0.0141
23651OCT     C247302   8.799  18.321   5.475 -0.1148 -0.0121  0.1116
23652OCT     C147303   5.026  11.208  14.610 -0.3059 -0.1965 -0.2216
23652OCT     C247304   4.862  10.799  14.513  0.1822 -0.0346  0.0578
23653OCT     C147305   7.965  18.624   8.288  0.3445  0.0536  0.0248
23653OCT     C247306   7.872  19.081   8.187  0.2064 -0.4385 -0.0503
23654OCT     C147307  16.399  19.075  21.824  0.1095 -0.0948 -0.1774
23654OCT     C247308  16.581  19.441  22.025 -0.2295 -0.3362 -0.1766
23655OCT     C147309  15.879  21.158  17.853 -0.0177 -0.2145 -0.0620
23655OCT     C247310  15.618  21.502  17.820  0.0284 -0.2519 -0.1689
23656OCT     C147311  22.268   2.629  13.298  0.2069  0.1135 -0.2154
23656OCT     C247312  22.481   2.704  12.922  0.0642 -0.3609 -0.1214
23657OCT     C147313   8.821   8.327  22.637 -0.1442 -0.1682 -0.2261
23657OCT     C247314   9.209   8.599  22.577 -0.1124  0.7082 -0.1005
23658OCT     C147315  18.451  14.591  15.301 -0.1398 -0.0613 -0.2470
23658OCT     C247316  18.051  14.625  15.021  0.1168 -0.0160  0.2523
23659OCT     C147317   1.999  21.843  14.228 -0.0651 -0.2628  0.4265
23659OCT     C247318   2.346  21.726  13.939 -0.1241  0.0625  0.2074
23660OCT     C147319   1.064  20.184   2.293  0.2027 -0.2195 -0.1904
23660OCT     C247320   0.884  20.658   2.383 -0.1844  0.0061  0.3202
23661OCT     C147321  17.442   8.089   6.176  0.0052  0.0271 -0.1257
23661OCT     C247322  16.968   8.022   6.157  0.3032 -0.0189  0.1158
23662OCT     C147323  17.538  21.365   0.700  0.0087  0.0210  0.2363
23662OCT     C247324  17.781  20.992   0.655 -0.1014  0.1540 -0.2552
23663OCT     C147325  19.095  12.119   8.204  0.2396  0.1963 -0.3025
23663OCT     C247326  19.447  12.113   7.930 -0.0917 -0.2114 -0.0364
23664OCT     C147327   7.085   3.300   4.878  0.3571  0.4987  0.3712
23664OCT     C247328   6.828   3.121   5.198  0.0840 -0.1051 -0.0809
23665OCT     C147329  18.216   1.742  12.912  0.1143 -0.1505  0.4397
23665OCT     C247330  18.067   2.137  13.142 -0.1248 -0.2413  0.2816
23666OCT     C147331  14.724  11.555   3.425  0.1501 -0.0194  0.0750
23666OCT     C247332  14.885  11.176   3.296  0.2997 -0.1825 -0.4164
23667OCT     C147333  14.815  19.930  15.065  0.2357  0.2304  0.0250
23667OCT     C247334  14.858  19.988  14.627 -0.1509 -0.0512 -0.2539
23668OCT     C147335  19.816  16.742   5.848 -0.1978  0.1814 -0.2051
23668OCT     C247336  19.877  16.657   5.397  0.2310 -0.0608 -0.1392
23669OCT     C147337  11.481   4.322  11.916  0.0362 -0.1871 -0.1652
23669OCT     C247338  11.785   4.671  11.933 -0.0342  0.2555  0.0693
23670OCT     C147339   6.840  13.178   5.166 -0.1337  0.1377  0.2130
23670OCT     C247340   7.111  13.550   5.064 -0.3279 -0.0962  0.0168
23671OCT     C147341   5.819  11.248  11.010  0.1693 -0.1520  0.1063
23671OCT     C247342   5.882  10.762  11.160  0.1680 -0.1053  0.0097
23672OCT     C147343   5.370   8.565   4.653  0.1147  0.2651  0.3882
23672OCT     C247344   5.333   9.038   4.642  0.0187  0.1301  0.0060
23673OCT     C147345   5.279  21.731   0.765 -0.1227  0.0843  0.1320
23673OCT     C247346   5.136  21.352   0.486 -0.0123 -0.1524  0.2455
23674OCT     C147347  14.017  20.035   9.519 -0.5646 -0.2612 -0.0068
23674OCT     C247348  13.953  20.212   9.958  0.0659 -0.1331  0.0006
23675OCT     C147349  20.288   3.732  11.931 -0.2735  0.1627 -0.1097
23675OCT     C247350  20.271   4.026  12.264  0.1344  0.1184  0.4450
23676OCT     C147351  17.830  19.933  14.377 -0.3346 -0.1453 -0.0174
23676OCT     C247352  17.397  19.851  14.202 -0.0051 -0.1141  0.0811
23677OCT     C147353   5.619  10.296   3.234 -0.0248  0.0095 -0.1384
23677OCT     C247354   5.278  10.040   3.192  0.0336  0.3026 -0.1139
23678OCT     C147355  19.160  10.994  18.363  0.2001 -0.3463  0.3146
23678OCT     C247356  19.257  11.412  18.601 -0.1447  0.4148 -0.0652
23679OCT     C147357   8.606  12.196  17.410  0.3046  0.3224 -0.3397
23679OCT     C247358   8.174  12.044  17.368 -0.1261 -0.5289 -0.1327
23680OCT     C147359  22.198   8.247   7.863 -0.0379 -0.5361  0.2061
23680OCT     C247360  21.896   7.948   8.026  0.1460 -0.4465 -0.0024
23681OCT     C147361  20.604  16.711  14.050  0.1201  0.4219 -0.3779
23681OCT     C247362  20.774  16.335  13.910  0.2411  0.1808  0.0379
23682OCT     C147363  17.875   9.197  19.119  0.0085 -0.4128  0.0387
23682OCT     C247364  17.586   8.842  19.033  0.1472  0.0066  0.0097
23683OCT     C147365   5.163  13.624  19.745 -0.3974  0.1219  0.0144
23683OCT     C247366   4.901  13.810  19.421 -0.0124  0.1019 -0.1372
23684OCT     C147367  15.666  19.031  11.829 -0.1615 -0.3887 -0.1708
23684OCT     C247368  16.107  19.109  11.885  0.3784 -0.1564  0.2696
23685OCT     C147369   9.009   0.909  19.431  0.0739  0.0625 -0.0073
23685OCT     C247370   8.832   1.282  19.477  0.0083  0.2492 -0.2794
23686OCT     C147371   7.925   7.533  19.538  0.0402 -0.0372 -0.2413
23686OCT     C247372   7.571   7.489  19.188  0.0475  0.0585  0.0540
23687OCT     C147373   3.052   5.913  14.851 -0.3439 -0.2299 -0.1014
23687OCT     C247374   3.434   5.819  15.118  0.0320  0.0120 -0.0482
23688OCT     C147375   8.982   0.996  22.999  0.1255  0.0352 -0.0654
23688OCT     C247376   8.686   0.857  23.371 -0.0491 -0.1220 -0.1636
23689OCT     C147377  21.618   3.715  23.401  0.4771  0.2370  0.3736
23689OCT     C247378  21.376   4.113  23.210 -0.4640 -0.0826 -0.0416
23690OCT     C147379  17.194  12.051   7.454  0.3481  0.0865  0.0418
23690OCT     C247380  16.850  12.152   7.108 -0.2737  0.0688  0.0199
23691OCT     C147381  21.078   3.589  19.463  0.1036  0.1797  0.1520
23691OCT     C247382  20.843   3.894  19.734  0.1404  0.3456 -0.1718
23692OCT     C147383   4.345   4.706   7.904 -0.0383  0.0774  0.3749
23692OCT     C247384   4.246   4.524   8.291  0.0880  0.1818 -0.0325
23693OCT     C147385   9.738   5.261  11.678 -0.5099  0.3415 -0.2405
23693OCT     C247386   9.568   5.088  11.254 -0.1775  0.1817  0.2821
23694OCT     C147387  13.097   4.248  12.291 -0.1662 -0.0327 -0.2268
23694OCT     C247388  13.183   4.687  12.236 -0.0711  0.0401 -0.0921
23695OCT     C147389  10.604  15.404   9.856  0.1887 -0.0901 -0.3123
23695OCT     C247390  10.835  15.832   9.813  0.5027 -0.1547 -0.3001
23696OCT     C147391  11.951   3.922  15.539 -0.1162 -0.0151  0.0086
23696OCT     C247392  11.759   3.739  15.102  0.4378  0.0255  0.1441
23697OCT     C147393  15.340   1.778  16.215 -0.2300 -0.3854  0.0194
23697OCT     C247394  15.663   1.836  16.593  0.3630  0.0304 -0.0518
23698OCT     C147395  18.381   1.721  11.862 -0.1444 -0.5161 -0.2481
23698OCT     C247396  18.209   1.607  12.295  0.0313  0.2896 -0.1774
23699OCT     C147397  20.829   9.597   6.968  0.0257 -0.2681 -0.2109
23699OCT     C247398  20.744   9.846   7.336 -0.2300  0.2746 -0.1005
23700OCT     C147399  20.231   7.533   8.755 -0.1282  0.4333  0.0674
23700OCT     C247400  20.410   7.918   8.578 -0.0106 -0.1003 -0.2612
23701OCT     C147401   4.516   6.673  18.307  0.0263  0.0681 -0.3626
23701OCT     C247402   4.696   6.247  18.224 -0.1250  0.0689 -0.2729
23702OCT     C147403  23.240  20.856  18.156 -0.5423 -0.0488 -0.2711
23702OCT     C247404  23.207  20.490  18.414 -0.0078 -0.0364  0.2513
23703OCT     C147405  20.145  21.933  13.952  0.2230 -0.0532  0.1822
23703OCT     C247406  19.767  22.126  13.862  0.1278  0.1711  0.0555
23704OCT     C147407  18.749  13.057  17.986  0.0847 -0.2144 -0.0382
23704OCT     C247408  18.808  13.446  17.672 -0.0802 -0.1810 -0.2378
23705OCT     C147409  13.980  21.947   6.232 -0.4778  0.0047  0.1595
23705OCT     C247410  13.668  21.948   6.531 -0.1128  0.1098  0.3903
23706OCT     C147411  22.750  20.928  18.333 -0.0332  0.1873  0.4260
23706OCT     C247412  22.894  21.102  17.917 -0.1293 -0.1274 -0.0050
23707OCT     C147413  15.727   4.333  10.539 -0.5769  0.0584  0.1872
23707OCT     C247414  15.993   4.142  10.205 -0.1602  0.0947  0.2350
23708OCT     C147415  13.546   5.596  14.477 -0.2212  0.1875  0.1139
23708OCT     C247416  13.239   5.257  14.402 -0.1933 -0.3253  0.2830
23709OCT     C147417   8.824   1.052  17.692  0.0240 -0.0902 -0.0169
23709OCT     C247418   9.255   0.815  17.573 -0.0385 -0.2307  0.4036
23710OCT     C147419   0.939  19.550   8.253 -0.1086 -0.2922 -0.1605
23710OCT     C247420   1.097  19.224   8.518  0.1154 -0.2204  0.2125
23711OCT     C147421  15.648  13.263   8.855  0.3342  0.0435  0.1031
23711OCT     C247422  15.467  13.084   9.261 -0.0086 -0.0285 -0.1260
23712OCT     C147423   1.683   1.515  12.783  0.0532  0.1891  0.3037
23712OCT     C247424   2.052   1.231  12.699  0.0706  0.0221  0.0269
23713OCT     C147425  15.830   4.193   2.871  0.1295  0.1553  0.0234
23713OCT     C247426  16.050   3.800   2.688  0.1492 -0.1693 -0.1888
23714OCT     C147427   9.885  14.342   1.057 -0.0852 -0.3192  0.2386
23714OCT     C247428   9.782  13.995   0.779 -0.2314  0.3055  0.0748
23715OCT     C147429  16.446   1.917  21.963 -0.0999  0.0606 -0.0611
23715OCT     C247430  16.708   2.261  22.035  0.4807  0.0158 -0.2913
23716OCT     C147431  18.877   2.142  12.792 -0.2422  0.1190  0.1692
23716OCT     C247432  18.784   1.746  12.872  0.2992  0.1092 -0.0252
23717OCT     C147433  18.096   2.752   9.273 -0.2155  0.1118  0.1743
23717OCT     C247434  18.286   2.919   9.592  0.0173  0.0084  0.0904
23718OCT     C147435   8.184  15.203  16.250 -0.2759  0.1104 -0.0504
23718OCT     C247436   8.073  15.338  15.798 -0.6075  0.0063 -0.3659
23719OCT     C147437   7.942  17.133   2.241  0.1304  0.1659  0.1005
23719OCT     C247438   7.559  17.183   2.549  0.2201 -0.0790 -0.1869
23720OCT     C147439  22.810  20.763  13.382  0.1300  0.3241 -0.2667
23720OCT     C247440  23.143  20.856  13.015 -0.1704  0.1019  0.0696
23721OCT     C147441   2.408   8.724   2.688  0.0879 -0.3669 -0.1525
23721OCT     C247442   2.669   8.706   3.023  0.0722 -0.1273 -0.2920
23722OCT     C147443   5.603  10.016   3.641  0.2647  0.2207 -0.0364
23722OCT     C247444   5.245  10.242   3.647  0.4265 -0.0102  0.2146
23723OCT     C147445   4.177   7.278   7.121 -0.2156  0.4587 -0.1591
23723OCT     C247446   4.459   7.613   7.240  0.0800  0.0243 -0.3378
23724OCT     C147447   4.789   5.887  14.343  0.2074 -0.1255 -0.0589
23724OCT     C247448   4.939   5.595  14.656 -0.2002  0.0961 -0.1618
23725OCT     C147449  23.129  12.281  11.269  0.2998 -0.2036  0.0208
23725OCT     C247450  23.144  12.742  11.274  0.0067  0.0158  0.2303
23726OCT     C147451  22.118  22.366   6.766 -0.0262  0.2991 -0.0597
23726OCT     C247452  22.633  22.273   6.649  0.3718 -0.3581  0.0510
23727OCT     C147453  16.574  21.673  17.904 -0.0942 -0.0186 -0.1912
23727OCT     C247454  16.836  21.896  18.268  0.0588 -0.0859  0.0654
23728OCT     C147455  16.463   9.689  23.099 -0.1273 -0.1163  0.1667
23728OCT     C247456  16.769   9.596  22.714 -0.1294  0.1091  0.2876
23729OCT     C147457  15.411  12.506  15.554 -0.0750  0.6926  0.0304
23729OCT     C247458  15.890  12.478  15.370  0.1392  0.0591 -0.0756
23730OCT     C147459  15.043  18.746  12.560  0.5157 -0.1220  0.0950
23730OCT     C247460  14.578  18.843  12.614 -0.0811 -0.0378 -0.1017
23731OCT     C147461   4.118   1.299   4.168  0.1621  0.3044 -0.0127
23731OCT     C247462   4.456   1.020   4.343 -0.2402  0.0948 -0.0952
23732OCT     C147463   7.662   1.278  10.538  0.0518 -0.0507 -0.2542
23732OCT     C247464   7.212   1.150  10.740 -0.0202  0.3566 -0.0131
23733OCT     C147465   0.821  21.020   1.562  0.1311 -0.0966  0.2019
23733OCT     C247466   0.911  21.088   2.039  0.0006 -0.0100  0.2008
23734OCT     C147467  16.117   8.031  22.606 -0.2167  0.2177  0.1542
23734OCT     C247468  15.835   8.363  22.369  0.0459 -0.0618 -0.0551
23735OCT     C147469   5.416  13.045  19.242  0.0319  0.0324  0.1835
23735OCT     C247470   5.409  12.736  18.828 -0.1146 -0.4368 -0.4418
23736OCT     C147471  23.690  15.368  20.928  0.1953 -0.7005  0.2604
23736OCT     C247472   0.268  15.602  21.260  0.2981  0.1003  0.0387
23737OCT     C147473  16.023  19.442   9.234  0.2172  0.0534 -0.2959
23737OCT     C247474  16.459  19.456   9.207  0.0045 -0.2456  0.2338
23738OCT     C147475   5.242   6.999   8.906  0.3815  0.0897 -0.2826
23738OCT     C247476   5.362   6.634   9.144 -0.2358  0.3319  0.0314
23739OCT     C147477  18.756   0.833  22.835 -0.2241 -0.1730  0.2561
23739OCT     C247478  19.050   1.221  22.664 -0.1433  0.1925 -0.1105
23740OCT     C147479  22.188   5.908   1.290  0.4594  0.0204 -0.2431
23740OCT     C247480  21.901   5.576   1.161 -0.0516  0.3023  0.0079
23741OCT     C147481   8.487   9.525   8.881  0.1100  0.1340  0.2093
23741OCT     C247482   8.738   9.490   8.499  0.0766  0.2678 -0.0796
23742OCT     C147483   3.961  13.532   1.892 -0.0355  0.0635 -0.4086
23742OCT     C247484   4.369  13.511   1.621  0.0771  0.0362  0.0406
23743OCT     C147485   5.761   4.167  17.103  0.4070 -0.0204  0.2337
23743OCT     C247486   5.960   3.809  17.070  0.1062  0.4914 -0.1648
23744OCT     C147487  16.719  22.469  14.769 -0.0427  0.2470  0.0713
23744OCT     C247488  17.009  22.211  15.077  0.3108 -0.0554  0.1323
23745OCT     C147489  10.487  21.002  16.329  0.1718  0.0355  0.0169
23745OCT     C247490  10.252  20.848  15.950  0.1569 -0.0488 -0.2330
23746OCT     C147491   6.910  18.091  19.748 -0.1587 -0.0435 -0.2777
23746OCT     C247492   6.913  17.884  19.326  0.4785 -0.1182  0.1895
23747OCT     C147493   3.992   5.304   6.966  0.2466  0.0222  0.1381
23747OCT     C247494   3.522   5.335   7.038  0.0787 -0.1964 -0.0544
23748OCT     C147495   3.252   6.545  18.712  0.1447  0.0281  0.1291
23748OCT     C247496   2.892   6.768  18.878  0.0989 -0.1093  0.4869
23749OCT     C147497  20.400  13.136  12.904 -0.1907  0.3740 -0.0622
23749OCT     C247498  20.350  13.613  12.781 -0.0236  0.0430 -0.2658
23750OCT     C147499   3.457  14.168  16.910 -0.0473  0.0077 -0.5370
23750OCT     C247500   3.718  13.844  17.174  0.1992  0.2680 -0.0302
23751OCT     C147501  23.132   3.611   6.452  0.1521 -0.0258  0.2235
23751OCT     C247502  22.901   3.634   6.850 -0.2283 -0.1477 -0.0272
23752OCT     C147503   2.952   6.360   1.861 -0.0806  0.0949 -0.3085
23752OCT     C247504   3.091   6.776   1.714 -0.0842  0.3227  0.0747
23753OCT     C147505   8.890  22.657   0.467 -0.3692  0.2478  0.0456
23753OCT     C247506   9.069  22.304   0.227 -0.0715  0.7713  0.1945
23754OCT     C147507  20.622  19.585   1.220 -0.1201 -0.0446 -0.0342
23754OCT     C247508  20.414  19.641   1.635  0.2831 -0.0415 -0.1527
23755OCT     C147509   5.600  16.833  22.057  0.1329  0.2384  0.0602
23755OCT     C247510   5.469  17.295  22.265  0.0521  0.0553  0.0129
23756OCT     C147511  14.795  22.354  17.198  0.2470  0.0572 -0.2652
23756OCT     C247512  15.176  22.601  17.017 -0.2533 -0.3231 -0.2057
23757OCT     C147513  21.560   3.858  10.375  0.1960  0.0589  0.1783
23757OCT     C247514  21.747   3.514  10.693  0.2210  0.4153 -0.1764
23758OCT     C147515  15.534   3.648  16.962  0.0580 -0.0633 -0.0578
23758OCT     C247516  15.455   4.001  16.695 -0.2711  0.2672  0.1104
23759OCT     C147517   0.803   4.062  12.181  0.2031 -0.1879  0.3013
23759OCT     C247518   1.155   3.773  12.087  0.2433  0.1573 -0.4451
23760OCT     C147519  10.835   2.711   7.292 -0.1829 -0.0736 -0.1310
23760OCT     C247520  11.031   2.932   7.619 -0.0562 -0.1324 -0.0662
23761OCT     C147521  14.828  14.464  23.268  0.1937  0.0834 -0.0891
23761OCT     C247522  14.674  14.736  22.984 -0.0106  0.3167  0.0104
23762OCT     C147523   4.940   1.414   8.587 -0.2261  0.1069 -0.1498
23762OCT     C247524   4.540   1.570   8.481 -0.1107  0.0667 -0.2956
23763OCT     C147525  14.402  21.504  18.713  0.1166  0.0110 -0.0093
23763OCT     C247526  14.113  21.475  19.068 -0.3047 -0.1039  0.1312
23764OCT     C147527  10.203  22.695  17.207 -0.1465 -0.3197  0.2601
23764OCT     C247528   9.728  22.692  17.096 -0.3574  0.0182  0.0444
23765OCT     C147529   2.981  22.951   1.392  0.3506  0.1074  0.1559
23765OCT     C247530   2.905  22.956   0.918  0.0808  0.0429 -0.2140
23766OCT     C147531  20.647  19.104  11.580 -0.2055  0.0875  0.2311
23766OCT     C247532  20.674  19.477  11.336  0.0326 -0.5143  0.2009
23767OCT     C147533  23.272  18.468   3.931  0.0424 -0.0268 -0.1074
23767OCT     C247534  23.391  18.706   3.540  0.1191 -0.4991 -0.0106
23768OCT     C147535   1.149   0.491   2.202  0.2893 -0.0397  0.0283
23768OCT     C247536   0.724   0.338   2.070  0.1526  0.2383 -0.0076
23769OCT     C147537  23.359  16.441   4.725 -0.3161 -0.0187  0.3874
23769OCT     C247538  23.215  16.677   5.060  0.1775  0.1084  0.0483
23770OCT     C147539  21.338   2.764   1.447 -0.3063  0.0737  0.1199
23770OCT     C247540  21.207   2.597   1.023 -0.0980 -0.0113 -0.0286
23771OCT     C147541  20.150  22.230  19.444  0.2442 -0.2208 -0.1044
23771OCT     C247542  20.377  22.485  19.148  0.0104 -0.1358 -0.3241
23772OCT     C147543   9.860  23.397   9.443  0.0980 -0.0232 -0.1703
23772OCT     C247544  10.266  23.468   9.750  0.0729 -0.0716  0.1272
23773OCT     C147545   8.800  17.975   3.411  0.2157  0.3653  0.0955
23773OCT     C247546   8.775  17.578   3.645 -0.0705 -0.0907  0.1916
23774OCT     C147547  17.388   1.813  13.095 -0.1979 -0.0612 -0.0999
23774OCT     C247548  17.273   2.197  12.953  0.2613 -0.2464  0.4119
23775OCT     C147549   0.379  17.844   5.465 -0.1416  0.2594 -0.0220
23775OCT     C247550  23.722  17.632   5.389  0.2153 -0.0146 -0.1574
23776OCT     C147551  13.508   7.706   3.942 -0.4007  0.2770 -0.1528
23776OCT     C247552  13.577   7.842   3.518  0.1411 -0.0753  0.0178
23777OCT     C147553  19.516   2.871   1.746  0.0137 -0.0058 -0.1590
23777OCT     C247554  19.818   2.549   1.953  0.1678  0.1244 -0.0098
23778OCT     C147555   3.232  10.952  23.694 -0.0285  0.2983 -0.1878
23778OCT     C247556   3.173  11.030  23.242  0.1967  0.6349 -0.1687
23779OCT     C147557   4.310   1.702   2.447 -0.1362 -0.3097 -0.3987
23779OCT     C247558   4.059   2.040   2.335  0.1829 -0.1645 -0.0322
23780OCT     C147559  20.585  20.878   5.639 -0.0762 -0.2572 -0.0448
23780OCT     C247560  20.616  20.706   5.204  0.2560 -0.4385  0.2448
23781OCT     C147561  10.406  19.869   1.136 -0.0373  0.3347  0.2269
23781OCT     C247562  10.205  20.112   0.907 -0.2815 -0.0686  0.1343
23782OCT     C147563   9.854   9.653  20.215 -0.2227  0.0074 -0.4341
23782OCT     C247564   9.746   9.722  20.688  0.1492  0.0402  0.0164
23783OCT     C147565  11.514  10.468  22.202  0.1571  0.0202 -0.1437
23783OCT     C247566  11.781  10.399  22.556  0.1555  0.4284 -0.0509
23784OCT     C147567  14.429   7.590   9.899 -0.1156 -0.0596  0.3272
23784OCT     C247568  14.606   7.874   9.569  0.2075 -0.1123 -0.1836
23785OCT     C147569   1.256  22.337  10.874 -0.1700  0.0439  0.0200
23785OCT     C247570   1.179  22.766  10.675 -0.3489 -0.2111  0.0631
23786OCT     C147571  20.100   0.846  20.176  0.1824 -0.1233  0.0459
23786OCT     C247572  20.458   0.851  20.481 -0.2572 -0.0506 -0.0973
23787OCT     C147573  21.256  20.734   6.988  0.0890 -0.1050 -0.0906
23787OCT     C247574  21.537  21.071   7.169  0.0623  0.1220 -0.2247
23788OCT     C147575   4.196  19.030   3.979 -0.0944 -0.0009 -0.0310
23788OCT     C247576   4.239  18.947   3.547 -0.1696  0.0076  0.0351
23789OCT     C147577   7.940  14.718  22.023  0.3364  0.2947  0.0807
23789OCT     C247578   8.082  15.139  22.277 -0.1553  0.4354  0.1114
23790OCT     C147579  17.474  17.547  11.819  0.0377  0.1301  0.1526
23790OCT     C247580  17.604  17.653  12.269  0.0437 -0.1466  0.0009
23791OCT     C147581   4.825  18.525   3.025  0.0759  0.0558  0.2626
23791OCT     C247582   5.102  18.273   2.741 -0.1610 -0.1628  0.0698
23792OCT     C147583  18.923   3.041  20.892  0.1071 -0.0940  0.1812
23792OCT     C247584  18.785   3.442  21.088 -0.0016 -0.2673  0.2343
23793OCT     C147585  11.934   8.297   5.563  0.1399 -0.0106 -0.2568
23793OCT     C247586  11.896   8.763   5.515  0.2361  0.0780 -0.3391
23794OCT     C147587   3.341   2.480   6.281 -0.1986 -0.0648  0.3790
23794OCT     C247588   3.052   2.176   6.413  0.0998 -0.0463 -0.4784
23795OCT     C147589  20.076   1.400   6.380 -0.0973  0.1524 -0.2544
23795OCT     C247590  20.262   0.997   6.180  0.2119  0.0800 -0.2298
23796OCT     C147591   7.784   2.728   5.182 -0.1413  0.0033  0.2550
23796OCT     C247592   7.709   2.598   5.639  0.1207 -0.0285 -0.2500
23797OCT     C147593  12.817   9.899  15.136  0.1570  0.0725  0.4090
23797OCT     C247594  12.600  10.320  15.113 -0.0893  0.0317 -0.1113
23798OCT     C147595   5.350   9.385  18.688 -0.0396  0.3887  0.1481
23798OCT     C247596   5.185   9.549  18.252  0.4018  0.3897 -0.1213
23799OCT     C147597   5.195  11.793   2.066  0.2689  0.0159  0.0078
23799OCT     C247598   5.216  11.388   2.236 -0.3317  0.0473  0.2590
23800OCT     C147599   7.810  11.818   8.089 -0.1263 -0.3746 -0.0616
23800OCT     C247600   8.202  11.811   8.299 -0.4901 -0.1613 -0.2431
23801OCT     C147601  19.284  14.389  12.097  0.1584 -0.2015 -0.0291
23801OCT     C247602  19.535  14.776  12.163  0.1578  0.0578 -0.0073
23802OCT     C147603  15.438   7.832   8.881  0.1999  0.3102 -0.1762
23802OCT     C247604  15.669   7.516   8.586  0.0842  0.3163  0.0107
23803OCT     C147605   5.534  16.734   1.658  0.0702 -0.2630 -0.0269
23803OCT     C247606   5.122  16.798   1.424 -0.4694  0.2743 -0.0855
23804OCT     C147607  18.641  16.101   6.970  0.0750 -0.1375  0.1344
23804OCT     C247608  19.075  15.921   7.010 -0.1715 -0.0383  0.0476
23805OCT     C147609  15.773   0.383   2.102 -0.0490  0.1608 -0.0652
23805OCT     C247610  15.745   0.746   2.283  0.2853 -0.0798 -0.3571
23806OCT     C147611  12.962   2.426   1.115  0.2193 -0.0890  0.0802
23806OCT     C247612  13.208   2.842   1.109 -0.0439 -0.2774 -0.2011
23807OCT     C147613  12.375  18.464  22.701  0.2867 -0.3936  0.1167
23807OCT     C247614  12.761  18.270  22.714 -0.0674 -0.1924 -0.0821
23808OCT     C147615   8.553   8.447  11.303 -0.0515  0.1495 -0.0545
23808OCT     C247616   8.814   8.057  11.405  0.0528 -0.1817 -0.0818
23809OCT     C147617  11.317  15.187   6.402  0.2012  0.4123 -0.2408
23809OCT     C247618  11.575  15.031   6.744 -0.0502  0.0810 -0.2079
23810OCT     C147619  21.415   8.239   5.521  0.0201  0.0998  0.1195
23810OCT     C247620  21.504   8.462   5.917 -0.1232  0.1234 -0.0930
23811OCT     C147621   3.572  12.700  16.895  0.0392 -0.0372  0.1359
23811OCT     C247622   3.553  13.197  16.942 -0.1409  0.1092  0.1140
23812OCT     C147623   0.577   7.663  11.161 -0.0673  0.4295 -0.1085
23812OCT     C247624   0.124   7.764  11.169  0.3782 -0.1969  0.0473
23813OCT     C147625   8.927  10.072   2.768  0.0308  0.0873 -0.4123
23813OCT     C247626   8.917   9.601   2.835 -0.1935  0.1186  0.4129
23814OCT     C147627  19.763  13.838  14.326 -0.2766 -0.1318  0.2974
23814OCT     C247628  20.244  13.938  14.199 -0.3076  0.3621 -0.0335
23815OCT     C147629  18.770   6.474   6.270 -0.3727  0.1061  0.0336
23815OCT     C247630  19.088   6.846   6.321  0.0311 -0.1506 -0.2279
23816OCT     C147631   6.237  14.949  19.479  0.3164 -0.4174 -0.1535
23816OCT     C247632   6.169  14.493  19.438 -0.0012 -0.1571 -0.0416
23817OCT     C147633   7.048  22.298  17.796 -0.2719  0.0664 -0.0500
23817OCT     C247634   7.462  22.177  17.908  0.0196  0.0667  0.3149
23818OCT     C147635  19.145  18.616  15.338  0.1546 -0.4553  0.0302
23818OCT     C247636  19.569  18.645  15.473  0.0833  0.2962  0.2095
23819OCT     C147637   4.575  17.837  15.489  0.2305  0.0438  0.0138
23819OCT     C247638   4.339  17.647  15.065 -0.1408 -0.2658 -0.1850
23820OCT     C147639  13.922  12.005  12.955 -0.0673 -0.0649 -0.0103
23820OCT     C247640  14.379  11.888  13.104 -0.1295 -0.0386 -0.0864
23821OCT     C147641   6.938  16.941  22.258 -0.1083 -0.1905  0.1774
23821OCT     C247642   7.098  16.747  21.880  0.1205 -0.0420 -0.0256
23822OCT     C147643   7.729   5.097   0.650  0.1657  0.1849 -0.1031
23822OCT     C247644   7.357   4.817   0.786  0.1606  0.0753  0.0390
23823OCT     C147645   3.301   1.406   8.597  0.0787 -0.1128 -0.1487
23823OCT     C247646   3.543   1.064   8.810  0.0386 -0.0912  0.3478
23824OCT     C147647  17.810  10.640   9.623  0.2853  0.0991  0.1205
23824OCT     C247648  18.257  10.798   9.777  0.0521 -0.2502 -0.0858
23825OCT     C147649  20.977  15.530  16.946 -0.0089  0.1735  0.0738
23825OCT     C247650  20.621  15.508  17.214 -0.3035  0.0402  0.3715
23826OCT     C147651  20.655   5.208   5.879 -0.3310 -0.2221 -0.3162
23826OCT     C247652  20.592   5.052   6.332  0.0691 -0.3695 -0.1866
23827OCT     C147653  17.234   8.972  16.130 -0.2015 -0.0988  0.3359
23827OCT     C247654  17.394   9.164  15.664 -0.1672  0.1484 -0.0815
23828OCT     C147655   6.556  11.364  12.658 -0.2777 -0.2655  0.0495
23828OCT     C247656   6.664  11.107  12.322  0.1087  0.1600 -0.0135
23829OCT     C147657  11.055  10.195   5.626 -0.0666  0.1252 -0.3571
23829OCT     C247658  11.360  10.580   5.604 -0.1292 -0.0303  0.2130
23830OCT     C147659  12.174  20.561   6.334  0.1479  0.1566  0.2918
23830OCT     C247660  12.515  20.782   6.459  0.1219 -0.0170  0.3032
23831OCT     C147661  13.097   5.227   1.867 -0.3254 -0.4671  0.1524
23831OCT     C247662  13.336   4.993   1.570  0.0422  0.0797 -0.0609
23832OCT     C147663  15.907  22.930  14.553  0.1544 -0.0572 -0.4992
23832OCT     C247664  16.077  22.734  14.202 -0.1216  0.1475 -0.0354
23833OCT     C147665   4.247  22.496   3.328 -0.3033 -0.0453  0.2285
23833OCT     C247666   3.875  22.413   3.042 -0.3683  0.1843 -0.1893
23834OCT     C147667   4.967   6.075   0.740 -0.0399 -0.0933 -0.1013
23834OCT     C247668   5.353   6.197   0.579 -0.0823 -0.2621 -0.5138
23835OCT     C147669  11.394   8.359  13.082  0.2251  0.0907  0.1396
23835OCT     C247670  10.921   8.374  13.117 -0.1195  0.1346 -0.3850
23836OCT     C147671   3.005  19.539  18.569 -0.1516  0.0233 -0.0007
23836OCT     C247672   3.075  19.337  18.972 -0.2146  0.1030 -0.0182
23837OCT     C147673  22.016  11.985   5.246  0.0091 -0.4765  0.1019
23837OCT     C247674  22.231  12.387   5.054  0.5001  0.0792  0.4696
23838OCT     C147675  22.609   4.823   2.747  0.1686 -0.4234 -0.0942
23838OCT     C247676  22.450   5.257   2.737 -0.3051  0.3805  0.2442
23839OCT     C147677  16.425  15.275   5.327 -0.0780  0.3615 -0.1623
23839OCT     C247678  16.803  15.242   5.036 -0.4701  0.2309  0.1180
23840OCT     C147679  13.853  17.737   6.058  0.1631 -0.1199  0.0392
23840OCT     C247680  13.810  17.543   5.593 -0.2340  0.2086 -0.1379
23841OCT     C147681  15.520   2.584   5.414 -0.1570  0.2417 -0.0811
23841OCT     C247682  15.213   2.434   5.729  0.0649  0.2406 -0.2440
23842OCT     C147683   1.622   8.144   3.881  0.2915 -0.0589  0.1441
23842OCT     C247684   1.387   8.515   4.081  0.2962  0.1083 -0.1018
23843OCT     C147685  17.784   6.170  19.467 -0.0121  0.0229  0.1922
23843OCT     C247686  17.441   6.554  19.520  0.1627  0.0684 -0.1449
23844OCT     C147687   6.728   8.456   3.583 -0.3530 -0.1144 -0.3641
23844OCT     C247688   6.827   8.088   3.363 -0.1110 -0.0467  0.0237
23845OCT     C147689   0.009  16.430  21.488 -0.3059 -0.2289 -0.0311
23845OCT     C247690   0.055  16.736  21.861  0.3726 -0.2724 -0.1720
23846OCT     C147691   3.818   0.240  23.316  0.0734 -0.0332  0.1930
23846OCT     C247692   4.187   0.021  23.063  0.1194  0.1332  0.1691
23847OCT     C147693  21.406  20.129   8.422 -0.0957 -0.4140 -0.2281
23847OCT     C247694  21.167  20.515   8.565 -0.0239 -0.2950 -0.1586
23848OCT     C147695   2.951  23.181  14.513  0.3219  0.1744  0.0085
23848OCT     C247696   2.686  23.217  14.145  0.0055 -0.0322  0.1727
23849OCT     C147697  16.530   7.375   8.154 -0.2015  0.0316 -0.3443
23849OCT     C247698  16.372   7.549   7.745  0.2536  0.1492 -0.1340
23850OCT     C147699  14.160  11.957  15.307 -0.1402 -0.5166  0.0881
23850OCT     C247700  14.025  12.378  15.384  0.0575  0.1519  0.1119
23851OCT     C147701  16.774  17.490  12.838  0.0758  0.1879 -0.0271
23851OCT     C247702  17.201  17.525  13.034 -0.2227 -0.0887  0.0295
23852OCT     C147703   9.473   6.074  22.919  0.3615 -0.1957  0.1544
23852OCT     C247704   9.071   6.327  22.817 -0.0889  0.3696  0.0985
23853OCT     C147705  22.331   9.471  21.752 -0.1889 -0.0708 -0.3865
23853OCT     C247706  21.917   9.433  21.646  0.1598  0.1273  0.0351
23854OCT     C147707   2.912   9.482   4.001 -0.0533  0.0606 -0.2125
23854OCT     C247708   2.873   9.848   4.393  0.1187 -0.0102  0.4309
23855OCT     C147709  19.261  16.698  10.106  0.0507  0.2282 -0.1270
23855OCT     C247710  19.238  16.933  10.531 -0.0637 -0.0388  0.1987
23856OCT     C147711  12.937  15.728  17.432 -0.0227 -0.0353  0.2605
23856OCT     C247712  12.768  15.578  17.833 -0.2922  0.2986 -0.1701
23857OCT     C147713   5.523   1.006   1.803  0.1550  0.1407 -0.3767
23857OCT     C247714   5.987   1.098   1.801  0.3305  0.0902  0.1146
23858OCT     C147715   0.032  11.230  14.644  0.0659  0.1743  0.0835
23858OCT     C247716  23.542  11.107  15.077  0.1644  0.0908  0.0293
23859OCT     C147717  17.174  18.601  14.285  0.2096 -0.2171 -0.1778
23859OCT     C247718  17.230  18.198  14.441  0.1936 -0.2188 -0.1784
23860OCT     C147719  22.131  23.283  10.425 -0.1182  0.0598  0.2144
23860OCT     C247720  22.150  23.671  10.119 -0.0399 -0.3043 -0.0479
23861OCT     C147721   6.015  14.151  13.397  0.1095  0.0906  0.1332
23861OCT     C247722   6.007  14.522  13.254 -0.2842 -0.0447  0.2485
23862OCT     C147723   9.659   7.505   8.726 -0.1113  0.0654 -0.0767
23862OCT     C247724   9.502   7.196   8.419 -0.1662 -0.0288 -0.1617
23863OCT     C147725  10.100  22.161  20.487 -0.0567 -0.0454 -0.0600
23863OCT     C247726  10.030  22.599  20.316  0.0610  0.1540  0.3425
23864OCT     C147727  10.492   9.760   6.628  0.1001 -0.0972 -0.3008
23864OCT     C247728  10.438   9.476   6.282 -0.3002 -0.1840 -0.3587
23865OCT     C147729  11.014  10.049  21.490 -0.0642 -0.1843 -0.1118
23865OCT     C247730  10.589  10.210  21.490  0.1353  0.1598 -0.1312
23866OCT     C147731  22.472   0.010  13.353 -0.0411  0.2286 -0.0958
23866OCT     C247732  22.646   0.442  13.261  0.2397  0.3201  0.1887
23867OCT     C147733  18.125  10.358   0.534  0.3116  0.0068  0.0060
23867OCT     C247734  18.432  10.329   0.901  0.0091  0.1037  0.0677
23868OCT     C147735   9.401  11.309  20.031 -0.0836 -0.2366 -0.0495
23868OCT     C247736   9.428  10.875  20.156 -0.2244  0.2854 -0.0677
23869OCT     C147737   2.685  15.274   6.201 -0.1303 -0.2654 -0.1544
23869OCT     C247738   2.361  15.124   5.884 -0.0515  0.1269  0.0630
23870OCT     C147739  12.059   2.874   0.157 -0.3571  0.0027 -0.3534
23870OCT     C247740  12.313   3.272   0.025  0.0481 -0.1332 -0.1035
23871OCT     C147741   0.307  11.330  10.536 -0.2158 -0.0745 -0.1487
23871OCT     C247742  23.740  11.053  10.661  0.4657  0.0127 -0.0955
23872OCT     C147743  17.719   8.494  18.366  0.5063 -0.0910 -0.2286
23872OCT     C247744  17.730   8.942  18.251 -0.2205  0.2592  0.0899
23873OCT     C147745   2.729  23.453   6.957  0.0165  0.2088 -0.1409
23873OCT     C247746   2.441  23.186   6.665  0.0322 -0.4683 -0.1647
23874OCT     C147747  16.038   1.688   2.327 -0.1218  0.1885 -0.0004
23874OCT     C247748  16.282   2.073   2.099  0.0253  0.0256  0.3905
23875OCT     C147749  13.645  12.590  11.853 -0.0268  0.0340  0.4343
23875OCT     C247750  13.346  12.596  11.529  0.0897  0.0777  0.1707
23876OCT     C147751   6.707  17.897   7.785  0.1535 -0.0052  0.1686
23876OCT     C247752   6.489  17.752   7.460  0.2350 -0.0364 -0.2450
23877OCT     C147753   7.648   5.363  10.927 -0.0525 -0.1730 -0.0475
23877OCT     C247754   7.889   5.382  10.534 -0.0060 -0.3114 -0.0519
23878OCT     C147755  18.639   0.610  10.941 -0.0688 -0.1528 -0.2054
23878OCT     C247756  18.863   1.023  11.029  0.2566  0.1565  0.5251
23879OCT     C147757   3.654   1.570   0.503 -0.1235  0.2429 -0.2373
23879OCT     C247758   3.519   1.609   0.989  0.0629  0.2769  0.1018
23880OCT     C147759  10.063   9.961   6.677 -0.3441  0.1478  0.2883
23880OCT     C247760  10.355   9.919   7.064 -0.2001 -0.1700 -0.0441
23881OCT     C147761  18.558  16.698  17.022  0.1977  0.4323 -0.0914
23881OCT     C247762  18.568  17.112  16.808  0.1341 -0.1129  0.4540
23882OCT     C147763   4.259   8.735   5.124 -0.3432 -0.3284 -0.0983
23882OCT     C247764   4.248   8.925   5.569 -0.0112 -0.1320 -0.3145
23883OCT     C147765   8.340   8.233   7.632 -0.1357 -0.0856  0.0406
23883OCT     C247766   8.697   8.566   7.466  0.0817  0.2677 -0.1704
23884OCT     C147767   6.859   6.103  23.129 -0.1938  0.3778 -0.2175
23884OCT     C247768   6.597   6.142  23.546 -0.0993 -0.2440  0.0622
23885OCT     C147769   2.421  12.606   0.215 -0.1421  0.3046  0.0580
23885OCT     C247770   2.225  12.494   0.655 -0.0629  0.0295 -0.1330
23886OCT     C147771  18.167  11.939   5.035  0.0090  0.1074 -0.0263
23886OCT     C247772  17.951  12.296   5.256 -0.0168 -0.1188 -0.1180
23887OCT     C147773  13.098   8.284   0.117 -0.2820 -0.3746 -0.0695
23887OCT     C247774  13.229   7.847   0.047  0.0280  0.0673  0.1949
23888OCT     C147775   9.917   8.094  20.380  0.3944  0.0752  0.3158
23888OCT     C247776   9.535   7.825  20.283  0.4078 -0.2882  0.0001
23889OCT     C147777  14.215  19.264  23.652  0.1188  0.2532 -0.2343
23889OCT     C247778  14.389  19.401   0.321 -0.1239  0.0737 -0.0015
23890OCT     C147779  10.827   6.321  12.197 -0.1959  0.3312  0.0290
23890OCT     C247780  10.853   5.882  12.277 -0.2650  0.5739 -0.0319
23891OCT     C147781   1.238  20.458  22.871  0.0854 -0.0343 -0.2936
23891OCT     C247782   1.361  20.812  23.147 -0.2545 -0.1273 -0.1309
23892OCT     C147783   3.468   2.262  15.194  0.0059 -0.1411 -0.0743
23892OCT     C247784   3.389   2.440  14.763  0.2462 -0.0137 -0.0498
23893OCT     C147785   6.482  22.064   3.175  0.1815 -0.3534 -0.1813
23893OCT     C247786   6.134  21.857   2.951  0.1129  0.2169  0.3229
23894OCT     C147787   7.452   9.949  16.016  0.3696 -0.3094  0.0746
23894OCT     C247788   7.754  10.231  15.814 -0.2182  0.0443  0.1095
23895OCT     C147789  10.528  21.234  19.814 -0.2752 -0.2819  0.0852
23895OCT     C247790  10.381  20.829  19.999 -0.1733 -0.0056 -0.2058
23896OCT     C147791  14.717  11.614  22.683 -0.0101 -0.0119  0.2610
23896OCT     C247792  15.100  11.736  22.876  0.0895  0.0884 -0.4338
23897OCT     C147793  22.247   6.316   8.470  0.1128 -0.1027 -0.0467
23897OCT     C247794  22.532   6.589   8.184  0.0807  0.0776 -0.4794
23898OCT     C147795  18.867   4.063  11.472 -0.0231  0.0206  0.1114
23898OCT     C247796  18.825   4.331  11.872 -0.0042  0.0444 -0.0607
23899OCT     C147797  16.127  12.112  23.289  0.0455  0.1006  0.0854
23899OCT     C247798  16.039  12.546  23.335  0.2205  0.0927  0.1009
23900OCT     C147799   7.683  16.330   1.118 -0.1436  0.2949 -0.0435
23900OCT     C247800   7.502  16.758   0.957  0.1660  0.2571  0.3805
23901OCT     C147801   2.818  17.175  11.995  0.4988  0.0816 -0.1071
23901OCT     C247802   2.714  16.788  11.741 -0.1007 -0.1762 -0.0975
23902OCT     C147803   2.467  19.316   6.640 -0.2283  0.0596  0.0508
23902OCT     C247804   2.033  19.297   6.408  0.1811  0.0174 -0.3315
23903OCT     C147805   4.749   0.703   5.700  0.3001 -0.1753  0.1618
23903OCT     C247806   4.907   0.771   5.262  0.0647  0.0250  0.2994
23904OCT     C147807   5.470  17.938  16.372 -0.2960 -0.3627 -0.1583
23904OCT     C247808   5.205  17.529  16.323  0.0343  0.0668 -0.0303
23905OCT     C147809  16.356  23.294  11.828  0.2465  0.1887  0.1577
23905OCT     C247810  16.117  23.125  11.375 -0.2679 -0.0985  0.2064
23906OCT     C147811  14.368   2.564   9.484 -0.0971  0.2471 -0.1076
23906OCT     C247812  14.547   2.516   9.063 -0.1899  0.1793 -0.0567
23907OCT     C147813   6.669  15.970   4.298 -0.0753  0.0272  0.1469
23907OCT     C247814   6.475  15.991   3.870  0.1871  0.1027 -0.0926
23908OCT     C147815   2.803   9.080  18.217  0.2622 -0.1323 -0.1345
23908OCT     C247816   3.182   9.083  17.951  0.1082  0.2277 -0.0880
23909OCT     C147817   5.394   1.759  21.640 -0.3874 -0.2169  0.1533
23909OCT     C247818   5.336   2.189  21.467  0.2629  0.1854  0.0980
23910OCT     C147819   0.708  18.607  12.948  0.0577 -0.1179  0.0756
23910OCT     C247820   0.351  18.327  13.045  0.1689  0.1379  0.4580
23911OCT     C147821  22.929  19.141  18.418  0.1131 -0.0602  0.0240
23911OCT     C247822  22.753  19.501  18.718 -0.0357  0.2276  0.0813
23912OCT     C147823   4.543   8.302   2.155  0.0589 -0.1293  0.2751
23912OCT     C247824   4.877   8.567   2.226 -0.3315 -0.2290 -0.2417
23913OCT     C147825   9.031   1.499  14.784  0.5748  0.0149 -0.0152
23913OCT     C247826   8.846   1.666  14.419  0.1126 -0.3605 -0.2681
23914OCT     C147827   2.576   1.157  14.577 -0.2325 -0.0449  0.2346
23914OCT     C247828   2.198   1.121  14.918 -0.4454  0.0549 -0.1999
23915OCT     C147829  22.106   5.954  10.322 -0.0868 -0.4466 -0.2115
23915OCT     C247830  21.817   5.883  10.011 -0.1063 -0.3357  0.0362
23916OCT     C147831   5.428  16.326  10.298 -0.4298 -0.0301  0.2590
23916OCT     C247832   5.157  16.324   9.913  0.0279 -0.1251  0.1618
23917OCT     C147833  22.578  21.304  18.614 -0.0656 -0.0564 -0.2499
23917OCT     C247834  22.286  21.075  18.826 -0.0427  0.0027 -0.0576
23918OCT     C147835   9.155   0.909  19.963 -0.0761 -0.3697  0.1066
23918OCT     C247836   8.754   1.025  20.241 -0.2397 -0.2056 -0.3627
23919OCT     C147837   1.500  20.650  16.639 -0.0496  0.2308  0.1254
23919OCT     C247838   1.377  20.693  16.178  0.0579  0.4700 -0.3408
23920OCT     C147839  16.539   6.881   3.839 -0.3760  0.2094 -0.0526
23920OCT     C247840  16.730   7.301   3.859  0.0530  0.1874  0.3069
23921OCT     C147841   0.902  15.392  12.460  0.2345 -0.2970  0.1624
23921OCT     C247842   0.760  15.693  12.083 -0.0260  0.0723 -0.0794
23922OCT     C147843   4.559   6.725   5.012 -0.1750  0.1045 -0.1602
23922OCT     C247844   4.722   6.388   5.325 -0.0711 -0.0404  0.0373
23923OCT     C147845   1.542  15.190   8.152 -0.1574  0.2466 -0.2860
23923OCT     C247846   1.701  14.887   7.804  0.1010  0.3493  0.2914
23924OCT     C147847   8.629   8.957  14.264 -0.2927 -0.2077 -0.2815
23924OCT     C247848   8.362   9.174  14.592  0.1401  0.0501  0.1480
23925OCT     C147849   4.031   2.321  10.118 -0.0673 -0.0908 -0.3057
23925OCT     C247850   4.121   1.878   9.946 -0.3677 -0.0675 -0.3287
23926OCT     C147851  12.841  13.326  11.771  0.1899 -0.3513 -0.1118
23926OCT     C247852  13.149  13.621  11.658 -0.0062  0.0711 -0.1642
23927OCT     C147853  15.550  22.004   5.326  0.2921  0.0673  0.3214
23927OCT     C247854  15.686  22.390   5.479  0.1801 -0.0758 -0.2523
23928OCT     C147855  23.528  15.603   7.027 -0.2583 -0.1362  0.1067
23928OCT     C247856  23.447  15.458   6.554  0.1019 -0.0793 -0.4369
23929OCT     C147857  22.016  20.563  15.834 -0.4098 -0.0876  0.0177
23929OCT     C247858  22.022  20.420  15.370  0.0099  0.2561  0.1377
23930OCT     C147859  11.851   6.151  12.967 -0.2249  0.1466  0.1982
23930OCT     C247860  12.223   6.240  13.241  0.1259  0.2462 -0.1497
23931OCT     C147861  16.581  21.885  14.625  0.0518 -0.0712  0.0518
23931OCT     C247862  16.137  21.734  14.491  0.1305 -0.5830 -0.2020
23932OCT     C147863  18.407  11.854  11.824 -0.1720  0.0663 -0.2283
23932OCT     C247864  18.327  11.405  11.925 -0.1832  0.3146 -0.1319
23933OCT     C147865   4.944   0.221  20.363  0.0817 -0.1589 -0.1103
23933OCT     C247866   4.843   0.637  20.222 -0.1526 -0.0097  0.2592
23934OCT     C147867  15.299  10.442   0.513  0.0557  0.0903  0.3140
23934OCT     C247868  15.583  10.474   0.137 -0.0184  0.1838  0.3550
23935OCT     C147869  12.775  21.109   0.708  0.0317 -0.1108 -0.0785
23935OCT     C247870  12.600  21.578   0.725  0.0993 -0.2055  0.0201
23936OCT     C147871   1.118   6.476  18.793 -0.1392 -0.0793  0.0791
23936OCT     C247872   1.253   6.078  18.947 -0.2207 -0.2159 -0.0276
23937OCT     C147873  22.660   4.583   0.854  0.1040  0.3237 -0.0570
23937OCT     C247874  22.684   4.975   1.135 -0.2696  0.2005  0.2247
23938OCT     C147875  13.511   5.961  22.003 -0.1793  0.0437  0.1117
23938OCT     C247876  13.284   5.525  21.875 -0.0518 -0.2128 -0.0982
23939OCT     C147877   2.731  12.441  10.257  0.1690  0.2042 -0.4153
23939OCT     C247878   2.344  12.297  10.050 -0.1523  0.3743  0.1001
23940OCT     C147879   8.341  16.421   9.700 -0.0065  0.1880  0.3176
23940OCT     C247880   8.015  16.157   9.508  0.0147  0.3369 -0.2378
23941OCT     C147881  14.392   9.078   7.994 -0.1407  0.1640  0.0898
23941OCT     C247882  13.958   9.167   7.949  0.0452 -0.5261  0.0592
23942OCT     C147883   3.036  21.533  17.892  0.0604 -0.1939  0.0349
23942OCT     C247884   2.589  21.502  17.905  0.0207 -0.3329 -0.0981
23943OCT     C147885  18.894   3.518  17.392 -0.1281 -0.2751  0.0038
23943OCT     C247886  19.137   3.226  17.248  0.0356 -0.0830  0.1644
23944OCT     C147887   2.042  21.581   4.554 -0.2140 -0.1768 -0.0022
23944OCT     C247888   1.640  21.388   4.603 -0.0084  0.1424 -0.0050
23945OCT     C147889  11.986   7.543   6.587  0.3218 -0.2369 -0.0441
23945OCT     C247890  11.545   7.481   6.650 -0.0499  0.1807 -0.2382
23946OCT     C147891  16.849  15.466   3.207 -0.1486  0.0735 -0.0060
23946OCT     C247892  16.541  15.557   3.550 -0.1007  0.0747  0.1380
23947OCT     C147893   2.398  13.294  10.991 -0.1889 -0.1961  0.0967
23947OCT     C247894   2.471  13.381  11.434  0.2483 -0.3305  0.0982
23948OCT     C147895  16.256  22.343  22.998  0.1134  0.1068  0.0286
23948OCT     C247896  16.530  22.335  23.364 -0.2392  0.1446 -0.1913
23949OCT     C147897  23.303   6.059   3.543  0.0631  0.3938  0.1617
23949OCT     C247898   0.036   6.162   3.669  0.0916 -0.1479 -0.1154
23950OCT     C147899   1.898   7.941   2.604  0.2262  0.0376 -0.1031
23950OCT     C247900   1.884   7.942   2.132  0.0679  0.0113 -0.0006
23951OCT     C147901  11.809   9.578  11.266  0.0503  0.1832  0.0059
23951OCT     C247902  11.723   9.718  10.775  0.2441  0.2078  0.0862
23952OCT     C147903  22.139  22.817   4.161 -0.1678 -0.1199 -0.0081
23952OCT     C247904  22.555  22.635   4.275 -0.0424 -0.4503  0.4605
23953OCT     C147905  20.110   8.764  15.099 -0.1085  0.1585  0.2280
23953OCT     C247906  20.446   8.546  15.414 -0.3284 -0.1408  0.2314
23954OCT     C147907   9.777  23.517   5.605  0.2176 -0.0665 -0.3116
23954OCT     C247908  10.128  23.193   5.662  0.0322 -0.1416  0.2021
23955OCT     C147909  10.450   7.122   4.330  0.1317 -0.2383  0.3738
23955OCT     C247910  10.276   7.512   4.164 -0.0869 -0.0613 -0.1568
23956OCT     C147911  22.055  14.289  16.704  0.4583  0.2039  0.2163
23956OCT     C247912  21.651  14.445  16.868 -0.3789  0.1050 -0.0350
23957OCT     C147913  21.071  20.062   5.873  0.1340 -0.1125 -0.3742
23957OCT     C247914  21.203  20.369   6.203 -0.1200  0.0077 -0.0611
23958OCT     C147915  22.725   2.977   2.904 -0.3008 -0.0678 -0.3051
23958OCT     C247916  22.971   3.398   2.934  0.3059 -0.3866 -0.1010
23959OCT     C147917  15.981  16.127  16.766  0.0544 -0.1622 -0.1239
23959OCT     C247918  15.928  15.850  17.045  0.0089  0.3185  0.0805
23960OCT     C147919   9.179  22.397   1.726  0.0096  0.1546 -0.0133
23960OCT     C247920   9.676  22.411   1.853  0.3477 -0.1249 -0.2638
23961OCT     C147921  22.267   2.318   0.050 -0.0440 -0.3343  0.1079
23961OCT     C247922  22.391   2.168   0.444  0.0784  0.0671  0.1000
23962OCT     C147923  19.394  23.615  13.147  0.2490  0.1778  0.1065
23962OCT     C247924  19.584  23.192  13.185 -0.0419 -0.2607  0.0590
23963OCT     C147925  10.143   5.008   9.973  0.2672 -0.2234  0.0835
23963OCT     C247926  10.163   5.410  10.265  0.2731  0.0667  0.0865
23964OCT     C147927  22.665   4.295  10.467  0.0995  0.0072 -0.2187
23964OCT     C247928  23.099   4.056  10.537 -0.4914  0.0323  0.2710
23965OCT     C147929   1.121  20.739  15.449  0.1500 -0.1508  0.1275
23965OCT     C247930   1.565  20.819  15.277  0.1113 -0.0766  0.0431
23966OCT     C147931   3.908   9.099   3.862 -0.4727  0.2421 -0.2080
23966OCT     C247932   3.449   9.239   3.922  0.0456 -0.0355 -0.1406
23967OCT     C147933   7.594   1.779  18.793  0.0065  0.0338 -0.0553
23967OCT     C247934   7.480   1.362  18.944  0.1353 -0.1630 -0.1472
23968OCT     C147935  23.215   5.496  18.656 -0.0089 -0.1416  0.1537
23968OCT     C247936  22.916   5.298  18.397  0.1181  0.1394 -0.1161
23969OCT     C147937  15.123  12.651  12.379  0.0637 -0.1139  0.1357
23969OCT     C247938  14.986  12.969  12.611  0.0697 -0.0458  0.3256
23970OCT     C147939  10.548  20.933  23.661  0.0716 -0.2680  0.1917
23970OCT     C247940  10.699  20.673   0.252  0.0853 -0.0238  0.2110
23971OCT     C147941   0.233  21.316   7.784 -0.6400  0.1259  0.0264
23971OCT     C247942   0.264  20.933   8.133 -0.0803  0.0656  0.2655
23972OCT     C147943  12.824  22.839   7.876 -0.0892  0.3006  0.1196
23972OCT     C247944  12.775  23.106   7.445 -0.1251 -0.0954 -0.2973
23973OCT     C147945  18.135  23.269  21.295 -0.4681  0.0799  0.0967
23973OCT     C247946  17.882  23.096  21.594  0.1465 -0.0746  0.2603
23974OCT     C147947   5.702  10.545   6.405  0.1050 -0.4359  0.0358
23974OCT     C247948   5.473  10.193   6.291 -0.0757 -0.2070 -0.4376
23975OCT     C147949  18.663  14.630  22.526  0.1515 -0.0818  0.3051
23975OCT     C247950  18.642  14.561  21.999  0.0652 -0.1353 -0.1322
23976OCT     C147951   9.873  12.319   0.065 -0.3078 -0.1134 -0.0997
23976OCT     C247952   9.818  12.747  23.653  0.3926 -0.0874  0.1187
23977OCT     C147953  13.814   9.639   1.778  0.2193  0.2313  0.1787
23977OCT     C247954  13.571   9.220   1.653  0.1452 -0.3056 -0.3075
23978OCT     C147955  13.480   3.599   3.437  0.1184 -0.2077  0.0686
23978OCT     C247956  13.169   3.796   3.788 -0.0695  0.0722 -0.1170
23979OCT     C147957  12.063  17.144  15.107 -0.1226 -0.0087 -0.1253
23979OCT     C247958  12.513  17.167  15.189 -0.3137 -0.2407  0.0190
23980OCT     C147959  11.697  17.323   2.180  0.4589 -0.0531 -0.3496
23980OCT     C247960  12.047  17.019   2.382 -0.1517 -0.4473 -0.3307
23981OCT     C147961   2.434  23.630  11.027  0.1265  0.1663  0.0642
23981OCT     C247962   2.507  23.196  11.130  0.0009  0.0813 -0.0869
23982OCT     C147963  23.572  22.344   6.705 -0.0336  0.1153  0.1094
23982OCT     C247964  23.405  22.478   6.317  0.2593 -0.0626 -0.4015
23983OCT     C147965   8.472   0.444  21.555  0.3882  0.0198 -0.1243
23983OCT     C247966   8.173   0.666  21.826 -0.2246 -0.2268  0.2310
23984OCT     C147967   4.415   6.256   9.824  0.0381  0.1708 -0.1695
23984OCT     C247968   4.122   6.122   9.458 -0.1035 -0.0350 -0.2033
23985OCT     C147969   2.518   6.061  22.960 -0.1410 -0.0494 -0.2741
23985OCT     C247970   2.794   6.050  23.345 -0.1904  0.0187 -0.1403
23986OCT     C147971  10.302   7.599  20.626 -0.0019  0.1253  0.2548
23986OCT     C247972   9.998   7.619  20.240  0.1677  0.0737 -0.1773
23987OCT     C147973  19.708  19.876   8.425 -0.1755  0.1435  0.3032
23987OCT     C247974  19.987  19.557   8.127 -0.0257 -0.0581 -0.2213
23988OCT     C147975  14.982  23.636  14.094  0.1838 -0.2946 -0.2834
23988OCT     C247976  14.688  23.469  14.423  0.0473 -0.1664 -0.0307
23989OCT     C147977  12.309  11.927   5.883 -0.0502  0.1278 -0.3512
23989OCT     C247978  12.665  11.689   6.044 -0.4280  0.0297 -0.1288
23990OCT     C147979   0.239  15.217   8.255 -0.3424 -0.1795 -0.2196
23990OCT     C247980   0.219  14.784   8.036 -0.4870 -0.1536  0.2670
23991OCT     C147981   0.675   0.117  18.958  0.0393 -0.1169 -0.1149
23991OCT     C247982   0.428   0.330  19.223 -0.3789 -0.0852 -0.2403
23992OCT     C147983  14.068  14.385  17.922  0.2340  0.0111  0.1841
23992OCT     C247984  13.786  14.728  17.627 -0.1385  0.0281  0.2655
23993OCT     C147985   6.357   2.322  20.222  0.1404  0.4996  0.1034
23993OCT     C247986   6.142   1.971  20.541 -0.1177 -0.5329  0.3715
23994OCT     C147987  10.792  14.585  13.495 -0.0536 -0.3039  0.2151
23994OCT     C247988  10.718  14.300  13.170  0.0505 -0.2048 -0.0231
23995OCT     C147989   3.847  14.784   1.392 -0.1499 -0.1060 -0.1195
23995OCT     C247990   4.240  14.798   1.652 -0.1907 -0.1331  0.1587
23996OCT     C147991  20.722   0.878   8.550 -0.0185  0.1026 -0.0614
23996OCT     C247992  21.019   0.828   8.894 -0.1174  0.5279 -0.1876
23997OCT     C147993  18.435  11.670   5.888  0.3780 -0.2483 -0.0710
23997OCT     C247994  18.564  11.797   5.505 -0.1614  0.2160  0.0359
23998OCT     C147995   1.813   0.659   1.072 -0.2101  0.1831  0.1276
23998OCT     C247996   1.583   0.531   0.684 -0.0882 -0.0041  0.0693
23999OCT     C147997   2.071  20.650  20.972  0.2297 -0.0636  0.1926
23999OCT     C247998   1.645  20.604  20.754 -0.1395  0.3929 -0.0894
24000OCT     C147999  17.799  15.926   5.123  0.0250 -0.4700 -0.0700
24000OCT     C248000  17.732  15.484   5.240 -0.0012  0.1916 -0.3140
24001OCT     C148001   5.354   9.564  14.478 -0.0374  0.0031  0.2131
24001OCT     C248002   5.054   9.647  14.181  0.1902  0.1462 -0.2261
24002OCT     C148003   0.416  23.127  14.501 -0.2459  0.0234 -0.2620
24002OCT     C248004   0.586  22.742  14.623 -0.0477 -0.0265 -0.1035
24003OCT     C148005   1.452  22.358  10.421 -0.0602 -0.2788 -0.2124
24003OCT     C248006   1.007  22.270  10.424 -0.2607  0.2398 -0.1435
24004OCT     C148007   7.269  14.068  15.862  0.1807 -0.4352 -0.2563
24004OCT     C248008   7.080  14.213  16.269  0.0969  0.1471  0.2295
24005OCT     C148009   5.001  20.301  14.693 -0.0788 -0.1626  0.0504
24005OCT     C248010   5.008  19.828  14.578  0.2377 -0.0567  0.1771
24006OCT     C148011  23.247   1.037  23.238 -0.1950 -0.3363 -0.0442
24006OCT     C248012  23.374   0.617  23.157 -0.0581 -0.1234  0.2601
24007OCT     C148013   1.275   7.245  22.784  0.1379 -0.0295 -0.4131
24007OCT     C248014   0.935   6.939  22.637 -0.0890  0.0887 -0.0171
24008OCT     C148015   4.160   7.963  16.272 -0.1686  0.1273 -0.0770
24008OCT     C248016   3.930   8.359  16.214 -0.2288 -0.0675  0.0264
24009OCT     C148017  18.307   0.375   8.176  0.1668 -0.0385 -0.0768
24009OCT     C248018  18.462   0.273   8.615  0.0419 -0.0258  0.1765
24010OCT     C148019  11.127  18.481  16.858 -0.0027  0.2917 -0.0758
24010OCT     C248020  10.796  18.451  16.456 -0.3538 -0.2821 -0.0066
24011OCT     C148021  14.872  18.165   0.741 -0.0113 -0.0293  0.1302
24011OCT     C248022  14.397  18.081   0.843  0.3204  0.1320 -0.0300
24012OCT     C148023  13.316  22.870  20.549 -0.0902  0.1165  0.1202
24012OCT     C248024  13.424  22.576  20.215 -0.1749 -0.2848 -0.1517
24013OCT     C148025  11.080  18.478   8.604 -0.1140 -0.1042 -0.0778
24013OCT     C248026  11.440  18.456   8.278 -0.1413 -0.3308 -0.4276
24014OCT     C148027   5.767  15.097  16.286  0.2307  0.0817  0.1872
24014OCT     C248028   5.614  15.026  15.856 -0.0725  0.3993  0.3121
24015OCT     C148029  18.135  10.741   6.113 -0.3420  0.0619 -0.2312
24015OCT     C248030  17.932  10.625   6.465 -0.2466 -0.3037 -0.1497
24016OCT     C148031   5.075   6.865   5.599 -0.0346  0.0904 -0.3105
24016OCT     C248032   4.680   6.765   5.865  0.0250  0.1425 -0.1752
24017OCT     C148033   6.094  15.655  22.767  0.2509  0.1486 -0.0515
24017OCT     C248034   5.967  16.050  22.575  0.1009  0.2398  0.0569
24018OCT     C148035  12.570  20.565  17.560  0.1579 -0.0709 -0.4873
24018OCT     C248036  12.091  20.613  17.585 -0.0805 -0.0841  0.0283
24019OCT     C148037  14.477   6.016  22.185 -0.1125 -0.2749 -0.1875
24019OCT     C248038  14.166   6.179  22.534 -0.0236 -0.0782  0.1506
24020OCT     C148039  22.377  22.464  10.261  0.1984 -0.4306 -0.1741
24020OCT     C248040  22.386  22.396   9.788  0.2958  0.2227 -0.1606
24021OCT     C148041   0.332  19.711   8.880 -0.3104  0.0016 -0.1295
24021OCT     C248042   0.244  19.205   8.859 -0.1016 -0.0307 -0.1033
24022OCT     C148043  22.604  11.034   6.587 -0.1642  0.0988 -0.2173
24022OCT     C248044  22.360  10.718   6.754  0.1733  0.3416  0.0346
24023OCT     C148045   0.177  20.303  13.803 -0.0596 -0.0959 -0.1307
24023OCT     C248046   0.042  20.287  13.373  0.3316  0.2089 -0.1733
24024OCT     C148047  20.781   7.421  21.439 -0.2302  0.0576  0.1082
24024OCT     C248048  21.160   7.344  21.661 -0.0367 -0.0635  0.2079
24025OCT     C148049   4.859   0.297  12.425 -0.3039 -0.1292  0.0600
24025OCT     C248050   5.188   0.626  12.491  0.1515  0.0765 -0.3240
24026OCT     C148051  21.617  20.628  12.923 -0.1969  0.0361 -0.3628
24026OCT     C248052  21.603  20.180  12.845 -0.0153  0.1233  0.2502
24027OCT     C148053  22.879  22.025  12.537  0.1128 -0.1866  0.2432
24027OCT     C248054  23.025  21.957  12.939  0.0911  0.2872 -0.0549
24028OCT     C148055  18.962   3.059  14.125  0.0211 -0.0254 -0.0692
24028OCT     C248056  19.152   3.025  14.567  0.1246 -0.0454  0.1579
24029OCT     C148057  17.568  10.130   4.361 -0.0972 -0.6424  0.1349
24029OCT     C248058  17.078  10.045   4.341 -0.0016 -0.2233  0.0753
24030OCT     C148059  23.612   6.524  23.396 -0.0248  0.0991  0.1406
24030OCT     C248060  23.532   6.265  23.733 -0.0982 -0.1355 -0.2475
24031OCT     C148061  17.102  10.654   1.271 -0.0435  0.0616  0.3426
24031OCT     C248062  17.066  10.999   0.992 -0.3927 -0.0365  0.0988
24032OCT     C148063  17.314  22.422   7.990 -0.0531 -0.0805 -0.0238
24032OCT     C248064  17.501  22.820   8.285  0.1590  0.4569 -0.0180
24033OCT     C148065  21.833  18.619  14.883  0.2514 -0.1993  0.2685
24033OCT     C248066  22.094  18.305  14.942  0.0378 -0.1171  0.0045
24034OCT     C148067  17.340  17.734  15.812 -0.1365  0.0938  0.1297
24034OCT     C248068  17.422  18.179  15.941 -0.0889 -0.2269 -0.2242
24035OCT     C148069  15.279  22.184  15.141  0.1409  0.1812 -0.1243
24035OCT     C248070  15.288  22.616  15.056 -0.0659  0.2560 -0.1428
24036OCT     C148071  18.837  11.401  10.783  0.1525 -0.0363  0.0576
24036OCT     C248072  18.464  11.615  10.925  0.0133  0.2473 -0.0609
24037OCT     C148073  16.184  18.216   3.156  0.2160  0.0848  0.2611
24037OCT     C248074  16.622  18.017   3.109 -0.1063  0.2120  0.1027
24038OCT     C148075  11.675  21.067  22.657 -0.2327  0.1151  0.1362
24038OCT     C248076  11.826  21.359  22.999 -0.1988  0.2392 -0.2958
24039OCT     C148077   2.068   8.408  18.753  0.1472 -0.1668  0.2367
24039OCT     C248078   1.887   8.448  19.152 -0.3849  0.1343  0.4741
24040OCT     C148079  19.081  22.473   6.009 -0.0822 -0.3901 -0.2135
24040OCT     C248080  18.797  22.157   5.860 -0.1745 -0.2901  0.2335
24041OCT     C148081  22.229  12.910  21.178  0.1544 -0.2186 -0.3877
24041OCT     C248082  22.194  13.090  21.636  0.2959 -0.2210 -0.2379
24042OCT     C148083  20.260   5.964  17.070 -0.0002  0.2823  0.0256
24042OCT     C248084  19.821   6.029  17.293  0.4054  0.2645  0.1022
24043OCT     C148085   2.131  14.684  16.684  0.0768  0.1711  0.1306
24043OCT     C248086   2.140  15.103  16.401  0.3084  0.2525 -0.2645
24044OCT     C148087   9.189   1.098  11.695  0.1158 -0.0319 -0.1184
24044OCT     C248088   8.826   0.787  11.699  0.3188 -0.1832 -0.5096
24045OCT     C148089  20.305  22.424  14.723 -0.1790  0.2017  0.2383
24045OCT     C248090  20.655  22.598  14.476  0.1375  0.1867 -0.2246
24046OCT     C148091  13.678  19.770   4.123 -0.1822 -0.4095  0.2267
24046OCT     C248092  13.628  19.301   4.237  0.1725 -0.3817  0.2372
24047OCT     C148093  15.087   4.719   0.948  0.0302  0.2587 -0.0792
24047OCT     C248094  15.296   5.029   0.662  0.1372 -0.0918  0.1977
24048OCT     C148095  16.920  10.689   3.357 -0.1360  0.1762  0.0149
24048OCT     C248096  17.085  10.268   3.535  0.0242 -0.0795  0.3799
24049OCT     C148097   6.069  19.167  10.034  0.1318  0.1574  0.0151
24049OCT     C248098   6.168  19.549   9.736  0.0351  0.8662  0.0204
24050OCT     C148099  20.308  17.189  23.311 -0.3068  0.0614 -0.7240
24050OCT     C248100  20.261  17.623  23.182  0.1532 -0.0198 -0.2407
24051OCT     C148101  10.673   5.098   7.131 -0.0895 -0.3730 -0.2910
24051OCT     C248102  10.224   5.060   7.208  0.0579 -0.3594  0.0053
24052OCT     C148103   3.954  17.129  14.894  0.0436 -0.0821 -0.0746
24052OCT     C248104   3.988  17.098  15.375 -0.2331  0.0522  0.3233
24053OCT     C148105  19.683  18.799   7.619  0.0681 -0.0311  0.4003
24053OCT     C248106  19.760  18.956   7.227  0.0450 -0.0292 -0.2025
24054OCT     C148107  12.690  22.727   4.349 -0.0460 -0.1834  0.1195
24054OCT     C248108  12.307  22.910   4.360 -0.3682  0.1567 -0.1853
24055OCT     C148109   2.876  18.566   0.981  0.0870 -0.0140  0.2792
24055OCT     C248110   2.838  18.596   0.536  0.0263  0.0909  0.0089
24056OCT     C148111  14.493  11.656   3.836 -0.1827 -0.4074 -0.0456
24056OCT     C248112  14.105  11.889   3.940 -0.0883  0.3551 -0.0275
24057OCT     C148113  12.596  11.571   0.817 -0.2101  0.1424 -0.2255
24057OCT     C248114  12.664  11.220   0.594  0.1604 -0.1010  0.2572
24058OCT     C148115  13.445   6.354   4.495 -0.3841  0.0074 -0.4490
24058OCT     C248116  13.331   6.423   4.029  0.0822  0.0610 -0.0220
24059OCT     C148117  13.769   9.851   0.009 -0.0236 -0.4008  0.0419
24059OCT     C248118  14.053  10.133   0.176 -0.0206  0.1749  0.0358
24060OCT     C148119   6.493  13.864   0.190 -0.2235  0.0628  0.1850
24060OCT     C248120   6.424  14.192   0.511  0.1853 -0.0454  0.1661
24061OCT     C148121  10.668   4.102  10.519 -0.3089 -0.0525 -0.0483
24061OCT     C248122  10.486   4.307  10.854 -0.1590  0.0742 -0.0136
24062OCT     C148123   1.121   6.974  21.801  0.3068 -0.0579 -0.3314
24062OCT     C248124   1.115   6.718  22.169  0.2363 -0.3702 -0.3053
24063OCT     C148125  17.989  15.353  19.696  0.0219 -0.0700 -0.2822
24063OCT     C248126  18.158  15.054  19.367 -0.0275  0.3450  0.2804
24064OCT     C148127  16.591   7.089   2.567 -0.0018 -0.0643 -0.1708
24064OCT     C248128  16.414   6.820   2.262  0.0208  0.3082 -0.4014
24065OCT     C148129   2.697   4.117  19.756 -0.0032  0.2003 -0.1127
24065OCT     C248130   2.812   4.464  19.413 -0.0325 -0.4197  0.0400
24066OCT     C148131   3.098  15.311  16.765 -0.1203 -0.0708 -0.1518
24066OCT     C248132   3.255  15.516  17.212  0.2171 -0.3630  0.2369
24067OCT     C148133  15.589   2.499  21.237 -0.0319 -0.0165 -0.2424
24067OCT     C248134  15.493   2.355  20.819 -0.3696  0.0711 -0.1911
24068OCT     C148135  18.148   8.140  19.039  0.0324 -0.2072 -0.1156
24068OCT     C248136  18.344   8.368  19.370  0.1555 -0.0432 -0.0784
24069OCT     C148137  22.968   7.192   5.817  0.1616  0.1128 -0.0471
24069OCT     C248138  23.266   7.452   5.957  0.4474 -0.0593 -0.1142
24070OCT     C148139  23.697  14.183  13.530 -0.2306 -0.0553  0.1064
24070OCT     C248140   0.412  14.209  13.506  0.2434 -0.1866  0.2844
24071OCT     C148141  16.395  19.243   2.589  0.0799  0.1735 -0.0995
24071OCT     C248142  16.727  19.566   2.757  0.1436 -0.1109  0.0055
24072OCT     C148143   6.502  14.105  16.392  0.0940  0.1577  0.2496
24072OCT     C248144   6.236  13.890  16.679 -0.0990 -0.0732  0.5496
24073OCT     C148145  16.845  22.578  21.182  0.3370  0.1108 -0.0486
24073OCT     C248146  16.960  22.199  21.473 -0.1859 -0.1405  0.1511
24074OCT     C148147  23.186   7.573   3.585 -0.0954 -0.0350 -0.2473
24074OCT     C248148  22.749   7.449   3.564  0.1162 -0.1524 -0.0575
24075OCT     C148149  12.107   2.498  23.231  0.3088  0.0417  0.4971
24075OCT     C248150  12.469   2.287  23.040 -0.2630  0.3596  0.1044
24076OCT     C148151   5.068  23.328   3.983 -0.0758  0.3826 -0.0292
24076OCT     C248152   4.978  23.540   4.364  0.2417  0.0341 -0.2340
24077OCT     C148153  12.538  21.105   8.204 -0.0173  0.4570  0.0309
24077OCT     C248154  12.431  20.807   8.533  0.2644 -0.0446  0.1192
24078OCT     C148155  16.796  22.260   1.109 -0.2629  0.1016  0.1431
24078OCT     C248156  16.471  22.228   0.794  0.1743  0.2080 -0.3160
24079OCT     C148157  22.056   7.270  13.206 -0.1254  0.1127 -0.0333
24079OCT     C248158  22.320   6.945  13.413  0.1793  0.1184 -0.0677
24080OCT     C148159   7.115  11.760  11.450  0.0483 -0.0498  0.1793
24080OCT     C248160   6.726  11.520  11.337 -0.2335  0.0991  0.2815
24081OCT     C148161   1.378   0.088  17.262  0.2192 -0.3605  0.0769
24081OCT     C248162   1.346   0.535  17.100  0.2742 -0.1354  0.0491
24082OCT     C148163   1.659  19.418  16.927 -0.1689 -0.0508 -0.3737
24082OCT     C248164   2.054  19.164  16.890 -0.4256 -0.0642 -0.0063
24083OCT     C148165  19.389   8.387  19.864 -0.0284  0.0778 -0.1351
24083OCT     C248166  19.839   8.364  19.944  0.2109  0.0637  0.0446
24084OCT     C148167   1.492  11.291  17.217 -0.4523 -0.0717 -0.3898
24084OCT     C248168   1.540  11.014  17.596  0.2423 -0.1741 -0.2493
24085OCT     C148169  14.032   4.647   5.356  0.1175  0.2484 -0.0264
24085OCT     C248170  14.466   4.571   5.537 -0.3513 -0.3082 -0.0166
24086OCT     C148171  21.406   2.540  23.359 -0.3143  0.0112  0.0289
24086OCT     C248172  21.787   2.302  23.624  0.2325  0.0920 -0.1447
24087OCT     C148173  16.179  10.515   9.676 -0.0242 -0.2774 -0.0968
24087OCT     C248174  16.609  10.682   9.683  0.0611 -0.2452  0.0681
24088OCT     C148175   9.148  21.176   3.358  0.2156  0.3860  0.1187
24088OCT     C248176   9.007  20.737   3.352 -0.3338  0.1471 -0.1124
24089OCT     C148177  12.116  11.546  15.596  0.2082  0.1315  0.3652
24089OCT     C248178  12.499  11.307  15.450  0.1713  0.1816 -0.2020
24090OCT     C148179  21.219  11.739   0.926  0.1762  0.2340 -0.1726
24090OCT     C248180  20.752  11.901   1.056 -0.4879 -0.0355 -0.1340
24091OCT     C148181  15.492  23.713  14.124 -0.1199 -0.1325 -0.4748
24091OCT     C248182  15.279  23.635  14.527  0.2777 -0.0541  0.0303
24092OCT     C148183   7.018  18.046  11.692  0.3472  0.0509  0.1519
24092OCT     C248184   6.781  18.437  11.669 -0.1333  0.3264 -0.1504
24093OCT     C148185  12.538  10.520  21.576  0.1118 -0.4547  0.2445
24093OCT     C248186  12.870  10.564  21.235  0.1479  0.0748  0.6216
24094OCT     C148187   8.318  11.717   9.210  0.3638 -0.1158  0.0638
24094OCT     C248188   8.054  11.920   8.873  0.1758  0.1113  0.0737
24095OCT     C148189   9.505  23.392   2.231  0.2499  0.2205 -0.0078
24095OCT     C248190   9.353  23.282   1.803  0.1639 -0.1255  0.1668
24096OCT     C148191   4.946   1.361   5.409  0.0810  0.1939  0.6157
24096OCT     C248192   5.002   1.156   4.972  0.0272 -0.0787  0.3481
24097OCT     C148193  12.301   4.072   1.230  0.0302  0.1907  0.2220
24097OCT     C248194  11.837   3.925   1.233  0.2880 -0.0230  0.1308
24098OCT     C148195   7.694   6.923   4.146 -0.4911  0.1260 -0.3289
24098OCT     C248196   7.893   7.139   3.806 -0.0837  0.1168  0.1018
24099OCT     C148197  14.347  23.349  17.937  0.2268 -0.1915  0.1197
24099OCT     C248198  14.225  23.018  17.698 -0.1866  0.2779  0.1247
24100OCT     C148199   5.342  20.871   6.945 -0.2664 -0.0729  0.1988
24100OCT     C248200   4.954  20.702   7.034 -0.1982  0.0499  0.3112
24101OCT     C148201  11.939  13.207   2.683  0.2459  0.0661 -0.3122
24101OCT     C248202  11.756  13.023   2.286  0.3116 -0.1343  0.1031
24102OCT     C148203  20.099   7.311   0.741  0.0527  0.0135  0.2265
24102OCT     C248204  19.899   7.282   1.156  0.2725  0.1601 -0.2513
24103OCT     C148205  11.444  10.930   0.236  0.1527  0.1486 -0.2463
24103OCT     C248206  11.427  10.661  23.590 -0.1810  0.0549  0.0883
24104OCT     C148207   2.798  11.028   6.001 -0.0632  0.1640  0.3064
24104OCT     C248208   2.356  11.157   6.262 -0.0741  0.0245  0.0388
24105OCT     C148209   7.527  21.910  15.241  0.1910  0.2365  0.0991
24105OCT     C248210   7.223  22.134  14.985  0.2126 -0.0127 -0.0537
24106OCT     C148211  14.563   2.295  22.893 -0.0976  0.0808  0.2452
24106OCT     C248212  14.836   2.666  22.829  0.2549 -0.2108  0.1745
24107OCT     C148213   5.229  20.645   0.600  0.3578 -0.0690  0.0666
24107OCT     C248214   5.661  20.475   0.748  0.0130  0.2153 -0.2532
24108OCT     C148215   8.521  16.505  12.817  0.1866 -0.1841 -0.1502
24108OCT     C248216   8.200  16.278  13.023 -0.0815  0.1313 -0.0828
24109OCT     C148217  15.793  20.230  23.221 -0.0073  0.2651 -0.2270
24109OCT     C248218  15.825  20.627  23.494  0.1435 -0.2052 -0.2082
24110OCT     C148219  12.897  16.825   5.393  0.2542  0.2875 -0.1954
24110OCT     C248220  12.623  16.902   5.794 -0.2328  0.2258  0.1560
24111OCT     C148221   8.498  16.541  15.265  0.2247  0.1297  0.0984
24111OCT     C248222   8.147  16.703  15.525 -0.0718 -0.4189  0.3977
24112OCT     C148223   7.314  10.432   3.880  0.3211 -0.1802  0.3009
24112OCT     C248224   6.978  10.115   3.996  0.4638 -0.3309 -0.3291
24113OCT     C148225   2.964  19.400  13.064 -0.0305  0.2819 -0.3169
24113OCT     C248226   2.594  19.142  12.950 -0.0923  0.2329 -0.0365
24114OCT     C148227   6.320   1.308  14.493 -0.2270 -0.2331 -0.4487
24114OCT     C248228   6.472   0.933  14.285 -0.1596  0.1303  0.0293
24115OCT     C148229   4.059   0.525  19.250  0.2075 -0.1077 -0.2736
24115OCT     C248230   3.619   0.658  19.075  0.1226 -0.0944 -0.3443
24116OCT     C148231  20.368  17.976  22.497  0.2359  0.3543 -0.1845
24116OCT     C248232  20.415  18.398  22.356  0.4995 -0.3494  0.0571
24117OCT     C148233  13.485   5.382   8.725 -0.1447  0.0464 -0.1290
24117OCT     C248234  13.380   4.894   8.690 -0.1497 -0.2644 -0.2435
24118OCT     C148235  20.121  11.804  18.806  0.0345  0.2841 -0.0997
24118OCT     C248236  20.151  11.470  18.437  0.2219  0.0455 -0.4988
24119OCT     C148237   7.780   9.675   3.875  0.0365 -0.1395 -0.4458
24119OCT     C248238   7.557   9.854   4.250 -0.1132  0.6182 -0.4844
24120OCT     C148239  12.888  18.219  20.733 -0.1239  0.1683 -0.2893
24120OCT     C248240  13.315  18.042  20.942 -0.0178 -0.0173 -0.3882
24121OCT     C148241  10.438   7.432  21.670  0.5045  0.1185  0.0726
24121OCT     C248242  10.606   7.227  22.080 -0.1237  0.0151  0.3810
24122OCT     C148243  19.338  12.958   5.650 -0.2069 -0.0207 -0.0660
24122OCT     C248244  19.618  13.342   5.454  0.3119 -0.1229 -0.1484
24123OCT     C148245   1.818  16.198  17.862 -0.2824  0.5572 -0.0490
24123OCT     C248246   1.986  15.776  18.045  0.2010  0.5222  0.1944
24124OCT     C148247   3.679  10.122   3.917  0.0198  0.3018  0.3212
24124OCT     C248248   4.094   9.925   4.011 -0.2700 -0.2997  0.3547
24125OCT     C148249  17.180   8.791  17.876 -0.1141  0.0001 -0.3490
24125OCT     C248250  16.866   8.528  17.664  0.1699  0.1694  0.0736
24126OCT     C148251   3.481   9.090  12.048 -0.1177  0.2813  0.3108
24126OCT     C248252   3.362   9.523  12.008  0.5045 -0.1637  0.1665
24127OCT     C148253   0.098   7.150   3.656 -0.0473  0.0503 -0.1509
24127OCT     C248254  23.423   7.078   3.461 -0.1014 -0.3469  0.0729
24128OCT     C148255  14.995  14.035  21.224  0.2658  0.0027 -0.3254
24128OCT     C248256  14.872  13.662  21.476 -0.3268 -0.2704  0.2425
24129OCT     C148257   9.744   6.216   8.450  0.2078 -0.1684  0.1303
24129OCT     C248258   9.485   5.950   8.171 -0.0839 -0.3830  0.0911
24130OCT     C148259  17.279  19.191   0.895 -0.2029 -0.3288 -0.1950
24130OCT     C248260  17.483  18.798   0.974 -0.2710 -0.1574 -0.1273
24131OCT     C148261  14.011  22.768   3.762  0.2168 -0.5899  0.0905
24131OCT     C248262  13.954  22.314   3.716 -0.1212  0.0703  0.3020
24132OCT     C148263  10.360  19.399   6.661  0.0291  0.0330  0.0734
24132OCT     C248264  10.358  19.365   7.164 -0.2037  0.0848 -0.2681
24133OCT     C148265   6.512  20.126  18.310 -0.2032 -0.1345  0.1060
24133OCT     C248266   6.610  20.006  17.893 -0.4088 -0.0453  0.0403
24134OCT     C148267  11.386   3.686  10.074  0.0210  0.0288 -0.3670
24134OCT     C248268  11.211   3.393  10.392  0.1489  0.0282  0.2644
24135OCT     C148269   1.408  23.701  13.354 -0.0888 -0.3263 -0.0264
24135OCT     C248270   1.152   0.089  13.072 -0.2807  0.0731 -0.1095
24136OCT     C148271  17.839  20.316  21.554 -0.0464 -0.1460 -0.2997
24136OCT     C248272  17.332  20.318  21.625 -0.0005 -0.2697  0.0316
24137OCT     C148273   6.812   1.550  20.759 -0.0277 -0.3821 -0.4002
24137OCT     C248274   7.049   1.841  20.554  0.0967 -0.4632 -0.1330
24138OCT     C148275  12.596  13.221  16.298 -0.2484 -0.3826 -0.2655
24138OCT     C248276  12.983  13.001  16.125  0.4017 -0.5111 -0.1880
24139OCT     C148277  13.863  17.642  23.090 -0.0557  0.0964  0.3176
24139OCT     C248278  13.887  17.361  23.460  0.3361 -0.0327 -0.3228
24140OCT     C148279  15.878  22.459   4.461  0.1084 -0.2962  0.1462
24140OCT     C248280  16.336  22.449   4.505 -0.0521  0.1846 -0.1571
24141OCT     C148281  23.393  20.943   4.478  0.3960  0.0932  0.1638
24141OCT     C248282  23.595  20.528   4.428 -0.2232  0.0870 -0.1460
24142OCT     C148283   5.692   6.347  18.638  0.3214 -0.1037 -0.1917
24142OCT     C248284   6.028   6.687  18.645  0.1397 -0.1352 -0.0574
24143OCT     C148285  21.283   2.650  10.607  0.2849 -0.1090 -0.1325
24143OCT     C248286  21.196   3.062  10.831  0.1272  0.2589 -0.1646
24144OCT     C148287   7.032   7.959   2.866  0.1685  0.1725 -0.2036
24144OCT     C248288   7.358   8.257   2.643 -0.1110  0.0287 -0.0876
24145OCT     C148289  18.038  15.964  14.813 -0.0506  0.0581  0.1749
24145OCT     C248290  17.905  15.579  15.069  0.3330 -0.4412 -0.0448
24146OCT     C148291  18.789  15.429   3.567  0.0978  0.1462  0.2312
24146OCT     C248292  18.392  15.658   3.564  0.1203  0.3019  0.2871
24147OCT     C148293   6.138   5.554   4.896  0.1324  0.1889  0.1731
24147OCT     C248294   6.243   5.905   4.650  0.1537  0.2660 -0.4105
24148OCT     C148295  22.947  20.285  12.725 -0.1508  0.0910 -0.0416
24148OCT     C248296  22.610  20.588  12.809 -0.4839  0.0779  0.0456
24149OCT     C148297  18.033  10.529  20.724 -0.3124 -0.5937 -0.0739
24149OCT     C248298  18.454  10.699  20.516 -0.3198  0.1489 -0.0728
24150OCT     C148299   4.715   0.816   0.091 -0.1955  0.1275 -0.2199
24150OCT     C248300   5.070   1.037   0.180  0.0496 -0.4323 -0.3350
24151OCT     C148301  15.295  14.004  15.990 -0.0014  0.4707 -0.1976
24151OCT     C248302  15.288  13.639  16.284  0.1929  0.0978  0.1472
24152OCT     C148303  10.069  10.898  23.420  0.2518 -0.1421 -0.1317
24152OCT     C248304   9.664  11.014  23.740 -0.3393 -0.2538  0.3032
24153OCT     C148305  12.229   2.210   6.774  0.2571  0.1212 -0.5055
24153OCT     C248306  12.443   2.061   7.217 -0.0622  0.1069  0.1293
24154OCT     C148307   9.110  13.011   1.982 -0.0962 -0.1513  0.1484
24154OCT     C248308   8.967  13.408   1.904 -0.0239  0.1108 -0.1594
24155OCT     C148309   4.244  18.779  12.508  0.0118 -0.0413  0.1580
24155OCT     C248310   4.474  18.664  12.898 -0.1469 -0.2652 -0.1652
24156OCT     C148311   6.169  17.054  11.624 -0.0333 -0.0371  0.1500
24156OCT     C248312   6.594  17.128  11.832 -0.1758  0.5193  0.1098
24157OCT     C148313   2.060  13.058  20.580 -0.0822 -0.2512  0.0555
24157OCT     C248314   2.343  12.703  20.448 -0.2324  0.1074 -0.1773
24158OCT     C148315   9.467   6.539  15.508 -0.1623  0.2739 -0.3671
24158OCT     C248316   9.347   6.194  15.252 -0.2431 -0.0810  0.2363
24159OCT     C148317  16.882  18.475  13.002  0.1258  0.0272 -0.2486
24159OCT     C248318  17.212  18.763  13.122 -0.0101 -0.1070 -0.2670
24160OCT     C148319  23.319   8.444   7.117 -0.1876 -0.0996  0.0229
24160OCT     C248320   0.016   8.367   7.231 -0.1465  0.0905 -0.0310
24161OCT     C148321   5.234   4.013  11.736 -0.2425  0.2631  0.0404
24161OCT     C248322   5.154   4.460  11.739  0.1131  0.4730 -0.1657
24162OCT     C148323  17.627  21.351  21.127  0.1031  0.0242 -0.5185
24162OCT     C248324  17.647  21.572  21.481  0.1130  0.1321  0.0714
24163OCT     C148325   3.967   4.985  20.446  0.0215  0.1246  0.1070
24163OCT     C248326   3.766   4.557  20.531 -0.2541 -0.0973 -0.0432
24164OCT     C148327   6.794  13.443   5.709  0.0130 -0.0712  0.1281
24164OCT     C248328   6.764  13.588   6.124 -0.0970 -0.0069  0.0434
24165OCT     C148329  22.777  11.461  17.229  0.2508 -0.2270  0.0367
24165OCT     C248330  22.401  11.317  16.947  0.0177  0.0924 -0.2557
24166OCT     C148331  13.951  16.429   0.178  0.0680  0.0755 -0.2423
24166OCT     C248332  13.911  16.537  23.469 -0.1591  0.0462  0.3121
24167OCT     C148333  22.273  13.524  21.304 -0.0959 -0.2042 -0.2037
24167OCT     C248334  22.050  13.915  21.501 -0.0188  0.3334  0.0691
24168OCT     C148335  17.135  18.504  16.317  0.1088  0.3719 -0.0860
24168OCT     C248336  17.407  18.695  16.037 -0.3953 -0.1917 -0.2144
24169OCT     C148337  21.835   0.753  17.366  0.2035 -0.1101  0.0901
24169OCT     C248338  21.991   0.348  17.430 -0.3837  0.2624  0.0479
24170OCT     C148339   4.430   5.941  13.932  0.1654  0.2285 -0.2194
24170OCT     C248340   4.071   6.201  14.153  0.1986  0.0076  0.1879
24171OCT     C148341   1.054  12.770   6.183 -0.0080 -0.0844 -0.0132
24171OCT     C248342   0.616  12.523   5.976  0.1127  0.0041 -0.0104
24172OCT     C148343   9.932   7.149  13.637 -0.1472  0.4974 -0.0451
24172OCT     C248344  10.117   7.475  14.030 -0.0116 -0.2005  0.1479
24173OCT     C148345   4.225  19.312  10.307 -0.1676  0.1982 -0.4144
24173OCT     C248346   4.117  19.723  10.472 -0.0820  0.0237  0.0204
24174OCT     C148347  13.381  15.999  22.303  0.0139 -0.1408 -0.0609
24174OCT     C248348  13.375  15.671  22.657  0.0962 -0.2290  0.1891
24175OCT     C148349  18.228  23.578   8.911 -0.0316  0.1447 -0.0838
24175OCT     C248350  18.037  23.265   9.219 -0.0239  0.1364 -0.0970
24176OCT     C148351  16.178   5.009  16.069 -0.1351  0.2445  0.4100
24176OCT     C248352  16.475   5.106  16.424  0.2336 -0.1350 -0.2316
24177OCT     C148353  12.670  11.662  17.086  0.1118  0.0010 -0.0400
24177OCT     C248354  12.351  11.681  17.398 -0.2550  0.3160 -0.5626
24178OCT     C148355  23.319   7.413   9.717  0.1724 -0.4752  0.2675
24178OCT     C248356  23.242   7.005   9.862 -0.1175  0.3209  0.1840
24179OCT     C148357   2.014   1.886  14.544 -0.3858 -0.0135  0.0677
24179OCT     C248358   1.773   2.220  14.384  0.0142  0.2667 -0.2295
24180OCT     C148359  12.409  20.871  13.365  0.0118 -0.0179 -0.1269
24180OCT     C248360  11.982  20.568  13.391 -0.0841 -0.2395 -0.3500
24181OCT     C148361  12.191  16.805  17.597  0.1681 -0.0602 -0.3367
24181OCT     C248362  11.751  16.914  17.429  0.1906  0.0429 -0.1233
24182OCT     C148363   4.851  18.533  12.418  0.1549  0.0521 -0.0619
24182OCT     C248364   4.592  18.801  12.186 -0.6126  0.1082  0.1900
24183OCT     C148365  13.585  13.211   6.912  0.0061 -0.4002  0.2296
24183OCT     C248366  14.056  13.188   6.778  0.1868  0.0460 -0.0127
24184OCT     C148367   2.477   3.827  18.314  0.3952 -0.0559  0.2573
24184OCT     C248368   2.635   3.430  18.083  0.0071  0.2847  0.1287
24185OCT     C148369  16.128   3.033  19.610  0.1629 -0.0390 -0.0953
24185OCT     C248370  15.626   2.892  19.677  0.1367 -0.0066  0.0576
24186OCT     C148371  16.753   6.579  13.320  0.0437 -0.1144 -0.0239
24186OCT     C248372  16.586   6.272  13.003 -0.0309  0.0418 -0.1130
24187OCT     C148373   3.356  23.341   7.243 -0.3460  0.1321  0.3687
24187OCT     C248374   3.721  23.242   7.401 -0.1246 -0.4149 -0.0865
24188OCT     C148375  12.000  15.102  21.294  0.0178  0.0813 -0.1893
24188OCT     C248376  11.974  15.508  21.031 -0.0121  0.1146 -0.1458
24189OCT     C148377   9.932  19.224   6.434  0.0621  0.0720  0.0345
24189OCT     C248378   9.919  19.627   6.676 -0.0093 -0.2165 -0.1025
24190OCT     C148379   9.853   4.112  18.763  0.1405  0.2162  0.1492
24190OCT     C248380   9.632   3.992  18.366  0.0203  0.2140  0.0273
24191OCT     C148381   5.371  14.649   6.923 -0.4530 -0.1166 -0.0748
24191OCT     C248382   5.671  15.015   6.747 -0.0565 -0.0874 -0.0734
24192OCT     C148383  11.374  13.062  22.485  0.2066 -0.1435 -0.0598
24192OCT     C248384  11.488  13.235  22.890  0.3544  0.0288 -0.0475
24193OCT     C148385  22.848   4.830  23.725  0.0836  0.3351  0.1933
24193OCT     C248386  22.572   4.401  23.735  0.2446 -0.3344 -0.2075
24194OCT     C148387   7.723  23.175   0.471  0.6274 -0.0312 -0.1282
24194OCT     C248388   7.820  22.859   0.094  0.1900 -0.0052 -0.0501
24195OCT     C148389  14.685   5.036   3.276  0.0248 -0.1411  0.1609
24195OCT     C248390  15.140   4.843   3.233  0.2103 -0.1999 -0.0328
24196OCT     C148391   0.005   1.996  13.564 -0.1952  0.2297  0.1698
24196OCT     C248392  23.648   2.080  13.980 -0.1932  0.2605  0.0224
24197OCT     C148393   9.870  10.625  13.120 -0.0433 -0.1378 -0.0062
24197OCT     C248394   9.891  11.074  12.910 -0.1289 -0.1062 -0.2569
24198OCT     C148395  17.151  18.265  18.751 -0.0144 -0.0333  0.2275
24198OCT     C248396  17.212  17.802  18.611 -0.0481 -0.2968  0.0211
24199OCT     C148397   4.276  15.358  17.847  0.3224  0.1689  0.0073
24199OCT     C248398   4.452  15.428  18.299 -0.0235  0.0609 -0.2268
24200OCT     C148399   0.612   6.884  21.939 -0.2296  0.0518 -0.1658
24200OCT     C248400   0.694   7.156  22.271  0.1839  0.1567 -0.2280
24201OCT     C148401  23.389   9.885  12.016 -0.1309  0.1792 -0.1542
24201OCT     C248402  23.127   9.522  12.116  0.0941  0.0010 -0.4672
24202OCT     C148403   3.283  12.436  14.517  0.0423  0.1094  0.3990
24202OCT     C248404   3.644  12.086  14.687 -0.0540  0.0228  0.2725
24203OCT     C148405   2.941  22.287   3.925 -0.2888  0.0682 -0.0983
24203OCT     C248406   2.541  22.312   3.743  0.2122  0.1680 -0.1414
24204OCT     C148407   3.141   1.282   9.663 -0.2065  0.0506  0.2229
24204OCT     C248408   3.088   0.891   9.389 -0.0048 -0.0206  0.0859
24205OCT     C148409  16.389  12.186   3.217  0.2532 -0.2177 -0.0710
24205OCT     C248410  16.287  12.672   3.316 -0.2652 -0.3771  0.0285
24206OCT     C148411  23.037  21.063  21.513  0.2308  0.1510 -0.0176
24206OCT     C248412  23.422  21.046  21.340  0.1264  0.0551  0.2519
24207OCT     C148413  17.336   0.372   6.084  0.3715 -0.2760  0.5421
24207OCT     C248414  17.040   0.024   5.991  0.2257  0.1336 -0.1917
24208OCT     C148415  21.569  11.471  10.367 -0.0097 -0.0873 -0.1613
24208OCT     C248416  21.930  11.675  10.542  0.3664 -0.0565 -0.2621
24209OCT     C148417  14.102  11.010  20.575  0.5213  0.1154 -0.0087
24209OCT     C248418  14.185  10.581  20.666  0.1605  0.2423 -0.2525
24210OCT     C148419  13.930  15.138  20.482 -0.0475  0.0266 -0.0561
24210OCT     C248420  13.792  14.956  20.006  0.1807  0.5511 -0.1109
24211OCT     C148421   4.677  17.053  21.928  0.2082  0.0328 -0.0726
24211OCT     C248422   5.116  16.872  22.028  0.4109  0.1339  0.0896
24212OCT     C148423   8.200  18.456  18.564 -0.0511  0.1129  0.3069
24212OCT     C248424   8.470  18.520  18.126 -0.2825 -0.1452 -0.3151
24213OCT     C148425   4.899  18.819   0.884 -0.0432 -0.1367 -0.0107
24213OCT     C248426   4.533  18.832   1.150 -0.5355  0.0004 -0.0253
24214OCT     C148427   5.726   7.911   5.263 -0.2482  0.1534 -0.1286
24214OCT     C248428   5.801   7.758   5.722  0.2108 -0.0534  0.1470
24215OCT     C148429  16.714  15.473  10.035  0.1074 -0.1175  0.2207
24215OCT     C248430  16.588  15.822   9.710 -0.1448 -0.5645 -0.0192
24216OCT     C148431  17.308  16.546  21.283 -0.0946  0.0099  0.1187
24216OCT     C248432  17.258  16.202  21.626  0.0177 -0.0413  0.4433
24217OCT     C148433   8.956  22.790   4.050 -0.0678 -0.1955  0.0924
24217OCT     C248434   8.730  22.344   4.174  0.2287  0.0252  0.0017
24218OCT     C148435   3.649  15.298   6.275  0.3565 -0.2825  0.2053
24218OCT     C248436   3.695  15.363   5.785  0.1239 -0.4365  0.0956
24219OCT     C148437  18.252  16.107  11.686  0.0130  0.0548  0.2448
24219OCT     C248438  18.077  15.941  11.316  0.2175  0.1859  0.2679
24220OCT     C148439  10.737   7.995  17.725 -0.1359 -0.1625  0.1521
24220OCT     C248440  11.037   7.665  17.529 -0.0053 -0.1587  0.0068
24221OCT     C148441   2.948   3.455  20.580  0.0111  0.1920 -0.2212
24221OCT     C248442   2.568   3.720  20.827 -0.0008  0.0242  0.0893
24222OCT     C148443   6.287  22.642  11.970 -0.2175  0.5211 -0.3419
24222OCT     C248444   6.300  23.075  12.071 -0.1358 -0.1197 -0.0388
24223OCT     C148445  18.610  22.280   3.152 -0.2318  0.0709  0.3979
24223OCT     C248446  18.730  22.679   2.908  0.0733  0.0228  0.0944
24224OCT     C148447  20.199  18.674   2.327 -0.2928 -0.1263  0.2701
24224OCT     C248448  20.510  18.379   2.092 -0.4759  0.2149  0.2650
24225OCT     C148449  18.259  19.105  17.626  0.2011  0.1583  0.0052
24225OCT     C248450  18.319  19.506  17.371 -0.0804  0.2071  0.0373
24226OCT     C148451   8.645   8.266  18.675 -0.1059  0.0578  0.2741
24226OCT     C248452   8.844   8.091  18.293 -0.2368  0.1092 -0.0547
24227OCT     C148453   8.096   8.990  12.166 -0.3591  0.0921 -0.0013
24227OCT     C248454   8.018   9.360  11.838 -0.0330 -0.1118 -0.2339
24228OCT     C148455  21.180  13.711   8.305  0.1351 -0.0708 -0.2280
24228OCT     C248456  21.463  14.088   8.207 -0.0291 -0.1346  0.0236
24229OCT     C148457  19.952  12.700  15.515 -0.0865  0.2229  0.1642
24229OCT     C248458  19.537  12.525  15.566  0.0301 -0.1155 -0.2161
24230OCT     C148459   1.950  20.750  17.906  0.0760  0.0212  0.1804
24230OCT     C248460   2.401  20.604  17.993  0.1586  0.0408 -0.0674
24231OCT     C148461   2.333  18.469  11.020  0.1055  0.0782  0.0520
24231OCT     C248462   2.089  18.747  10.736 -0.0360  0.2425  0.1603
24232OCT     C148463  20.485  23.641   7.745 -0.2673  0.1458  0.3252
24232OCT     C248464  20.316  23.327   8.031 -0.3042  0.1513  0.0252
24233OCT     C148465  22.635  21.169   3.618 -0.4205 -0.1708 -0.2969
24233OCT     C248466  22.430  20.740   3.578 -0.0081  0.3626 -0.0173
24234OCT     C148467  21.387  15.460  21.096 -0.1663  0.1264 -0.0384
24234OCT     C248468  20.904  15.476  21.133  0.1915 -0.0298 -0.0047
24235OCT     C148469  12.933  22.118  22.238  0.4241  0.0974 -0.3020
24235OCT     C248470  13.128  22.105  21.783  0.0641 -0.1058  0.1200
24236OCT     C148471  11.151  13.467  17.303 -0.1419 -0.4157 -0.1946
24236OCT     C248472  11.501  13.805  17.495  0.2471  0.3391  0.2079
24237OCT     C148473  23.534  18.523  10.461 -0.5422  0.2119 -0.2905
24237OCT     C248474  23.410  18.484  10.038  0.0968  0.2816  0.0414
24238OCT     C148475  22.914  17.755  15.787 -0.1910  0.1163  0.2526
24238OCT     C248476  23.180  17.812  15.389  0.0742  0.2217  0.0891
24239OCT     C148477  13.789  11.014   6.452  0.1384 -0.0950  0.2750
24239OCT     C248478  14.192  10.959   6.275  0.2120 -0.2455  0.3116
24240OCT     C148479  18.753   6.114   1.343 -0.4088 -0.1312 -0.1369
24240OCT     C248480  18.823   5.646   1.251  0.0336 -0.3194  0.0658
24241OCT     C148481   3.649  13.122  13.661  0.0267 -0.3858 -0.3014
24241OCT     C248482   3.555  13.506  13.388 -0.0218 -0.0030  0.0858
24242OCT     C148483   7.516  19.665   5.917  0.0687  0.2965  0.0715
24242OCT     C248484   7.144  19.891   5.860  0.1507 -0.0352  0.0296
24243OCT     C148485  20.882  12.152   9.245 -0.2195 -0.0956 -0.0298
24243OCT     C248486  20.559  12.130   9.634  0.1116 -0.1277  0.2222
24244OCT     C148487  10.514  17.133  14.369 -0.0879  0.2239  0.2681
24244OCT     C248488  10.288  16.743  14.190 -0.1579  0.2373  0.0548
24245OCT     C148489   2.136  11.559   2.830  0.4044  0.0098  0.3976
24245OCT     C248490   1.927  11.658   2.392 -0.2545 -0.1539 -0.2399
24246OCT     C148491  22.795  11.316  11.309 -0.2327 -0.2816 -0.2474
24246OCT     C248492  22.862  11.196  11.809 -0.1549 -0.4334 -0.0052
24247OCT     C148493   5.496  11.213  23.433  0.0215  0.1166 -0.1483
24247OCT     C248494   5.663  11.311  22.982  0.4535 -0.2134 -0.0515
24248OCT     C148495  18.603  13.742   3.412 -0.3332  0.0365 -0.3145
24248OCT     C248496  18.771  13.507   3.829 -0.0661 -0.0141  0.1716
24249OCT     C148497  11.151   2.724  15.930  0.3076  0.0553  0.2062
24249OCT     C248498  11.145   2.237  15.974 -0.0528 -0.0080 -0.1902
24250OCT     C148499  17.689  19.248   7.329  0.2038  0.2082 -0.0036
24250OCT     C248500  17.338  18.902   7.344  0.0279 -0.2363 -0.2414
24251OCT     C148501   6.730  21.272   5.350  0.0366 -0.0286 -0.0692
24251OCT     C248502   6.731  21.629   5.668 -0.1522 -0.1571  0.1287
24252OCT     C148503  23.381   3.846   7.084  0.0748 -0.0709  0.0490
24252OCT     C248504  23.205   4.257   7.217  0.3660 -0.1445  0.3305
24253OCT     C148505  21.777   4.929  20.926 -0.0577 -0.0512  0.2961
24253OCT     C248506  21.639   4.721  21.357  0.2184 -0.1184  0.0452
24254OCT     C148507   5.896  21.025  17.205 -0.3374  0.3350 -0.3659
24254OCT     C248508   5.596  20.666  17.242 -0.1071  0.2018  0.1796
24255OCT     C148509  11.007   0.414  10.091 -0.1437  0.0248 -0.2437
24255OCT     C248510  11.067  23.722  10.165  0.2211 -0.0537  0.1487
24256OCT     C148511  17.120  11.389   9.721 -0.0194 -0.0823  0.0258
24256OCT     C248512  17.010  11.023   9.396  0.1032 -0.3239  0.3058
24257OCT     C148513  21.893  16.169   5.660  0.1929  0.1244 -0.4605
24257OCT     C248514  22.044  16.585   5.573 -0.1837 -0.1094 -0.1525
24258OCT     C148515   8.828  17.535  14.339 -0.1542  0.2229 -0.1153
24258OCT     C248516   9.156  17.192  14.193  0.1867  0.0387  0.2968
24259OCT     C148517   9.043   3.916  19.231 -0.0968  0.1520  0.4234
24259OCT     C248518   8.881   3.639  19.529 -0.0406 -0.0484 -0.2596
24260OCT     C148519   6.395   5.163  10.169  0.6459  0.0976  0.0910
24260OCT     C248520   6.303   5.601   9.939 -0.2268 -0.0165 -0.0671
24261OCT     C148521  11.901  19.823  16.057  0.1660 -0.1128 -0.3274
24261OCT     C248522  11.936  19.633  16.438 -0.1012  0.1808  0.1560
24262OCT     C148523  19.258  20.570  18.519  0.3085  0.1536  0.1156
24262OCT     C248524  18.852  20.565  18.745  0.0729  0.1297 -0.1478
24263OCT     C148525   0.460  23.558   1.072 -0.1684  0.0954  0.0151
24263OCT     C248526   0.418   0.032   1.470  0.2095 -0.0287  0.0069
24264OCT     C148527   8.045   8.148  12.756  0.0647  0.0020 -0.1888
24264OCT     C248528   7.579   8.286  12.793 -0.0422  0.1633  0.1630
24265OCT     C148529  22.517   3.391  10.728 -0.0382  0.0755  0.3779
24265OCT     C248530  22.186   3.668  10.962 -0.1816  0.3277 -0.0025
24266OCT     C148531  20.479   7.684  22.847  0.0404 -0.2557 -0.0682
24266OCT     C248532  20.368   7.612  22.415  0.0225  0.1854  0.0893
24267OCT     C148533  22.783  16.520   0.170  0.1747 -0.2556  0.1048
24267OCT     C248534  22.745  16.968   0.317  0.1990 -0.0866  0.2626
24268OCT     C148535   1.924  13.101   0.992 -0.1748  0.1342 -0.4039
24268OCT     C248536   1.720  12.706   0.900  0.1195 -0.3665 -0.0257
24269OCT     C148537  22.821  20.426   7.792  0.1387 -0.0083  0.0449
24269OCT     C248538  22.679  20.631   8.188 -0.1943 -0.1692 -0.1530
24270OCT     C148539  13.004   3.372   7.844 -0.2516  0.3836  0.1594
24270OCT     C248540  12.903   3.508   7.378  0.2962  0.1509  0.1302
24271OCT     C148541   8.813   4.385  21.177 -0.2259 -0.1036 -0.1045
24271OCT     C248542   9.095   4.020  21.084 -0.0603  0.0611  0.0618
24272OCT     C148543   6.683   7.846  14.225 -0.0342  0.3694  0.0889
24272OCT     C248544   7.108   7.914  14.378 -0.0976  0.1715 -0.0695
24273OCT     C148545   0.216  18.059  14.479 -0.3269 -0.1531 -0.1070
24273OCT     C248546  23.710  17.696  14.411 -0.2080 -0.2251 -0.0668
24274OCT     C148547   7.508   0.719   1.221 -0.0814  0.0583  0.0859
24274OCT     C248548   7.306   0.355   1.339  0.0613  0.2729  0.2626
24275OCT     C148549  21.160  14.741  13.968  0.0505  0.1432 -0.3958
24275OCT     C248550  20.787  14.768  14.293  0.0394 -0.0208 -0.0309
24276OCT     C148551  19.687   8.564   3.370 -0.0705 -0.0680  0.1880
24276OCT     C248552  20.114   8.688   3.445  0.2908 -0.2140 -0.2578
24277OCT     C148553  21.564   6.833  22.463  0.1357 -0.1575  0.1340
24277OCT     C248554  21.969   7.113  22.404  0.1022  0.0650 -0.0618
24278OCT     C148555  17.985  10.620   1.563 -0.0303  0.0295 -0.2049
24278OCT     C248556  18.108  11.027   1.371  0.0600  0.2112 -0.0505
24279OCT     C148557  12.333  15.788  18.091 -0.2054  0.0458  0.2602
24279OCT     C248558  12.261  15.842  18.557  0.0151  0.2141 -0.1128
24280OCT     C148559  23.475   1.868   7.081 -0.0574  0.0964  0.3388
24280OCT     C248560  23.519   1.997   6.624  0.2004 -0.3210  0.0513
24281OCT     C148561   7.190  19.271   8.806 -0.0479 -0.1642  0.0610
24281OCT     C248562   7.249  18.885   9.091  0.4194  0.4183  0.0400
24282OCT     C148563  15.800  13.801   8.999 -0.3573  0.2759 -0.0120
24282OCT     C248564  15.970  13.426   9.238 -0.5009 -0.4420 -0.0481
24283OCT     C148565  17.552  23.692  13.041  0.0960  0.3300  0.0610
24283OCT     C248566  17.250  23.356  13.231 -0.0722 -0.1121 -0.3487
24284OCT     C148567  20.460  11.505  22.609 -0.0222 -0.1035  0.0077
24284OCT     C248568  20.349  11.933  22.420 -0.4187 -0.3355  0.1180
24285OCT     C148569   8.055  12.347  20.003  0.0902  0.1646 -0.1941
24285OCT     C248570   8.299  12.685  19.839 -0.1537  0.0667  0.2602
24286OCT     C148571  16.192  15.171  17.953 -0.0647  0.3331 -0.1856
24286OCT     C248572  16.054  15.045  17.588 -0.1021  0.0125  0.0003
24287OCT     C148573  13.312  18.043   5.311 -0.1563  0.0708  0.2892
24287OCT     C248574  13.459  18.077   4.876  0.0570 -0.1273 -0.0498
24288OCT     C148575   0.876  21.888   0.916  0.1101 -0.1599 -0.2323
24288OCT     C248576   0.671  22.148   1.268 -0.3722 -0.3350 -0.1117
24289OCT     C148577  14.558   2.191   2.349 -0.2805  0.0508 -0.2854
24289OCT     C248578  14.562   2.251   1.890 -0.3861  0.2832 -0.4012
24290OCT     C148579  18.339  10.811  17.201  0.0736  0.0487 -0.1805
24290OCT     C248580  18.327  10.368  17.405 -0.0390 -0.8010 -0.0110
24291OCT     C148581   4.880  13.999   2.162  0.1319  0.0105  0.2162
24291OCT     C248582   4.602  13.607   2.134 -0.1778  0.1287  0.2205
24292OCT     C148583  20.541  14.860   8.294 -0.2001 -0.1066 -0.2039
24292OCT     C248584  20.471  14.369   8.280  0.3034  0.0140  0.3101
24293OCT     C148585  21.417   3.888  14.899  0.4717  0.0752  0.3490
24293OCT     C248586  20.978   4.089  14.989  0.0687  0.0402 -0.1988
24294OCT     C148587  22.371  19.860  11.468  0.1606 -0.0480 -0.0074
24294OCT     C248588  22.092  19.474  11.439 -0.2354  0.2290  0.0581
24295OCT     C148589   8.533  16.436   0.841 -0.0939 -0.1166 -0.2411
24295OCT     C248590   8.792  16.554   1.260 -0.1969  0.1408 -0.1004
24296OCT     C148591  12.546  22.981  16.566  0.1520 -0.0874 -0.0487
24296OCT     C248592  12.475  22.751  16.962 -0.1565 -0.0161 -0.0397
24297OCT     C148593  14.503  20.182  15.470 -0.2954 -0.1030 -0.0482
24297OCT     C248594  14.345  20.581  15.325 -0.0063 -0.2211 -0.3975
24298OCT     C148595   9.715  17.242   7.654 -0.0095  0.0330 -0.3454
24298OCT     C248596   9.729  16.801   7.582 -0.2349 -0.0596 -0.0868
24299OCT     C148597  21.646  22.000   1.941 -0.2506  0.3047  0.0659
24299OCT     C248598  21.624  22.012   1.409  0.0637 -0.1582  0.0563
24300OCT     C148599   4.273  16.372  23.184  0.1478 -0.2791 -0.2375
24300OCT     C248600   3.906  16.636  23.406 -0.2834 -0.3625 -0.0597
24301OCT     C148601  12.913   1.216   4.067  0.3357  0.0212 -0.0002
24301OCT     C248602  12.908   1.580   3.777 -0.2324  0.1805 -0.2187
24302OCT     C148603   9.210  16.609  15.898  0.0912 -0.0620 -0.2469
24302OCT     C248604   9.195  16.250  16.241 -0.1325 -0.0371  0.1430
24303OCT     C148605  17.690   4.355   9.946 -0.0990  0.0310 -0.2265
24303OCT     C248606  17.650   3.907   9.976  0.1331  0.1839  0.0890
24304OCT     C148607  10.642  11.914  21.319  0.0280 -0.1015 -0.1912
24304OCT     C248608  10.180  11.919  21.435  0.1543  0.1033  0.1727
24305OCT     C148609   3.299  12.033  13.681 -0.4797 -0.0468 -0.1160
24305OCT     C248610   3.499  12.255  14.020  0.2274 -0.0760 -0.0657
24306OCT     C148611   6.413   8.823  16.218 -0.0518  0.0280 -0.6069
24306OCT     C248612   6.456   9.012  16.658  0.0282 -0.1562 -0.0738
24307OCT     C148613  18.412   9.922  12.423  0.1118  0.2025 -0.2074
24307OCT     C248614  18.705  10.158  12.718  0.1297 -0.1156  0.0694
24308OCT     C148615   9.607  15.256   1.628  0.0649  0.5901 -0.1496
24308OCT     C248616   9.271  15.538   1.454 -0.1121  0.3819  0.0597
24309OCT     C148617  22.725  14.971  13.971  0.0947  0.2312 -0.2440
24309OCT     C248618  22.561  14.736  13.640  0.1269 -0.1653  0.2315
24310OCT     C148619   5.207   8.477  18.850  0.0286  0.2392  0.1687
24310OCT     C248620   4.908   8.582  19.202  0.5723  0.2356  0.0553
24311OCT     C148621  11.069   2.322  23.448 -0.0317 -0.1509 -0.0832
24311OCT     C248622  11.255   2.777  23.271  0.0984 -0.0489  0.1699
24312OCT     C148623   4.939  22.044  14.890 -0.2020  0.1558 -0.0824
24312OCT     C248624   4.575  22.320  14.847 -0.1632 -0.1303  0.2475
24313OCT     C148625   0.159  17.363  23.653  0.1164 -0.1823  0.2340
24313OCT     C248626   0.267  17.472   0.363  0.3393 -0.1764 -0.0905
24314OCT     C148627  12.770  22.568  13.854 -0.3476 -0.0196  0.0729
24314OCT     C248628  13.035  22.643  14.206  0.1501 -0.3040  0.0099
24315OCT     C148629  15.947   6.068  17.954 -0.1739  0.0425 -0.1422
24315OCT     C248630  15.782   5.884  17.548 -0.0375 -0.3409  0.0062
24316OCT     C148631  12.040  17.312   1.742 -0.3525  0.0121  0.1311
24316OCT     C248632  12.477  17.395   1.807  0.0101  0.1064  0.1218
24317OCT     C148633  10.937   0.746   5.516  0.4310 -0.1304 -0.3024
24317OCT     C248634  11.269   0.729   5.161 -0.1713  0.3495 -0.1778
24318OCT     C148635   1.133  16.920   8.771  0.1077  0.1290  0.2079
24318OCT     C248636   0.785  17.029   9.027  0.1749  0.0062 -0.2511
24319OCT     C148637  14.722  19.083   0.613  0.0012  0.3006 -0.1152
24319OCT     C248638  14.734  18.811   0.195 -0.1472  0.1758 -0.4997
24320OCT     C148639   3.432   1.962  17.984  0.1188  0.3853 -0.0773
24320OCT     C248640   3.776   1.886  18.295  0.0196 -0.2747  0.0830
24321OCT     C148641   1.494  23.046  21.113 -0.3215  0.2831 -0.0748
24321OCT     C248642   1.275  23.243  21.485  0.0369 -0.0757  0.0489
24322OCT     C148643  21.276  20.710  10.813 -0.5567 -0.3105 -0.0458
24322OCT     C248644  21.274  21.100  10.529  0.1184  0.5204  0.2145
24323OCT     C148645  13.522   4.778  15.690  0.1063  0.2178 -0.1489
24323OCT     C248646  13.463   5.075  15.312 -0.0805 -0.0557  0.3700
24324OCT     C148647  18.296   9.836  21.796 -0.0303  0.0639  0.1672
24324OCT     C248648  18.174   9.874  21.326 -0.1565 -0.1660 -0.0143
24325OCT     C148649  14.248  20.680  22.360 -0.2271 -0.1503 -0.0260
24325OCT     C248650  14.412  20.336  22.091 -0.2008 -0.3691 -0.3212
24326OCT     C148651   7.006  10.007   9.920 -0.2823  0.3888  0.1185
24326OCT     C248652   6.958  10.378   9.627  0.1477 -0.1999  0.0024
24327OCT     C148653   7.118  10.864  16.318 -0.5546 -0.3987  0.0020
24327OCT     C248654   6.684  10.679  16.328 -0.1395  0.0485 -0.0596
24328OCT     C148655  14.662  23.587   1.739 -0.0708  0.1561 -0.3433
24328OCT     C248656  15.063  23.507   1.505 -0.0840 -0.2130 -0.1046
24329OCT     C148657  15.273  11.095   8.716  0.3424  0.4066 -0.2421
24329OCT     C248658  15.686  11.135   8.452 -0.0988  0.2386 -0.2211
24330OCT     C148659  12.598   3.386   3.170  0.0432  0.0601 -0.1624
24330OCT     C248660  12.980   3.097   3.120  0.1231 -0.4400 -0.1112
24331OCT     C148661   6.700  11.954  12.872  0.3339  0.2659  0.0272
24331OCT     C248662   6.868  12.086  13.353 -0.2776  0.0549  0.0129
24332OCT     C148663   1.212   9.654   6.853  0.4027  0.0642  0.0464
24332OCT     C248664   1.584   9.380   6.773  0.1639  0.3083 -0.0944
24333OCT     C148665  10.541   3.279  13.186 -0.1792 -0.1376 -0.0195
24333OCT     C248666  10.620   3.044  13.559 -0.3672  0.1298  0.2248
24334OCT     C148667  14.044   2.096  19.553  0.2239  0.0511  0.0302
24334OCT     C248668  14.259   2.439  19.293  0.3907 -0.2498 -0.2235
24335OCT     C148669   4.183  21.807  10.797 -0.1052  0.1597  0.1159
24335OCT     C248670   4.178  22.252  10.712 -0.3442  0.1995  0.0211
24336OCT     C148671   4.805   5.907   5.824  0.2086  0.3513  0.3695
24336OCT     C248672   5.053   5.877   6.186 -0.3751  0.0054  0.1031
24337OCT     C148673   2.705   4.827  11.986  0.2612 -0.1887 -0.0083
24337OCT     C248674   2.339   5.010  11.965  0.0774  0.0836 -0.1206
24338OCT     C148675  14.710  14.660  12.197  0.0694  0.1526  0.1696
24338OCT     C248676  14.397  14.859  11.943  0.0223 -0.0926 -0.2911
24339OCT     C148677   4.959  23.433   3.541  0.1593  0.3969  0.0932
24339OCT     C248678   4.905   0.011   3.882 -0.0880  0.1006 -0.0608
24340OCT     C148679  19.518   2.448  15.602 -0.0679  0.0924 -0.3329
24340OCT     C248680  19.549   2.037  15.455 -0.0885  0.0213  0.1139
24341OCT     C148681  21.952   2.435   7.397 -0.1372 -0.0712 -0.3871
24341OCT     C248682  21.506   2.477   7.264  0.1646  0.0147  0.2223
24342OCT     C148683   7.641   8.500   3.728  0.0865 -0.0643 -0.3531
24342OCT     C248684   7.795   8.056   3.579  0.1515  0.0153  0.2277
24343OCT     C148685   7.062  18.862   0.451  0.4143 -0.0331  0.3439
24343OCT     C248686   7.524  18.934   0.399 -0.1651 -0.1028 -0.2122
24344OCT     C148687  11.601  14.369  13.414  0.5476 -0.3363 -0.3788
24344OCT     C248688  11.703  14.629  13.114 -0.0426  0.0238  0.2443
24345OCT     C148689   4.186   5.261   0.018  0.1005 -0.1765  0.0476
24345OCT     C248690   3.946   4.865   0.042  0.2074 -0.0015 -0.0929
24346OCT     C148691  14.858   5.323  13.544 -0.1129  0.2299  0.0359
24346OCT     C248692  15.076   5.041  13.206 -0.2373  0.3514  0.0348
24347OCT     C148693  19.560   1.699  19.121 -0.2076 -0.2131 -0.0041
24347OCT     C248694  19.354   1.653  18.683  0.0465  0.5059 -0.3286
24348OCT     C148695  22.133  12.539  17.991 -0.0952 -0.0036  0.4833
24348OCT     C248696  22.179  12.597  17.526 -0.2433 -0.0059  0.1796
24349OCT     C148697  13.100  17.207  13.836 -0.1108 -0.1218 -0.1539
24349OCT     C248698  13.284  17.469  14.175 -0.0913 -0.0045 -0.1806
24350OCT     C148699   3.605   4.287  21.594  0.3699 -0.1052 -0.0097
24350OCT     C248700   3.644   4.179  22.080  0.3333  0.1595  0.2664
24351OCT     C148701  19.487   2.828  16.585 -0.0262 -0.0663 -0.1086
24351OCT     C248702  19.182   3.179  16.741 -0.4380 -0.1567 -0.0244
24352OCT     C148703  13.365   0.233  23.614  0.2891  0.1168 -0.0667
24352OCT     C248704  13.467   0.073   0.284  0.3044 -0.0832 -0.0101
24353OCT     C148705   3.146  14.058   5.508 -0.2038 -0.1103  0.2898
24353OCT     C248706   3.516  13.855   5.360  0.2062 -0.2519  0.1389
24354OCT     C148707  23.601  19.945   4.263 -0.2943  0.5733 -0.1328
24354OCT     C248708   0.147  20.312   4.095  0.0817  0.1953  0.1416
24355OCT     C148709   4.035  13.887  14.469 -0.3872 -0.0401 -0.0650
24355OCT     C248710   4.041  13.444  14.377 -0.1195  0.6548 -0.1257
24356OCT     C148711   6.725  14.533   0.332 -0.0634  0.3742  0.2849
24356OCT     C248712   7.085  14.263   0.508  0.0906 -0.1751 -0.0027
24357OCT     C148713   7.852  19.479  17.761 -0.0225  0.0106  0.0445
24357OCT     C248714   7.564  19.322  17.433 -0.0616 -0.2411  0.2827
24358OCT     C148715   7.566  17.165  12.816  0.1701 -0.4421 -0.0535
24358OCT     C248716   7.141  17.001  13.015  0.1058 -0.1464 -0.2494
24359OCT     C148717  23.336  10.430   9.896 -0.0867  0.1377  0.1901
24359OCT     C248718  23.276  10.821  10.097 -0.2459  0.1757  0.0393
24360OCT     C148719   1.751   6.481  23.209 -0.3153  0.0933  0.6295
24360OCT     C248720   2.078   6.370  22.863  0.1110 -0.0678  0.0033
24361OCT     C148721  19.579  16.388  10.685  0.2051  0.0113 -0.2900
24361OCT     C248722  19.976  16.586  10.675 -0.3427  0.1975 -0.0550
24362OCT     C148723   6.772   4.644   7.817 -0.1424 -0.2479 -0.1055
24362OCT     C248724   6.310   4.526   7.761 -0.2284  0.1781  0.4666
24363OCT     C148725  18.807  11.741   0.981  0.1574  0.0061 -0.4390
24363OCT     C248726  18.368  11.834   1.123 -0.5123 -0.1703 -0.0090
24364OCT     C148727  20.199   9.106   4.410  0.1919 -0.0133 -0.1225
24364OCT     C248728  20.580   9.455   4.397  0.3029 -0.0667 -0.1191
24365OCT     C148729  19.947  19.109  17.170  0.0838  0.0528  0.1584
24365OCT     C248730  20.052  18.776  17.391  0.0177 -0.1062  0.3451
24366OCT     C148731  16.132   2.952  21.063 -0.0207 -0.1780  0.3858
24366OCT     C248732  15.757   3.076  21.201 -0.2822  0.5305  0.1699
24367OCT     C148733  14.276  22.905  18.631 -0.2598 -0.0051  0.0256
24367OCT     C248734  14.009  22.750  18.273 -0.0076  0.3351  0.0493
24368OCT     C148735   7.478  14.893  22.132  0.2526 -0.0632  0.0054
24368OCT     C248736   7.271  15.300  22.007  0.1428  0.0129 -0.4546
24369OCT     C148737   1.401  13.104   5.363 -0.1559 -0.0606 -0.2295
24369OCT     C248738   1.829  13.247   5.447 -0.2262 -0.2859 -0.0040
24370OCT     C148739  18.194   0.005   4.418 -0.3002  0.4264 -0.1386
24370OCT     C248740  18.616  23.634   4.532  0.0067 -0.1391 -0.0370
24371OCT     C148741   2.615   2.569  20.503  0.3198  0.4368 -0.3707
24371OCT     C248742   2.728   2.897  20.798 -0.1128 -0.1771  0.1495
24372OCT     C148743   1.122  19.320   1.043  0.3974  0.1419 -0.0547
24372OCT     C248744   1.008  19.691   1.325  0.0659  0.3317  0.0228
24373OCT     C148745  23.215   3.999  18.046  0.3202  0.2671  0.0430
24373OCT     C248746  23.092   3.631  17.789  0.2261 -0.3211 -0.0898
24374OCT     C148747  20.696  13.485  16.791 -0.0955  0.1039 -0.1725
24374OCT     C248748  20.399  13.520  16.436 -0.1112 -0.1636 -0.4477
24375OCT     C148749   4.562   1.776  12.477  0.2543  0.0651 -0.2637
24375OCT     C248750   4.517   1.595  12.040 -0.1920  0.1795 -0.1887
24376OCT     C148751  15.247   2.895  17.901 -0.7717  0.3550 -0.2091
24376OCT     C248752  15.231   3.166  17.529  0.0663 -0.1756 -0.1329
24377OCT     C148753  22.618  19.218  15.423 -0.0573  0.0574 -0.1907
24377OCT     C248754  22.750  19.672  15.339  0.2725  0.3807  0.4499
24378OCT     C148755  17.463   4.016   6.405 -0.0234  0.1742 -0.1011
24378OCT     C248756  17.902   3.854   6.270  0.0781 -0.1417  0.2648
24379OCT     C148757   5.002   4.185  14.140  0.0461  0.1085  0.1939
24379OCT     C248758   4.762   3.960  13.832  0.1040 -0.2508  0.0269
24380OCT     C148759  13.739  15.247   2.107  0.0993 -0.1510 -0.2896
24380OCT     C248760  13.512  14.950   1.770 -0.2225 -0.2714 -0.2746
24381OCT     C148761  18.209   5.431  20.112 -0.2578 -0.4314  0.2683
24381OCT     C248762  18.232   5.435  19.607  0.4460 -0.3966 -0.0049
24382OCT     C148763  14.363   0.932   2.325 -0.0170  0.1420 -0.2175
24382OCT     C248764  14.714   0.860   2.024 -0.2891 -0.2095  0.1907
24383OCT     C148765  16.448   8.558   3.852 -0.0594  0.3701  0.1754
24383OCT     C248766  16.161   8.535   3.499  0.0917 -0.1043 -0.0132
24384OCT     C148767  10.153  17.971  13.996  0.5915  0.3579  0.0023
24384OCT     C248768   9.860  18.287  13.793 -0.1034  0.2375 -0.1661
24385OCT     C148769  23.156   6.513  20.853  0.2870 -0.1951  0.2048
24385OCT     C248770  23.278   6.103  20.908  0.1490 -0.0695  0.0199
24386OCT     C148771   1.422  20.922  10.125  0.1713 -0.1472 -0.0609
24386OCT     C248772   0.963  20.913  10.328 -0.3372 -0.1258  0.3080
24387OCT     C148773   6.244  22.298  22.650  0.2430  0.2613  0.0417
24387OCT     C248774   5.779  22.170  22.572  0.0102  0.0592 -0.3199
24388OCT     C148775   5.974   1.380  22.743 -0.2742 -0.0336  0.1308
24388OCT     C248776   6.073   1.576  22.309 -0.4064 -0.0063  0.3119
24389OCT     C148777  17.182  15.256  22.364  0.0337 -0.3650  0.3754
24389OCT     C248778  17.301  14.887  22.431 -0.0746  0.1843 -0.3845
24390OCT     C148779   9.189  22.941  13.468  0.3789 -0.2145 -0.3422
24390OCT     C248780   9.009  22.594  13.123 -0.0562 -0.0236  0.0672
24391OCT     C148781   0.354  10.322   3.264  0.0753 -0.0092  0.4586
24391OCT     C248782   0.145  10.544   3.627  0.1051 -0.2366  0.2819
24392OCT     C148783  15.921   9.021  21.256  0.0333 -0.1296  0.0460
24392OCT     C248784  16.267   9.288  21.057 -0.2609  0.0916  0.3337
24393OCT     C148785  22.073  23.551   3.582  0.1269 -0.2479  0.3251
24393OCT     C248786  22.135   0.188   3.302  0.1395  0.1352 -0.4032
24394OCT     C148787   1.810  10.433  19.969 -0.1770  0.1144  0.0526
24394OCT     C248788   1.497  10.107  19.908  0.4273 -0.0482  0.2089
24395OCT     C148789  20.716  20.383  13.020  0.0344  0.1403  0.1589
24395OCT     C248790  20.241  20.343  13.007 -0.2063 -0.1141  0.0911
24396OCT     C148791  23.726   9.638  12.265  0.0286  0.3364  0.2199
24396OCT     C248792  23.386   9.463  12.594 -0.0283  0.2392  0.0501
24397OCT     C148793   4.156   0.845   8.708 -0.2670 -0.2728 -0.0801
24397OCT     C248794   4.028   0.841   8.296  0.1965  0.1403 -0.0599
24398OCT     C148795  18.709  20.502   1.089  0.1475 -0.2503  0.3359
24398OCT     C248796  18.841  20.112   1.352  0.1649 -0.3793  0.1935
24399OCT     C148797  13.873  18.922   7.308 -0.2783  0.1433 -0.3585
24399OCT     C248798  13.663  18.631   7.064 -0.1008 -0.1067  0.0641
24400OCT     C148799  20.851   4.817  20.011  0.0644  0.2147 -0.1328
24400OCT     C248800  21.233   5.085  19.991  0.0828 -0.2430  0.1618
24401OCT     C148801   1.701  23.262   0.680 -0.1651 -0.5254 -0.0998
24401OCT     C248802   1.356  23.531   0.748  0.0412 -0.1080 -0.0413
24402OCT     C148803   7.458  18.842  11.881 -0.0633 -0.1399 -0.1599
24402OCT     C248804   7.068  18.783  11.572 -0.1808  0.0368 -0.1741
24403OCT     C148805   7.444  20.436  18.681  0.1589 -0.3296 -0.3865
24403OCT     C248806   7.779  20.589  18.983 -0.0459  0.1494 -0.2146
24404OCT     C148807  16.472  10.588  19.820 -0.2076 -0.1948 -0.2428
24404OCT     C248808  16.352  10.961  19.602  0.0831  0.1573  0.0106
24405OCT     C148809   3.760  14.257   1.521  0.2466  0.2221 -0.0186
24405OCT     C248810   4.047  13.902   1.581  0.2956  0.0440 -0.0105
24406OCT     C148811   3.623  20.874   7.328  0.3741  0.3807  0.0428
24406OCT     C248812   3.476  20.601   6.915 -0.1476  0.1098 -0.0645
24407OCT     C148813   2.154   4.753   1.884 -0.1031  0.0180  0.2494
24407OCT     C248814   2.439   5.020   1.622 -0.2909 -0.0543 -0.2405
24408OCT     C148815  19.237   2.592  13.171  0.2136 -0.0244  0.2335
24408OCT     C248816  19.334   3.048  13.226  0.2045  0.1608  0.1542
24409OCT     C148817  12.539  22.704  19.327 -0.0454 -0.0420  0.2353
24409OCT     C248818  12.153  22.484  19.112  0.1085  0.1179  0.2861
24410OCT     C148819   8.088  18.872   5.935 -0.1271 -0.1630 -0.1970
24410OCT     C248820   7.881  18.866   5.535 -0.0081 -0.4607 -0.1400
24411OCT     C148821  14.995  20.883   1.048 -0.1739 -0.1730  0.0967
24411OCT     C248822  14.652  20.884   1.363 -0.2596 -0.2781  0.2730
24412OCT     C148823   9.409  17.679  21.101 -0.3477  0.3315  0.3819
24412OCT     C248824   9.270  17.781  21.564 -0.2344  0.1732  0.1340
24413OCT     C148825   2.686  17.522   6.830  0.2717  0.1569 -0.1499
24413OCT     C248826   2.624  17.101   6.794 -0.5823  0.1985  0.0384
24414OCT     C148827  12.494   7.132   6.777  0.1145  0.2897  0.1054
24414OCT     C248828  12.143   7.205   7.060  0.6983  0.0662  0.1253
24415OCT     C148829  13.111  18.685  20.382  0.2729  0.1214 -0.0315
24415OCT     C248830  13.247  18.922  20.812 -0.1360  0.2377 -0.0047
24416OCT     C148831  14.093  11.350   2.819  0.3825 -0.1593 -0.2248
24416OCT     C248832  14.444  11.235   3.069  0.2578 -0.0017 -0.2242
24417OCT     C148833  20.651  16.627   7.361 -0.2346 -0.4682  0.2681
24417OCT     C248834  20.544  16.445   7.774 -0.2124 -0.0462  0.2990
24418OCT     C148835  16.017  17.846   5.162  0.1324  0.1114 -0.0804
24418OCT     C248836  16.246  17.611   4.827 -0.3290 -0.2492 -0.0149
24419OCT     C148837  19.429  21.275   7.505  0.0089  0.4272  0.0425
24419OCT     C248838  19.072  21.020   7.589  0.2247 -0.0225  0.1863
24420OCT     C148839  17.018   1.549  20.851 -0.0385  0.0298  0.3657
24420OCT     C248840  16.853   1.709  21.281 -0.1995  0.1759 -0.1435
24421OCT     C148841   6.909   9.762  11.594 -0.0103  0.1071  0.0302
24421OCT     C248842   6.891  10.237  11.647  0.0600  0.0205 -0.0175
24422OCT     C148843   8.039   1.173   2.779 -0.2731  0.0913 -0.0453
24422OCT     C248844   7.999   1.587   2.589 -0.1271 -0.1606 -0.1893
24423OCT     C148845  13.617  21.432  21.307 -0.2170 -0.2850  0.0805
24423OCT     C248846  13.877  21.834  21.446  0.4289  0.1244 -0.0682
24424OCT     C148847   0.557  15.169   5.673  0.1868  0.3933 -0.0111
24424OCT     C248848   0.211  14.812   5.561 -0.1398 -0.1872 -0.1896
24425OCT     C148849   6.524  20.875   1.095 -0.2511 -0.3875  0.1869
24425OCT     C248850   6.320  21.217   1.275 -0.1673 -0.0822 -0.1880
24426OCT     C148851   8.048  15.447  23.582 -0.0558 -0.0545 -0.1579
24426OCT     C248852   7.721  15.662   0.161  0.0031  0.1993 -0.0634
24427OCT     C148853  12.480  10.902  21.188 -0.1287 -0.0622 -0.0306
24427OCT     C248854  12.394  10.398  21.105 -0.0018  0.0037  0.1141
24428OCT     C148855  12.815   6.668   8.870  0.1117  0.1542  0.4127
24428OCT     C248856  12.764   6.842   8.449  0.2844 -0.0239 -0.1720
24429OCT     C148857  12.433  21.230   9.875 -0.2213  0.2291  0.2846
24429OCT     C248858  11.965  21.394  10.001 -0.0180 -0.0832 -0.1121
24430OCT     C148859  15.747  12.412  23.718  0.0600 -0.0264 -0.0084
24430OCT     C248860  15.391  12.658   0.034  0.2210 -0.2574  0.0051
24431OCT     C148861   9.551   6.366  13.925 -0.1299 -0.2831 -0.0702
24431OCT     C248862   9.228   6.289  14.248  0.1200  0.0037 -0.1188
24432OCT     C148863   8.152  11.659   2.817 -0.3859  0.1875  0.3763
24432OCT     C248864   8.589  11.631   2.801 -0.4291  0.0077  0.1596
24433OCT     C148865   1.271  12.677  23.573 -0.1976  0.2179  0.1596
24433OCT     C248866   0.784  12.638  23.469  0.2108 -0.0637  0.3161
24434OCT     C148867   9.055  19.260  15.109 -0.3633 -0.1533 -0.2542
24434OCT     C248868   8.733  19.010  15.280 -0.1119  0.2214  0.0756
24435OCT     C148869  10.601  15.957  15.069  0.0150  0.0025 -0.0060
24435OCT     C248870  10.453  16.374  15.261  0.0399  0.2909 -0.1657
24436OCT     C148871   0.220   0.078  22.560  0.0245 -0.1798  0.3768
24436OCT     C248872   0.094  23.541  22.180  0.1622  0.2437  0.1213
24437OCT     C148873   3.914  22.979  20.694 -0.3271  0.2173  0.2106
24437OCT     C248874   4.029  22.974  20.267 -0.6437 -0.3443  0.1792
24438OCT     C148875   4.136  16.265  10.691  0.3314 -0.2653  0.3018
24438OCT     C248876   4.241  16.202  11.149 -0.3107 -0.3257 -0.0694
24439OCT     C148877  17.494   6.307  15.420 -0.2156 -0.2161 -0.1034
24439OCT     C248878  17.727   5.930  15.480 -0.1618 -0.0469  0.0367
24440OCT     C148879  21.546   8.861   0.744 -0.2059  0.2988  0.6915
24440OCT     C248880  21.192   9.098   1.014 -0.0836 -0.1666  0.0622
24441OCT     C148881  11.364   1.219   6.306  0.1952  0.1692  0.0897
24441OCT     C248882  11.825   1.223   6.241 -0.0368 -0.1328  0.1161
24442OCT     C148883   6.213   0.942  11.189 -0.0674 -0.0875  0.1256
24442OCT     C248884   6.046   0.540  10.988  0.0804 -0.0406  0.2460
24443OCT     C148885   1.503  10.899   0.942 -0.2965 -0.0479  0.1386
24443OCT     C248886   1.411  11.350   0.794  0.0628  0.0498 -0.0574
24444OCT     C148887   8.817  10.402   3.176 -0.0704 -0.0531 -0.0892
24444OCT     C248888   8.920  10.855   3.351 -0.0679 -0.2472 -0.0008
24445OCT     C148889   7.645  23.443   8.044  0.1035  0.3250 -0.0182
24445OCT     C248890   7.391  23.299   7.669  0.1259  0.0394 -0.2271
24446OCT     C148891  22.624   1.368   4.280 -0.2945  0.1757 -0.1744
24446OCT     C248892  22.607   1.363   4.722 -0.3072 -0.0196 -0.0517
24447OCT     C148893  14.873  20.161   9.380  0.3605 -0.0414  0.3178
24447OCT     C248894  14.444  20.084   9.173  0.0534 -0.0831  0.4499
24448OCT     C148895  22.091   4.728   1.501  0.5098 -0.0207 -0.2867
24448OCT     C248896  22.040   4.953   1.907  0.1584  0.4926 -0.1997
24449OCT     C148897  15.440  12.568  11.656 -0.1669 -0.0427  0.2360
24449OCT     C248898  14.980  12.640  11.496 -0.4164 -0.0648 -0.1296
24450OCT     C148899  15.743  13.921  15.213 -0.0550  0.2503  0.0707
24450OCT     C248900  15.882  13.889  15.617  0.1186  0.1949 -0.0085
24451OCT     C148901  19.539  10.328  23.429 -0.5188  0.3021 -0.0870
24451OCT     C248902  19.370  10.364   0.103  0.1430  0.2463 -0.4684
24452OCT     C148903  21.728   4.661  15.442 -0.1767  0.2019  0.0027
24452OCT     C248904  21.802   4.848  14.986  0.1727  0.2239 -0.0271
24453OCT     C148905  22.180  20.874  17.006 -0.1646 -0.4763  0.2118
24453OCT     C248906  22.023  21.261  17.243  0.2454  0.2713  0.3050
24454OCT     C148907  12.358  18.598  10.571  0.0174 -0.1369 -0.1201
24454OCT     C248908  12.032  18.904  10.445  0.1342  0.0933 -0.0283
24455OCT     C148909  11.917   4.143   3.423 -0.0992  0.0497 -0.0431
24455OCT     C248910  11.466   3.973   3.578 -0.0672  0.0442 -0.1998
24456OCT     C148911   1.236   7.780   0.847  0.2091  0.0346 -0.1528
24456OCT     C248912   1.143   8.041   0.462  0.3595 -0.2993 -0.1404
24457OCT     C148913  17.302  22.539  14.672  0.2021 -0.2982  0.2168
24457OCT     C248914  17.466  22.395  15.071 -0.1101  0.2822 -0.4441
24458OCT     C148915   4.120   2.501   7.391  0.1954  0.0790 -0.2223
24458OCT     C248916   4.220   2.988   7.516  0.0453  0.4810 -0.0571
24459OCT     C148917  12.105   8.806  21.977 -0.0147  0.1018  0.0535
24459OCT     C248918  12.104   9.233  21.716 -0.0197  0.0542  0.2915
24460OCT     C148919   8.464   7.465   3.076  0.1798  0.1722  0.3020
24460OCT     C248920   8.546   7.048   3.328  0.0724 -0.4013  0.1773
24461OCT     C148921   4.676   3.998  10.401  0.4114 -0.3157  0.0590
24461OCT     C248922   4.658   4.034   9.937  0.2297  0.3590  0.1374
24462OCT     C148923  11.137   3.581  22.515  0.3225 -0.0930  0.3826
24462OCT     C248924  11.604   3.462  22.506  0.4225 -0.1421  0.5473
24463OCT     C148925   7.877  10.680   6.592  0.2038 -0.2602  0.0630
24463OCT     C248926   7.492  10.544   6.851 -0.0285  0.3134 -0.0494
24464OCT     C148927   4.027  14.057   5.091 -0.3351 -0.1190  0.0942
24464OCT     C248928   4.277  14.443   4.894  0.0079  0.1225  0.1637
24465OCT     C148929   0.345  22.008  14.748 -0.0528  0.0905 -0.0758
24465OCT     C248930   0.323  21.601  14.476 -0.0660  0.0451  0.2571
24466OCT     C148931  10.073  15.623  13.317 -0.0880 -0.2312  0.1930
24466OCT     C248932   9.796  15.522  12.978  0.1050 -0.2790 -0.2206
24467OCT     C148933   5.819   3.622  12.551  0.1349 -0.2178 -0.2345
24467OCT     C248934   5.552   4.031  12.558 -0.2118  0.1472  0.0590
24468OCT     C148935  12.831   4.324  14.599  0.2023  0.1459 -0.0329
24468OCT     C248936  12.739   4.458  14.220  0.0943  0.1125  0.2791
24469OCT     C148937   2.798  20.166   4.157 -0.1305 -0.1098  0.1712
24469OCT     C248938   2.739  20.221   4.640 -0.0230 -0.1715  0.1039
24470OCT     C148939   7.688  10.054   0.653 -0.0570  0.3187  0.1279
24470OCT     C248940   8.081   9.942   0.911  0.4164  0.1696 -0.2028
24471OCT     C148941   9.078  21.453   8.261 -0.1564  0.0004  0.1231
24471OCT     C248942   8.714  21.217   8.103  0.0052  0.1609 -0.3096
24472OCT     C148943  16.332   3.566  20.460 -0.0248 -0.0047 -0.2173
24472OCT     C248944  16.590   3.165  20.517 -0.1426 -0.0360  0.2975
24473OCT     C148945   1.481  10.923   5.678  0.3186  0.2674 -0.1746
24473OCT     C248946   1.313  10.595   5.399 -0.2704  0.0399  0.1117
24474OCT     C148947  20.935  14.335  22.911  0.0468 -0.0017  0.3052
24474OCT     C248948  21.398  14.434  22.710  0.0541 -0.1772 -0.1744
24475OCT     C148949  10.330   3.467  10.140  0.0636 -0.0607 -0.1262
24475OCT     C248950   9.874   3.461  10.060  0.0963 -0.1339 -0.1050
24476OCT     C148951  23.631  17.060  21.328 -0.0337 -0.1323 -0.2285
24476OCT     C248952  23.238  16.778  21.424 -0.0171  0.1121 -0.1450
24477OCT     C148953  18.545   5.470  18.040 -0.1829 -0.3368 -0.1086
24477OCT     C248954  18.801   5.456  17.662 -0.0399 -0.0273  0.3347
24478OCT     C148955  10.367   1.602  23.570 -0.4067  0.1175 -0.5992
24478OCT     C248956   9.995   1.499   0.086  0.2001  0.1552 -0.1538
24479OCT     C148957  17.325   0.811   8.939  0.0549 -0.2468 -0.2653
24479OCT     C248958  17.832   0.838   9.012 -0.0315 -0.2345  0.0343
24480OCT     C148959   9.690   2.643  22.336  0.0432 -0.0240 -0.1339
24480OCT     C248960   9.779   3.108  22.323  0.2778  0.1527 -0.2427
24481OCT     C148961  17.334  10.946  19.061  0.2246  0.3108  0.0458
24481OCT     C248962  17.610  11.172  18.731 -0.0205  0.2845  0.1540
24482OCT     C148963   1.691  11.847  12.183  0.1254  0.0418  0.2126
24482OCT     C248964   1.294  11.632  12.460  0.0699  0.0056 -0.3089
24483OCT     C148965   1.420   2.246   4.616 -0.0617 -0.2883 -0.4246
24483OCT     C248966   1.697   2.387   4.306  0.1401 -0.2070  0.2417
24484OCT     C148967   0.106   0.300   9.376  0.3363 -0.0363  0.0323
24484OCT     C248968  23.597  23.638   9.358 -0.0193 -0.2216  0.0702
24485OCT     C148969   4.781  12.966  17.587  0.2302  0.1729 -0.0794
24485OCT     C248970   4.782  12.499  17.424 -0.3799  0.1662  0.1007
24486OCT     C148971  12.524   2.891  14.684  0.3153 -0.0217  0.1930
24486OCT     C248972  12.445   3.384  14.567  0.3519  0.1675  0.1415
24487OCT     C148973   6.137  16.700  13.043  0.0720 -0.4162  0.2000
24487OCT     C248974   6.294  17.078  12.817  0.2191  0.1834 -0.0804
24488OCT     C148975   5.766  16.843   6.685 -0.2466  0.3841 -0.2447
24488OCT     C248976   5.644  16.881   7.159  0.0392  0.0875 -0.0710
24489OCT     C148977   8.919  19.021   3.995 -0.1418 -0.0654  0.0334
24489OCT     C248978   9.319  18.720   4.022 -0.0227  0.1379  0.1059
24490OCT     C148979  13.247  16.195  21.904  0.3542  0.1040 -0.0557
24490OCT     C248980  13.745  16.164  21.977 -0.1115 -0.1537 -0.1580
24491OCT     C148981   4.265  11.055   2.885 -0.2918 -0.1436 -0.0908
24491OCT     C248982   3.854  11.043   2.792  0.1574  0.1724 -0.0319
24492OCT     C148983   3.382   7.849  22.517  0.0021 -0.0175 -0.3156
24492OCT     C248984   3.539   7.400  22.571  0.2097  0.4269  0.1661
24493OCT     C148985  12.685  10.194   8.074  0.0133  0.1202  0.1307
24493OCT     C248986  12.843  10.270   8.496 -0.0515  0.0706  0.0417
24494OCT     C148987  22.303  19.915  17.295 -0.2044 -0.0025  0.1094
24494OCT     C248988  22.374  20.366  17.160 -0.1583  0.0534  0.1888
24495OCT     C148989  20.146  21.573  20.981  0.4704  0.1157 -0.0796
24495OCT     C248990  19.826  21.907  21.137  0.2168 -0.1581 -0.0247
24496OCT     C148991  14.222  22.568  11.634 -0.0609  0.0357  0.0918
24496OCT     C248992  14.158  22.503  12.108  0.0582 -0.1829 -0.1742
24497OCT     C148993  23.503   2.950  18.927  0.0545  0.1004  0.1432
24497OCT     C248994  23.081   3.072  18.677  0.2467  0.1499 -0.2847
24498OCT     C148995  13.493   0.436  12.078  0.2634 -0.2832  0.0014
24498OCT     C248996  13.455   0.177  12.442  0.0614 -0.4980 -0.3107
24499OCT     C148997   2.761   5.387  10.933 -0.0371  0.1092  0.0377
24499OCT     C248998   2.927   4.967  11.094 -0.0032  0.1017 -0.2420
24500OCT     C148999  21.347  15.660   0.937 -0.0442  0.2293 -0.1338
24500OCT     C249000  21.289  15.678   1.456  0.0957 -0.3605  0.3045
24501OCT     C149001   0.208  15.035   2.075  0.1322 -0.1776  0.2036
24501OCT     C249002   0.197  15.434   1.803  0.2335  0.0230  0.0895
24502OCT     C149003  14.349   0.684  23.313 -0.1751  0.1707 -0.1359
24502OCT     C249004  14.523   0.356  23.535  0.0128 -0.4634  0.0360
24503OCT     C149005  11.240  15.919   0.829 -0.1991  0.2137  0.1500
24503OCT     C249006  10.894  15.514   0.903 -0.3830  0.3367 -0.0627
24504OCT     C149007  19.998  18.729   3.840  0.0283 -0.0090  0.0034
24504OCT     C249008  20.094  18.530   4.220 -0.1187 -0.1355  0.4529
24505OCT     C149009   1.342  10.810  21.550 -0.0240 -0.2774 -0.0431
24505OCT     C249010   1.357  11.219  21.810  0.2163  0.2095 -0.3046
24506OCT     C149011  11.883   0.803   2.071 -0.2313 -0.1642 -0.2863
24506OCT     C249012  12.141   1.192   1.939  0.0175 -0.0733 -0.0617
24507OCT     C149013   8.761   2.142  23.365  0.1683 -0.4081  0.0398
24507OCT     C249014   8.509   2.114   0.057 -0.1207 -0.0649  0.1256
24508OCT     C149015   5.219   6.712  10.463  0.1022  0.2430 -0.0478
24508OCT     C249016   5.145   7.179  10.380 -0.3637  0.0119  0.0862
24509OCT     C149017  14.614   4.559  12.708 -0.0631 -0.1922 -0.0779
24509OCT     C249018  14.663   5.064  12.714  0.3087 -0.2589  0.0807
24510OCT     C149019  15.430   2.499   0.398 -0.5581 -0.0992  0.2153
24510OCT     C249020  15.213   2.812   0.663 -0.0833 -0.0157 -0.0344
24511OCT     C149021   3.774  22.360  22.277  0.0368 -0.1521  0.0484
24511OCT     C249022   3.919  22.344  22.763 -0.2053  0.0319 -0.0069
24512OCT     C149023  22.802   0.810  12.574 -0.4526  0.2981 -0.1862
24512OCT     C249024  23.007   0.728  12.998  0.0739 -0.1592  0.2373
24513OCT     C149025  23.281  15.382  22.400 -0.0689  0.2645 -0.0137
24513OCT     C249026  23.462  15.631  22.738 -0.1279  0.1224 -0.1072
24514OCT     C149027  17.790  23.428  20.862 -0.1246  0.1591  0.1424
24514OCT     C249028  17.600  22.996  20.747  0.3984  0.1022  0.2987
24515OCT     C149029   5.417  18.195   1.751 -0.3385 -0.0228 -0.1939
24515OCT     C249030   5.301  17.782   1.536 -0.0409  0.0428 -0.1129
24516OCT     C149031  18.699  14.449  16.915 -0.1249  0.0356 -0.0277
24516OCT     C249032  18.956  14.459  17.290  0.0725  0.0690 -0.1379
24517OCT     C149033  21.863  22.253   5.945  0.0472 -0.4619  0.0349
24517OCT     C249034  21.986  22.035   6.324  0.1175  0.3847 -0.1694
24518OCT     C149035  19.970  23.393  19.831  0.1015  0.0716 -0.0004
24518OCT     C249036  19.563  23.115  19.613 -0.0343 -0.1758 -0.1932
24519OCT     C149037  12.844  12.787   8.155  0.0288 -0.0028  0.4120
24519OCT     C249038  12.995  12.767   7.736 -0.0297 -0.1963  0.0279
24520OCT     C149039   5.711  17.116  11.725  0.0746  0.4245 -0.2116
24520OCT     C249040   5.774  16.888  11.334  0.0160 -0.0857 -0.3573
24521OCT     C149041  10.096   8.750  21.417 -0.2039  0.0612  0.2293
24521OCT     C249042  10.383   8.398  21.396 -0.5352  0.0544 -0.2044
24522OCT     C149043  10.531   2.371  13.698 -0.0821 -0.1980  0.1290
24522OCT     C249044  10.250   2.283  13.300 -0.2704  0.2391 -0.3586
24523OCT     C149045  19.170  16.092  12.266  0.1308  0.2200 -0.1384
24523OCT     C249046  19.286  15.717  11.980  0.1310 -0.2229  0.2040
24524OCT     C149047   8.377  10.098   8.848 -0.4253  0.1313 -0.0879
24524OCT     C249048   8.166   9.971   9.248 -0.0162  0.1292  0.1676
24525OCT     C149049   9.967  12.971  11.155 -0.0035  0.1407 -0.0739
24525OCT     C249050  10.017  12.695  10.815  0.2671  0.3535 -0.0654
24526OCT     C149051  15.202   4.652  20.613  0.2630 -0.4049 -0.0881
24526OCT     C249052  14.962   4.255  20.838 -0.0874  0.0859 -0.2401
24527OCT     C149053   0.030   7.832   4.829 -0.0166 -0.1003  0.1142
24527OCT     C249054   0.073   7.727   4.378  0.1612 -0.2943 -0.0080
24528OCT     C149055  20.027  11.552  21.713  0.1434 -0.0428  0.1374
24528OCT     C249056  19.916  11.877  22.027 -0.4450  0.0261 -0.2649
24529OCT     C149057   7.087  11.731   0.135  0.0697  0.3298 -0.4224
24529OCT     C249058   7.406  11.900   0.364 -0.0539  0.1569 -0.2499
24530OCT     C149059   9.825  18.058  12.017 -0.0193 -0.0380 -0.2517
24530OCT     C249060  10.139  18.209  11.659 -0.0989 -0.0934 -0.0776
24531OCT     C149061   9.396  13.373   2.253  0.0642 -0.0568 -0.2570
24531OCT     C249062   9.616  13.264   1.851 -0.0692 -0.3829 -0.0059
24532OCT     C149063  13.846  13.333  11.885  0.0067 -0.3180  0.1807
24532OCT     C249064  14.000  13.746  12.117 -0.0015 -0.3368  0.0598
24533OCT     C149065   6.678  22.471  10.846 -0.0210  0.1088  0.2884
24533OCT     C249066   6.419  22.497  10.515 -0.2692  0.0044 -0.2487
24534OCT     C149067  10.548   7.379   9.378 -0.2315 -0.0753 -0.2452
24534OCT     C249068  10.157   7.531   9.455  0.0251  0.0295  0.0189
24535OCT     C149069   6.596  17.381   3.313  0.3017  0.0081 -0.2028
24535OCT     C249070   6.547  16.960   3.462  0.3429  0.1736 -0.2531
24536OCT     C149071   3.425  20.889  14.520 -0.1102  0.1152 -0.0396
24536OCT     C249072   3.058  20.612  14.589  0.1061 -0.1385 -0.0854
24537OCT     C149073  10.891  20.342  21.186 -0.0418  0.1233 -0.1901
24537OCT     C249074  10.969  20.706  20.919  0.2239  0.1728  0.0845
24538OCT     C149075   5.938  21.945   9.875 -0.0351  0.1300 -0.1128
24538OCT     C249076   6.081  21.624  10.116 -0.0892  0.1474 -0.2111
24539OCT     C149077  14.321  15.363  13.349 -0.0415 -0.2255  0.0706
24539OCT     C249078  13.837  15.515  13.466  0.2000  0.0494  0.0910
24540OCT     C149079   2.513   8.487  22.835  0.2014  0.0182 -0.0033
24540OCT     C249080   2.822   8.337  23.152  0.2181 -0.1249 -0.0284
24541OCT     C149081  10.262   8.447  15.272  0.4009  0.0637  0.2881
24541OCT     C249082  10.070   8.132  15.498 -0.0150 -0.1556  0.0069
24542OCT     C149083  16.539   9.591  19.738 -0.0547 -0.0650  0.0147
24542OCT     C249084  16.648   9.251  20.082 -0.6694 -0.4559 -0.3494
24543OCT     C149085  16.810  13.407  16.425  0.1681  0.4034 -0.2323
24543OCT     C249086  16.577  13.381  16.788 -0.2145 -0.0957 -0.0750
24544OCT     C149087  11.615  22.316  12.122  0.0061  0.0024 -0.1323
24544OCT     C249088  11.762  22.769  12.058  0.2352  0.0089  0.1215
24545OCT     C149089  19.691   3.181  20.891 -0.0245  0.1459 -0.3203
24545OCT     C249090  19.769   3.047  21.316  0.0153  0.0693  0.0930
24546OCT     C149091   7.756  21.998  16.013 -0.0701 -0.0055 -0.2482
24546OCT     C249092   7.858  21.939  16.508 -0.3336 -0.3799  0.1517
24547OCT     C149093   2.736   3.635   5.205 -0.2076  0.2996 -0.1213
24547OCT     C249094   2.572   3.438   5.629 -0.2425 -0.1064 -0.2800
24548OCT     C149095  18.746  13.673  18.137  0.3014 -0.1949  0.0636
24548OCT     C249096  18.989  14.014  18.263 -0.0214 -0.4457 -0.1113
24549OCT     C149097  15.617   9.918   0.710 -0.1354  0.1995 -0.3268
24549OCT     C249098  15.561  10.037   1.195  0.0061 -0.4205  0.1285
24550OCT     C149099   1.733   4.961  21.778  0.0335  0.0200 -0.2162
24550OCT     C249100   1.939   5.131  21.431 -0.2396  0.3263  0.2072
24551OCT     C149101  23.602  19.653  20.825  0.1959 -0.2346 -0.3645
24551OCT     C249102  23.507  19.207  20.949  0.1814  0.1263 -0.2918
24552OCT     C149103  16.538   0.348  16.916 -0.0639 -0.1920 -0.2244
24552OCT     C249104  16.825  23.700  17.073  0.0838  0.0268 -0.0345
24553OCT     C149105   1.044  11.112  10.084  0.0696 -0.0270 -0.1511
24553OCT     C249106   0.837  11.019   9.692  0.0111  0.1545  0.1493
24554OCT     C149107  22.672   6.330   1.837  0.0713 -0.2687 -0.0592
24554OCT     C249108  22.903   6.089   2.178  0.2742  0.2105 -0.1598
24555OCT     C149109  21.488  21.485  17.617  0.1959 -0.1722  0.0410
24555OCT     C249110  21.240  21.526  17.977  0.0645  0.0707  0.0667
24556OCT     C149111   3.353   3.225  14.972 -0.1004  0.0391 -0.2414
24556OCT     C249112   3.729   3.049  14.744 -0.1998  0.2155  0.0803
24557OCT     C149113  19.812  20.886   9.873  0.0017  0.2623  0.2208
24557OCT     C249114  19.770  21.012   9.393  0.0449 -0.1196 -0.2878
24558OCT     C149115  21.798  13.291  18.342 -0.0054  0.2050 -0.2679
24558OCT     C249116  21.499  13.519  18.094  0.0888 -0.0677 -0.0384
24559OCT     C149117   4.142  10.030   5.124 -0.1642 -0.2220 -0.2948
24559OCT     C249118   4.249  10.454   4.936  0.0200 -0.3672 -0.0670
24560OCT     C149119  21.215   8.653   2.888 -0.2024  0.0157  0.2614
24560OCT     C249120  21.066   9.108   3.013 -0.3121 -0.0440 -0.0978
24561OCT     C149121  11.880   5.607   4.086  0.2257 -0.0274 -0.2349
24561OCT     C249122  11.656   5.775   3.747  0.0547 -0.2480  0.3922
24562OCT     C149123   1.809  19.813   6.103  0.1890 -0.0080  0.0345
24562OCT     C249124   1.430  19.888   5.829 -0.1739  0.1217 -0.3113
24563OCT     C149125   0.479   2.756   9.742  0.0194 -0.1016  0.0069
24563OCT     C249126   0.270   2.336   9.587  0.0111  0.1305 -0.0903
24564OCT     C149127  20.118   1.983   5.126 -0.2394  0.3970 -0.0073
24564OCT     C249128  20.087   2.385   4.903 -0.1758  0.1367  0.1853
24565OCT     C149129   0.939  15.385   5.442 -0.2548  0.0601 -0.2102
24565OCT     C249130   1.286  15.738   5.323  0.2624 -0.1082  0.1184
24566OCT     C149131  17.094  22.881   5.872 -0.1889 -0.2789 -0.0529
24566OCT     C249132  16.659  22.921   6.073 -0.3533 -0.2365  0.0704
24567OCT     C149133   5.955  15.240  20.164  0.0796  0.0524 -0.1063
24567OCT     C249134   6.185  15.438  19.838  0.0297  0.3597  0.6502
24568OCT     C149135  14.650   7.562  13.297 -0.1439 -0.3356 -0.1323
24568OCT     C249136  14.490   7.671  12.823 -0.0192 -0.0960 -0.2002
24569OCT     C149137   6.848   9.244  16.657 -0.0597 -0.1675  0.3323
24569OCT     C249138   6.922   8.846  16.873  0.1390 -0.2864 -0.1314
24570OCT     C149139   7.885   0.410  10.952 -0.1830 -0.0563  0.4205
24570OCT     C249140   7.781   0.425  10.467  0.1950  0.0686 -0.1086
24571OCT     C149141   8.024  18.340  21.618 -0.0686  0.1907  0.0984
24571OCT     C249142   7.711  18.111  21.454  0.4233  0.1853  0.1994
24572OCT     C149143  20.732  12.401   4.599 -0.3190  0.5022 -0.1647
24572OCT     C249144  20.508  12.748   4.421 -0.1469 -0.0979  0.1061
24573OCT     C149145  17.445   9.203   6.297 -0.0657 -0.2128  0.3087
24573OCT     C249146  17.037   9.014   6.093  0.0233 -0.1077 -0.4410
24574OCT     C149147  13.839   5.018  12.831 -0.3947  0.1578 -0.0895
24574OCT     C249148  14.192   4.802  12.535  0.0174 -0.3224 -0.1651
24575OCT     C149149  15.515   6.683  15.502  0.1370  0.1995 -0.0733
24575OCT     C249150  15.954   6.460  15.497  0.2793  0.2312 -0.2043
24576OCT     C149151  15.801  16.578   0.389 -0.0355  0.1011 -0.3594
24576OCT     C249152  15.347  16.672   0.326  0.1228 -0.6159 -0.0791
24577OCT     C149153   1.834   4.609   0.840 -0.1635  0.0822 -0.0244
24577OCT     C249154   1.451   4.763   1.087 -0.3353 -0.1694  0.1595
24578OCT     C149155   3.412   4.892   4.909 -0.3611  0.4037 -0.0220
24578OCT     C249156   3.707   4.657   5.181  0.0290  0.0948 -0.2536
24579OCT     C149157   3.569  17.310   6.524 -0.0478  0.0415 -0.3159
24579OCT     C249158   3.563  17.804   6.380 -0.0576  0.2666  0.3589
24580OCT     C149159  20.285  10.182   6.296 -0.0322 -0.1144  0.0627
24580OCT     C249160  20.101  10.455   6.643 -0.0050 -0.5244  0.0434
24581OCT     C149161  18.749   7.645  18.748 -0.2696  0.1436  0.0395
24581OCT     C249162  18.577   8.105  18.817 -0.1552 -0.4560  0.1184
24582OCT     C149163  20.286   4.734   4.368  0.0728 -0.0686  0.1590
24582OCT     C249164  19.959   4.771   4.737  0.2612 -0.1272 -0.3126
24583OCT     C149165  21.261  22.481   9.287  0.1181  0.2320  0.0743
24583OCT     C249166  21.378  22.946   9.373  0.1096 -0.3382  0.0863
24584OCT     C149167  14.002   7.329   3.361 -0.0075  0.1737  0.3410
24584OCT     C249168  13.956   7.490   3.787  0.4131  0.4865 -0.1026
24585OCT     C149169   8.997  21.961   3.900  0.2367  0.1694  0.1018
24585OCT     C249170   8.603  21.904   3.572  0.1010 -0.2118 -0.1489
24586OCT     C149171  15.550  13.870  11.534 -0.1817 -0.2689 -0.2256
24586OCT     C249172  15.808  13.555  11.800 -0.1031 -0.0600 -0.0577
24587OCT     C149173   8.835  17.575  22.771  0.0172  0.0923  0.4287
24587OCT     C249174   9.127  17.491  23.106  0.4059  0.2498  0.3345
24588OCT     C149175   1.037  19.322  14.516  0.1918 -0.1859 -0.2390
24588OCT     C249176   1.232  19.437  14.926 -0.1127 -0.1958  0.5887
24589OCT     C149177  10.745   5.425  14.253 -0.4508  0.0677  0.0208
24589OCT     C249178  11.202   5.351  14.454  0.0191  0.0106  0.0850
24590OCT     C149179   7.041  19.082   7.139 -0.0850  0.0702 -0.1794
24590OCT     C249180   6.659  19.046   7.403  0.0766  0.4502  0.1310
24591OCT     C149181  20.877   1.209   2.424 -0.0709 -0.0700  0.0618
24591OCT     C249182  21.019   0.840   2.696 -0.1100  0.2425  0.0048
24592OCT     C149183   3.679  22.506  13.395  0.0146 -0.2207 -0.1572
24592OCT     C249184   3.846  22.517  12.956  0.2435 -0.0992 -0.3090
24593OCT     C149185   7.331  16.311   2.071 -0.1035  0.1495 -0.0618
24593OCT     C249186   7.340  16.273   2.552 -0.3573  0.0137 -0.0635
24594OCT     C149187   4.393  22.759   2.237 -0.1465 -0.2337  0.1005
24594OCT     C249188   4.494  22.299   2.331  0.1434 -0.0668 -0.0110
24595OCT     C149189   0.450  21.954  12.952 -0.1982 -0.1905  0.0217
24595OCT     C249190   0.530  21.525  12.991  0.1998  0.3326 -0.1858
24596OCT     C149191  21.203  17.871  22.517  0.1391 -0.4428 -0.2443
24596OCT     C249192  21.445  18.046  22.142 -0.0834  0.2326 -0.2336
24597OCT     C149193  10.635   8.790  13.279  0.1615  0.3795 -0.0308
24597OCT     C249194  10.595   9.112  13.628 -0.0993 -0.2168 -0.3150
24598OCT     C149195  13.564  18.346   0.630  0.1378 -0.1627  0.0966
24598OCT     C249196  13.461  17.979   0.350 -0.2123 -0.1402 -0.1547
24599OCT     C149197  19.249  19.747   0.623 -0.0129  0.0620 -0.0131
24599OCT     C249198  19.060  19.426   0.326 -0.1691  0.1433  0.1032
24600OCT     C149199   4.810   3.776  21.914 -0.1804 -0.0658  0.3669
24600OCT     C249200   4.660   3.888  21.495  0.2089 -0.0133  0.0371
24601OCT     C149201  18.541  21.752   9.774  0.1845  0.1679 -0.1118
24601OCT     C249202  18.839  21.675  10.135 -0.0995 -0.2097 -0.0782
24602OCT     C149203  19.406  13.074  12.585 -0.1883 -0.2273  0.2497
24602OCT     C249204  19.181  12.712  12.316 -0.2384 -0.1154 -0.0098
24603OCT     C149205  15.995   2.418   6.050  0.0659  0.0119 -0.2032
24603OCT     C249206  16.235   2.172   5.698 -0.2749  0.4820  0.3003
24604OCT     C149207   7.103  15.084  13.021 -0.2075  0.4032 -0.3197
24604OCT     C249208   6.849  14.791  12.842 -0.1115  0.1137  0.0438
24605OCT     C149209   4.748  18.579  13.929  0.0078  0.1896 -0.2358
24605OCT     C249210   4.378  18.698  14.203  0.2337  0.0602 -0.0820
24606OCT     C149211   3.257  10.596   1.668 -0.0838 -0.2882 -0.2051
24606OCT     C249212   3.236  10.107   1.710  0.2115  0.0001  0.2830
24607OCT     C149213  22.046   6.071  23.680 -0.4640 -0.1587 -0.3152
24607OCT     C249214  22.268   5.617  23.668  0.3277  0.0134 -0.1861
24608OCT     C149215   2.210   9.903  21.175  0.0921 -0.1732  0.0040
24608OCT     C249216   2.268  10.272  20.886 -0.0737 -0.1399  0.1078
24609OCT     C149217   4.994   9.445   7.765 -0.4231 -0.1817 -0.2033
24609OCT     C249218   4.648   9.412   7.414 -0.1121  0.2577 -0.0695
24610OCT     C149219   0.162   7.325  12.766 -0.0342 -0.3352  0.5116
24610OCT     C249220  23.430   7.262  12.674 -0.0081  0.0454  0.2364
24611OCT     C149221  13.495  22.098  18.070  0.2432  0.3077 -0.0269
24611OCT     C249222  13.573  22.521  18.280  0.3450 -0.0640 -0.1238
24612OCT     C149223   5.081  15.962  20.974 -0.0031 -0.0926  0.1826
24612OCT     C249224   4.741  15.583  21.055 -0.1188  0.1273 -0.1041
24613OCT     C149225   0.813  15.084  14.045  0.1994 -0.1417 -0.2156
24613OCT     C249226   0.954  15.174  13.632  0.0413  0.3000 -0.2193
24614OCT     C149227  20.444   7.017   2.566 -0.0067  0.3066 -0.2558
24614OCT     C249228  20.361   7.101   2.077 -0.2179 -0.0538  0.0799
24615OCT     C149229  20.943   7.215   5.231 -0.0495 -0.0112  0.2067
24615OCT     C249230  21.078   6.803   5.348 -0.2018  0.1438  0.1057
24616OCT     C149231   9.135  19.513  19.341 -0.0539  0.3332  0.0578
24616OCT     C249232   9.569  19.617  19.480 -0.4520  0.0840 -0.2840
24617OCT     C149233  19.912  15.158   9.224  0.1032  0.3024  0.2234
24617OCT     C249234  20.189  15.087   9.592  0.1630 -0.2623 -0.0481
24618OCT     C149235  19.568  11.727  10.012 -0.2931 -0.5295 -0.1372
24618OCT     C249236  19.338  11.322  10.046 -0.0942  0.2475 -0.0118
24619OCT     C149237  19.501   0.889  19.255 -0.0819 -0.0605 -0.2782
24619OCT     C249238  19.833   0.672  19.558 -0.0685  0.1853 -0.0570
24620OCT     C149239  18.734  17.479  10.063 -0.0288 -0.4046  0.0498
24620OCT     C249240  18.410  17.190  10.205  0.1913 -0.1082 -0.0694
24621OCT     C149241   4.215   4.678  22.639 -0.3764 -0.3147  0.3499
24621OCT     C249242   4.032   4.365  22.333  0.2345 -0.1252 -0.1670
24622OCT     C149243  21.100  12.240  10.639  0.1319  0.1718 -0.0580
24622OCT     C249244  20.727  12.020  10.686 -0.2241  0.3031  0.0767
24623OCT     C149245  18.442   7.807  11.334  0.2542  0.0518  0.1865
24623OCT     C249246  18.387   7.393  11.537 -0.0048 -0.4862 -0.3524
24624OCT     C149247  15.944  22.315  18.251  0.0316  0.3783  0.0292
24624OCT     C249248  15.707  22.445  18.678  0.0854  0.0330 -0.0057
24625OCT     C149249   7.374   2.194   6.371  0.3294 -0.2612 -0.0104
24625OCT     C249250   7.138   2.134   6.766 -0.1225 -0.1059  0.1216
24626OCT     C149251   8.130  22.910  17.893 -0.1682  0.0648  0.1991
24626OCT     C249252   8.110  22.759  18.382  0.0465 -0.0611 -0.2971
24627OCT     C149253  18.943  17.156  17.882 -0.1953 -0.2278  0.0657
24627OCT     C249254  19.095  17.520  18.086  0.1807  0.0053 -0.2705
24628OCT     C149255   0.679  22.358  20.094 -0.0993 -0.2460  0.2666
24628OCT     C249256   0.463  22.807  20.120  0.1942 -0.0419  0.1624
24629OCT     C149257  12.066  18.873  23.253  0.4072 -0.0703 -0.3734
24629OCT     C249258  11.811  18.651  22.880 -0.1883  0.0420  0.5216
24630OCT     C149259   6.226  20.023   8.962  0.0403 -0.1465  0.0083
24630OCT     C249260   6.064  19.673   9.269  0.0799 -0.1716 -0.1543
24631OCT     C149261   2.914  10.686   8.647 -0.0047 -0.2661  0.0874
24631OCT     C249262   2.943  10.262   8.424  0.1842  0.1294  0.0322
24632OCT     C149263  20.818   3.539  13.024  0.1766  0.0017 -0.1525
24632OCT     C249264  20.467   3.236  12.832 -0.2149 -0.3758  0.5321
24633OCT     C149265  21.242   6.945  21.959 -0.0439 -0.2612  0.1436
24633OCT     C249266  21.082   6.517  22.098 -0.2327  0.0286 -0.0086
24634OCT     C149267  22.613   1.415  13.514 -0.2313  0.0918  0.1002
24634OCT     C249268  22.976   1.488  13.227  0.4350 -0.1786 -0.0624
24635OCT     C149269   6.009   5.288  15.880  0.1952 -0.0319  0.0238
24635OCT     C249270   6.100   4.968  16.204 -0.1210  0.0249  0.2420
24636OCT     C149271  22.246  23.674  16.638  0.0874  0.0428 -0.0316
24636OCT     C249272  22.255   0.293  16.985  0.2461 -0.2036  0.4168
24637OCT     C149273  22.308   4.194   5.247 -0.0001  0.0916 -0.1151
24637OCT     C249274  22.576   4.004   5.555  0.3481 -0.0910  0.0409
24638OCT     C149275  16.654   2.968  22.381  0.2731  0.0826 -0.4400
24638OCT     C249276  16.839   2.830  22.769  0.0023 -0.0605 -0.0432
24639OCT     C149277  21.898  19.909   4.792  0.3569  0.0207  0.1962
24639OCT     C249278  21.681  19.791   5.179  0.2217  0.3621  0.1974
24640OCT     C149279   4.104   9.986  13.618 -0.2324  0.1432 -0.0601
24640OCT     C249280   4.064  10.416  13.725  0.3726 -0.5008  0.2401
24641OCT     C149281   6.576   5.249  18.553  0.2030 -0.2486  0.3627
24641OCT     C249282   6.856   5.015  18.812  0.0916 -0.0276  0.0872
24642OCT     C149283  10.338  14.406   0.095 -0.2746 -0.0402  0.1419
24642OCT     C249284  10.714  14.244  23.589 -0.3121  0.0694 -0.2316
24643OCT     C149285  13.022   1.590  11.141  0.1189  0.3624  0.0587
24643OCT     C249286  13.163   1.237  11.439 -0.0679 -0.1493 -0.1235
24644OCT     C149287  23.424  21.091   7.310  0.0034 -0.0732  0.0091
24644OCT     C249288  23.282  20.796   7.595 -0.5881 -0.2748 -0.4372
24645OCT     C149289  12.281  21.349   8.604  0.0036  0.0573  0.1409
24645OCT     C249290  12.277  21.583   8.191 -0.0231 -0.0088  0.2662
24646OCT     C149291  20.386   5.738   2.035  0.2685 -0.2037 -0.1997
24646OCT     C249292  20.152   5.874   2.439  0.0687  0.3245  0.0910
24647OCT     C149293   2.978   7.227  14.464  0.2532  0.5017 -0.1668
24647OCT     C249294   2.778   7.075  14.924  0.0139  0.2160 -0.0715
24648OCT     C149295  18.463  21.835   0.086  0.1104  0.1114  0.1356
24648OCT     C249296  18.355  21.869   0.570  0.2407 -0.0695 -0.2838
24649OCT     C149297   0.865   1.336   9.321  0.1117 -0.0038  0.0210
24649OCT     C249298   1.322   1.440   9.527 -0.0810  0.3843  0.2370
24650OCT     C149299   3.799  16.389   5.545  0.3123  0.2326  0.0389
24650OCT     C249300   3.872  16.839   5.729 -0.1654 -0.1823 -0.2379
24651OCT     C149301  15.364  10.594   1.239 -0.0900  0.0972  0.5190
24651OCT     C249302  15.000  10.476   0.977  0.3616 -0.3229  0.1872
24652OCT     C149303  12.845   7.499   2.801 -0.2123 -0.0396 -0.0220
24652OCT     C249304  12.624   7.186   2.533  0.3181 -0.1172 -0.0393
24653OCT     C149305  12.659  16.517   1.328 -0.2649 -0.0997 -0.3794
24653OCT     C249306  12.147  16.438   1.274  0.5928 -0.0845 -0.1025
24654OCT     C149307   8.965  14.526   9.760 -0.0407 -0.1528  0.0987
24654OCT     C249308   8.793  14.430   9.357 -0.1868 -0.2887  0.1916
24655OCT     C149309  13.138   5.745   1.935  0.0651  0.0736 -0.0015
24655OCT     C249310  13.576   5.779   1.758  0.0532 -0.0150  0.2211
24656OCT     C149311  16.176   3.760   5.796 -0.2536 -0.4762 -0.2391
24656OCT     C249312  16.592   4.011   5.801 -0.3702 -0.0707 -0.2243
24657OCT     C149313   3.679  10.798   5.467  0.0025 -0.1585  0.2629
24657OCT     C249314   3.949  10.815   5.055  0.1200  0.4712 -0.1241
24658OCT     C149315   4.119   9.027  18.199  0.0218 -0.0652 -0.0622
24658OCT     C249316   4.115   8.623  17.910  0.1696  0.0072 -0.0638
24659OCT     C149317   3.260  20.533  19.634  0.2942  0.2521 -0.0829
24659OCT     C249318   3.270  20.202  19.237  0.0615  0.0538  0.1348
24660OCT     C149319  10.481   7.478   4.900 -0.2683  0.1091 -0.1674
24660OCT     C249320  10.591   7.675   5.340  0.0439  0.0018  0.2338
24661OCT     C149321   0.423   5.481   3.403  0.3457  0.2283  0.3333
24661OCT     C249322   0.013   5.686   3.139  0.1033 -0.1763  0.2368
24662OCT     C149323  16.553  21.952   5.499 -0.0006 -0.0673 -0.0299
24662OCT     C249324  16.744  21.584   5.747 -0.2259  0.1126  0.0258
24663OCT     C149325  10.823  16.400   1.659  0.0665  0.1978  0.2503
24663OCT     C249326  10.903  15.958   1.743 -0.1389  0.0729 -0.2329
24664OCT     C149327  11.247   9.236   5.631 -0.1205  0.2948 -0.2020
24664OCT     C249328  10.783   9.185   5.664  0.1786  0.3361 -0.0268
24665OCT     C149329  16.065  21.099   8.943 -0.0843  0.2789  0.1275
24665OCT     C249330  15.878  20.706   8.861 -0.2318 -0.2843 -0.1335
24666OCT     C149331   4.756   3.023   5.104  0.4001  0.2064 -0.4699
24666OCT     C249332   4.586   2.682   4.856 -0.2895 -0.1795  0.2248
24667OCT     C149333  19.036   6.778  20.643 -0.0140  0.1214  0.2661
24667OCT     C249334  18.668   6.654  20.381 -0.0324  0.1426 -0.3403
24668OCT     C149335   7.412   2.720  12.854  0.0073 -0.3302  0.0098
24668OCT     C249336   7.540   2.940  13.238 -0.1658  0.0982  0.0159
24669OCT     C149337  21.406  10.465   3.812 -0.0101  0.0730  0.3263
24669OCT     C249338  21.089  10.555   3.440 -0.0563 -0.3963 -0.2458
24670OCT     C149339   1.745  23.445   8.316  0.0585  0.0278  0.1942
24670OCT     C249340   1.357  23.168   8.324 -0.2089  0.0054  0.0066
24671OCT     C149341   5.768  11.249   7.932 -0.1881 -0.0708 -0.2158
24671OCT     C249342   5.409  11.463   8.089 -0.0733  0.3067 -0.2784
24672OCT     C149343  11.900  11.927   7.671  0.2143  0.2328 -0.1775
24672OCT     C249344  12.367  11.955   7.694  0.0448 -0.3504 -0.0058
24673OCT     C149345  10.273   6.390  10.200  0.2016 -0.4328  0.1466
24673OCT     C249346  10.119   6.304   9.764 -0.0584  0.0261  0.0107
24674OCT     C149347  15.368   5.290  19.604 -0.0394 -0.3178 -0.4035
24674OCT     C249348  15.601   5.710  19.646  0.4262  0.2912 -0.2372
24675OCT     C149349   2.035  20.504   8.528  0.0603  0.1743 -0.2373
24675OCT     C249350   2.116  20.864   8.306  0.1479 -0.1145 -0.4091
24676OCT     C149351  21.941  20.784   3.869  0.1152  0.4662 -0.1894
24676OCT     C249352  22.111  21.148   3.678 -0.0964  0.0417  0.1440
24677OCT     C149353  18.214   1.715  16.990 -0.1433  0.1277 -0.2400
24677OCT     C249354  17.931   1.536  17.348  0.3296  0.3503  0.1274
24678OCT     C149355   9.202   8.883  13.599 -0.0702 -0.2523 -0.0045
24678OCT     C249356   8.821   8.764  13.396 -0.0709  0.3375  0.3224
24679OCT     C149357  19.650  19.852  21.152 -0.0048  0.0696 -0.2340
24679OCT     C249358  19.913  20.175  20.969 -0.1263  0.0013  0.1331
24680OCT     C149359  22.391   0.700  20.568  0.1079  0.0570 -0.0824
24680OCT     C249360  22.578   0.981  20.271  0.1246 -0.2138  0.2515
24681OCT     C149361   3.980   7.140  18.481  0.1732  0.1296  0.0245
24681OCT     C249362   3.666   6.882  18.680 -0.1781  0.1194  0.0377
24682OCT     C149363  11.583  22.485  14.254 -0.1466 -0.2943  0.1232
24682OCT     C249364  11.186  22.619  14.034 -0.2657  0.1654  0.0127
24683OCT     C149365   7.204   7.161   4.927 -0.3030  0.2721  0.0599
24683OCT     C249366   7.445   7.496   5.197  0.0906 -0.0387 -0.1976
24684OCT     C149367  19.413  13.442   2.224  0.0214 -0.0821  0.2558
24684OCT     C249368  19.466  13.855   2.364  0.0972  0.3261  0.2122
24685OCT     C149369  20.837  13.676   4.472 -0.0510  0.0925  0.3269
24685OCT     C249370  20.651  13.221   4.518  0.1208  0.1164  0.1999
24686OCT     C149371  17.970  23.605  15.135 -0.3959  0.2246  0.0469
24686OCT     C249372  17.625  23.546  14.799  0.0316  0.1058  0.3119
24687OCT     C149373  17.836  10.282   3.752 -0.0797  0.2204  0.2914
24687OCT     C249374  17.492  10.046   3.867 -0.0635 -0.1194 -0.1733
24688OCT     C149375   9.969  15.870   0.933  0.2525  0.3380 -0.1700
24688OCT     C249376  10.024  15.363   1.042 -0.2820  0.0283 -0.1274
24689OCT     C149377  10.161   7.292  11.044 -0.3120  0.0061 -0.1086
24689OCT     C249378  10.518   7.323  10.854 -0.1627 -0.1966 -0.0206
24690OCT     C149379  13.148  13.587  21.759 -0.1325  0.1749  0.1919
24690OCT     C249380  13.580  13.466  21.714  0.1049 -0.1049  0.0444
24691OCT     C149381   9.250  11.861   5.022 -0.1196 -0.2943 -0.1264
24691OCT     C249382   8.996  11.945   5.427  0.1090  0.2352  0.1344
24692OCT     C149383  10.168  14.102  18.910 -0.0656  0.2139  0.0500
24692OCT     C249384  10.555  14.140  19.224  0.0908 -0.2148  0.2845
24693OCT     C149385  11.558  18.435  10.754  0.0518 -0.1528 -0.1890
24693OCT     C249386  11.266  18.217  11.031  0.1878 -0.2228  0.0753
24694OCT     C149387  17.818  22.486  10.871  0.0204  0.0759 -0.1672
24694OCT     C249388  17.978  22.620  11.285 -0.0703 -0.2992  0.0521
24695OCT     C149389  14.590   4.927  13.360  0.3909  0.1341  0.3489
24695OCT     C249390  14.269   4.874  13.052  0.0100  0.3480 -0.2826
24696OCT     C149391  16.432   9.896   2.471 -0.2055 -0.0319 -0.3133
24696OCT     C249392  16.913   9.834   2.376 -0.1328  0.1119  0.0674
24697OCT     C149393  12.985  12.102  12.822 -0.4376  0.2701 -0.1968
24697OCT     C249394  13.090  11.624  12.798  0.1405 -0.0544  0.1921
24698OCT     C149395   9.418  16.428   3.224  0.1728 -0.2872  0.0651
24698OCT     C249396   9.844  16.545   3.250  0.4292  0.0868 -0.3937
24699OCT     C149397  13.095  15.561  20.943  0.1542  0.0504 -0.2080
24699OCT     C249398  13.002  15.425  20.494 -0.0595  0.0466  0.6508
24700OCT     C149399  21.537   7.036   9.182 -0.0912  0.2250 -0.2313
24700OCT     C249400  21.961   7.005   9.073 -0.3640 -0.2552 -0.0672
24701OCT     C149401   4.151  14.459   6.598 -0.0553  0.3105  0.0510
24701OCT     C249402   3.961  14.824   6.377  0.1398 -0.2156 -0.1808
24702OCT     C149403  12.459   2.005   4.825 -0.0765 -0.3513 -0.0106
24702OCT     C249404  12.086   1.900   4.634  0.1442 -0.1545  0.1076
24703OCT     C149405   2.176  19.461   8.804  0.1230  0.1361 -0.1084
24703OCT     C249406   2.587  19.393   9.046 -0.4291  0.0943  0.0604
24704OCT     C149407  13.285   2.109  23.076 -0.2146  0.0420  0.2760
24704OCT     C249408  12.899   2.072  22.847  0.0406  0.1833 -0.1017
24705OCT     C149409  21.754  19.791  22.198 -0.1679  0.0372 -0.0977
24705OCT     C249410  22.154  19.952  21.967  0.3226 -0.1354 -0.0224
24706OCT     C149411  10.012  15.578  11.106  0.1904 -0.1253 -0.2751
24706OCT     C249412  10.044  16.043  11.180  0.2794 -0.0222 -0.1239
24707OCT     C149413   0.960   9.859  13.560  0.3143 -0.0850 -0.1766
24707OCT     C249414   0.541   9.805  13.439  0.1624  0.2416  0.0636
24708OCT     C149415   1.775  19.258   5.936  0.0969 -0.2549 -0.1739
24708OCT     C249416   1.478  19.384   6.250  0.1923  0.1155 -0.1221
24709OCT     C149417  19.845   5.422  19.086  0.0239  0.0238  0.4008
24709OCT     C249418  20.124   5.095  19.250 -0.4185 -0.1571  0.3573
24710OCT     C149419   5.517  10.849  21.428 -0.0371  0.3002  0.0283
24710OCT     C249420   5.331  11.041  21.031 -0.0792  0.1497  0.1682
24711OCT     C149421  12.583  15.159  18.041  0.3489 -0.2076 -0.1278
24711OCT     C249422  12.288  15.226  18.403  0.1550 -0.0575 -0.1454
24712OCT     C149423   3.095   7.037   0.437  0.0570 -0.1416  0.3588
24712OCT     C249424   3.498   6.813   0.440 -0.0551 -0.2989 -0.2584
24713OCT     C149425  23.407  22.322   5.353 -0.0414 -0.0475  0.1542
24713OCT     C249426   0.101  22.201   5.489  0.3659  0.0033  0.1881
24714OCT     C149427   8.522  14.553  14.203 -0.1648  0.0155  0.0249
24714OCT     C249428   8.329  14.568  13.798  0.2858  0.0437  0.1059
24715OCT     C149429  16.974  23.635   8.106  0.3881 -0.0467  0.0140
24715OCT     C249430  16.913   0.269   8.414 -0.1187  0.1384 -0.3210
24716OCT     C149431  23.489  16.645  18.961 -0.0386 -0.1493  0.0742
24716OCT     C249432  23.624  16.239  18.725  0.1931  0.0546 -0.1953
24717OCT     C149433   2.421  23.596   7.674  0.2539  0.0079  0.2429
24717OCT     C249434   2.797  23.470   7.477 -0.1179 -0.4203 -0.3420
24718OCT     C149435  22.141  12.895  14.978 -0.0286 -0.0892 -0.4431
24718OCT     C249436  21.780  12.930  14.688  0.2438  0.1614  0.1077
24719OCT     C149437   4.026   0.462  12.696 -0.2774 -0.0757  0.1678
24719OCT     C249438   4.155   0.001  12.631 -0.4389  0.2064  0.0241
24720OCT     C149439  10.521  11.807   7.980  0.2908  0.0798 -0.0714
24720OCT     C249440  10.656  11.401   8.102 -0.1120 -0.1560 -0.1460
24721OCT     C149441   8.335   1.437  15.877  0.0423  0.0080 -0.1828
24721OCT     C249442   8.056   1.453  16.302 -0.2575 -0.0443  0.2984
24722OCT     C149443  12.404  18.926  19.879 -0.1195  0.0365 -0.1538
24722OCT     C249444  12.431  19.078  20.343  0.0895  0.1129  0.4186
24723OCT     C149445   1.252  22.142   4.975  0.0570 -0.0927  0.1579
24723OCT     C249446   1.444  21.735   4.901 -0.1201 -0.0581 -0.1131
24724OCT     C149447  16.066   0.369   2.625  0.0538 -0.0949  0.1772
24724OCT     C249448  16.470   0.118   2.425 -0.1756 -0.0616  0.2158
24725OCT     C149449  20.670  18.997  19.040  0.2630 -0.1718  0.2943
24725OCT     C249450  20.265  19.252  18.941  0.0217 -0.3837 -0.5233
24726OCT     C149451  16.666  10.730   0.773  0.1641 -0.1379 -0.1673
24726OCT     C249452  16.243  10.552   0.915 -0.0686 -0.0312 -0.2532
24727OCT     C149453   8.312  13.405  12.436  0.2107  0.5476  0.0497
24727OCT     C249454   8.335  13.798  12.711 -0.1952 -0.0404 -0.0774
24728OCT     C149455  19.099  21.848  12.608 -0.1836 -0.4377 -0.2336
24728OCT     C249456  19.545  21.852  12.425 -0.0770  0.0546 -0.0480
24729OCT     C149457   9.363  22.995  12.918 -0.0988  0.1330 -0.1834
24729OCT     C249458   9.678  22.979  13.270  0.0073 -0.1153  0.0120
24730OCT     C149459   3.933  14.469  19.110  0.4052 -0.1211 -0.0013
24730OCT     C249460   3.548  14.689  19.083 -0.0004 -0.2956 -0.3010
24731OCT     C149461   8.897  18.060  16.350 -0.2355  0.3331  0.0605
24731OCT     C249462   9.163  17.872  15.994  0.1583 -0.3646 -0.4581
24732OCT     C149463   7.052  19.470   6.392  0.4125  0.0634 -0.1187
24732OCT     C249464   6.800  19.742   6.635  0.2580  0.1277 -0.1797
24733OCT     C149465   4.563   0.106  20.639 -0.0987 -0.2152  0.2100
24733OCT     C249466   4.144   0.177  20.526  0.1202  0.1904 -0.2247
24734OCT     C149467  13.056   3.374  19.431 -0.0699 -0.0782 -0.2480
24734OCT     C249468  13.434   3.617  19.357  0.1965 -0.1867  0.1537
24735OCT     C149469  16.653  11.916  20.469  0.0991  0.0246  0.3813
24735OCT     C249470  16.366  12.242  20.485  0.1890 -0.1792  0.0708
24736OCT     C149471   8.877  15.218  13.250  0.1569  0.1007 -0.4091
24736OCT     C249472   8.773  15.510  13.641 -0.0653 -0.3995 -0.0664
24737OCT     C149473   5.276  20.621  15.410 -0.3283 -0.1280  0.1296
24737OCT     C249474   5.232  20.551  15.880 -0.0106  0.3371  0.1695
24738OCT     C149475   2.826   0.835   6.066 -0.3866  0.0076 -0.0483
24738OCT     C249476   3.118   0.946   5.764  0.0855  0.1460  0.0690
24739OCT     C149477   4.374   3.846  13.207  0.0544 -0.0843  0.1658
24739OCT     C249478   4.556   4.184  13.040 -0.0125 -0.1058  0.2598
24740OCT     C149479   4.834   7.678  16.805  0.1997 -0.2073 -0.2432
24740OCT     C249480   4.986   7.565  16.390  0.2635  0.0385  0.2330
24741OCT     C149481  19.146   9.906   8.558  0.2222 -0.3670 -0.1068
24741OCT     C249482  19.251   9.960   8.086 -0.0116  0.2497 -0.0250
24742OCT     C149483  23.740  13.295   5.228  0.0737  0.1336  0.2266
24742OCT     C249484  23.346  13.417   5.058  0.0956 -0.1081 -0.2413
24743OCT     C149485   8.217   2.296  22.229  0.0483 -0.2897 -0.0308
24743OCT     C249486   8.581   2.651  22.230  0.0395  0.1395 -0.4211
24744OCT     C149487  20.743  12.194   7.587 -0.2371 -0.1138  0.0430
24744OCT     C249488  20.916  11.712   7.482 -0.3722  0.1503 -0.1092
24745OCT     C149489   2.556   7.500  11.235  0.1312  0.2671  0.0623
24745OCT     C249490   2.413   7.087  11.154  0.2126 -0.3417  0.2524
24746OCT     C149491  11.205   6.898  23.456 -0.1078 -0.1698  0.0519
24746OCT     C249492  10.870   7.233  23.616  0.0778  0.2630 -0.0921
24747OCT     C149493  19.679   4.789  15.288  0.2430  0.0118  0.1834
24747OCT     C249494  19.184   4.688  15.278 -0.4256  0.1954 -0.1743
24748OCT     C149495  19.252  20.473   1.331  0.3265  0.2160 -0.3042
24748OCT     C249496  19.606  20.341   0.991  0.4841  0.0908  0.0580
24749OCT     C149497  19.480   4.637  16.791  0.0731  0.0601  0.2158
24749OCT     C249498  19.391   5.012  16.961 -0.1082  0.2302 -0.1379
24750OCT     C149499   7.561   0.827   3.637  0.0270 -0.0165 -0.3026
24750OCT     C249500   7.783   0.956   3.192 -0.2252 -0.0117 -0.2496
24751OCT     C149501   6.824   9.970  10.905  0.0716 -0.2411  0.0718
24751OCT     C249502   7.289  10.013  10.672 -0.1544  0.2272 -0.0409
24752OCT     C149503   3.060  21.872  18.511 -0.0256  0.2943  0.2603
24752OCT     C249504   3.453  22.053  18.736  0.0437  0.0718 -0.1404
24753OCT     C149505  18.692   1.268  15.248 -0.1214  0.0151 -0.0859
24753OCT     C249506  18.565   1.751  15.320 -0.1818 -0.1541 -0.0835
24754OCT     C149507  22.574  17.082  13.070  0.0747  0.1094  0.0498
24754OCT     C249508  22.713  17.311  13.469 -0.0909  0.2881  0.1171
24755OCT     C149509   5.282  11.014  21.880  0.0065 -0.0663 -0.3932
24755OCT     C249510   5.058  11.505  21.824 -0.1008  0.1510  0.1439
24756OCT     C149511  21.727   2.265  11.456 -0.0319  0.0347  0.1418
24756OCT     C249512  21.980   1.900  11.448  0.1865  0.2013  0.4028
24757OCT     C149513   1.147   2.049  18.853  0.3068  0.0635  0.0256
24757OCT     C249514   1.405   2.010  18.468 -0.2075 -0.0842  0.2116
24758OCT     C149515   3.379  19.534   3.731  0.1788  0.0483 -0.4448
24758OCT     C249516   3.731  19.276   3.792  0.3878  0.0736  0.1004
24759OCT     C149517   4.250  11.647  20.391 -0.3518  0.0094 -0.1365
24759OCT     C249518   4.077  11.358  20.771  0.1187  0.2010 -0.3528
24760OCT     C149519  16.816   8.937  13.034  0.2358 -0.1369  0.2046
24760OCT     C249520  16.746   9.332  13.304  0.1209 -0.2339 -0.1728
24761OCT     C149521  19.794  22.172   6.043  0.0835 -0.1745  0.1288
24761OCT     C249522  19.588  22.595   6.082  0.2572 -0.1873  0.0523
24762OCT     C149523   5.165   9.572   2.266 -0.0913  0.1090  0.2779
24762OCT     C249524   5.170   9.948   1.927  0.0043 -0.2777  0.0960
24763OCT     C149525  13.285  19.956  13.548  0.0826  0.0910 -0.1747
24763OCT     C249526  13.733  20.049  13.387  0.3973  0.0673 -0.3221
24764OCT     C149527  14.022   2.802  16.874 -0.1099 -0.0162  0.3804
24764OCT     C249528  13.598   3.036  16.974  0.4415 -0.4159  0.3837
24765OCT     C149529   6.001   4.350   1.291  0.3194  0.0385  0.1969
24765OCT     C249530   6.277   4.134   1.022 -0.2279 -0.4208  0.0704
24766OCT     C149531   9.194   3.026  15.965 -0.0399 -0.4196 -0.0107
24766OCT     C249532   8.818   3.347  15.783 -0.0335  0.0907 -0.2734
24767OCT     C149533  15.894   0.609   9.284 -0.0416 -0.1116  0.1054
24767OCT     C249534  15.887   0.632   8.819 -0.0397 -0.0070  0.1210
24768OCT     C149535  18.094   0.352   9.006  0.2203  0.5627  0.2821
24768OCT     C249536  18.054   0.663   9.388 -0.1935 -0.0298 -0.0676
24769OCT     C149537  22.797  16.798   2.528 -0.0603 -0.0524  0.2797
24769OCT     C249538  22.404  17.094   2.559 -0.0960 -0.2313 -0.4918
24770OCT     C149539  20.609  13.240   3.174  0.0069 -0.0961  0.1136
24770OCT     C249540  20.796  13.426   2.784  0.0059 -0.0187  0.1068
24771OCT     C149541   7.382   7.693  19.724  0.1205 -0.0939  0.1606
24771OCT     C249542   7.539   7.241  19.727  0.1180 -0.2541 -0.0563
24772OCT     C149543  20.481   4.670  20.323  0.0069 -0.0729  0.0245
24772OCT     C249544  20.435   4.471  19.897  0.0505 -0.3176  0.2649
24773OCT     C149545   7.634   8.464  20.221  0.1195 -0.1376  0.1217
24773OCT     C249546   7.524   8.647  20.652 -0.0257  0.0894  0.1484
24774OCT     C149547  23.003   0.194  15.354 -0.2359 -0.0741  0.2570
24774OCT     C249548  22.757   0.014  15.017 -0.1246 -0.0268 -0.5032
24775OCT     C149549  20.992   8.023  20.278  0.1719  0.1247 -0.0355
24775OCT     C249550  20.916   8.304  20.600 -0.1583 -0.1736 -0.3124
24776OCT     C149551  16.642   2.437  10.354  0.0294 -0.0247  0.0049
24776OCT     C249552  16.818   2.260   9.935  0.0138  0.0662  0.4729
24777OCT     C149553  14.557  19.580   5.349 -0.1202  0.0857  0.4850
24777OCT     C249554  14.964  19.809   5.516 -0.1397 -0.1185  0.0963
24778OCT     C149555   7.816  23.707   6.443 -0.0571  0.0206  0.0757
24778OCT     C249556   8.210   0.181   6.364 -0.1566 -0.0720 -0.3084
24779OCT     C149557   3.253  14.488  17.357  0.2946  0.1207 -0.0481
24779OCT     C249558   3.720  14.357  17.360 -0.1902 -0.0007  0.0320
24780OCT     C149559   7.519  10.079  20.759  0.0222  0.0187  0.4476
24780OCT     C249560   7.075  10.034  20.554 -0.1985  0.0776 -0.6169
24781OCT     C149561  15.326  23.589  12.595 -0.1964  0.0592 -0.1260
24781OCT     C249562  15.326  23.119  12.483 -0.1502  0.0467  0.3755
24782OCT     C149563  10.959  23.305  20.774  0.6107  0.1098  0.1532
24782OCT     C249564  11.089  22.885  20.921 -0.4213  0.2108  0.2604
24783OCT     C149565   8.949   8.108   0.076 -0.0343 -0.4338  0.0318
24783OCT     C249566   9.170   8.444   0.267 -0.0754 -0.1193  0.0637
24784OCT     C149567  15.067  12.279  17.307 -0.0183  0.4242 -0.1295
24784OCT     C249568  14.987  12.731  17.405  0.1874 -0.1776  0.1878
24785OCT     C149569   7.724  14.377  10.980 -0.2993  0.1983  0.1357
24785OCT     C249570   7.509  14.081  11.231  0.2571 -0.1848  0.2275
24786OCT     C149571   5.889  14.940   8.873 -0.1224  0.0382  0.1594
24786OCT     C249572   5.988  14.574   9.112 -0.2538 -0.1763 -0.1193
24787OCT     C149573  17.410   4.173  21.133  0.0439  0.0384  0.1200
24787OCT     C249574  17.159   4.540  21.046 -0.0995 -0.1069 -0.2098
24788OCT     C149575   2.707  13.331  22.112  0.0545  0.0542 -0.2532
24788OCT     C249576   2.325  13.066  21.957  0.0643  0.0057 -0.1130
24789OCT     C149577  21.121   8.609   0.909 -0.0910  0.0303 -0.0526
24789OCT     C249578  21.418   8.683   1.292  0.0995  0.1112  0.3662
24790OCT     C149579  17.843  10.128  23.301  0.1096  0.1459 -0.1795
24790OCT     C249580  17.546  10.457  23.485  0.0682 -0.1807 -0.0248
24791OCT     C149581  12.013  23.116  10.538  0.0483 -0.4713  0.2545
24791OCT     C249582  12.177  23.081  10.086  0.0095 -0.2442 -0.1046
24792OCT     C149583   7.181  23.055   6.161  0.0788  0.1391 -0.2362
24792OCT     C249584   7.446  23.336   6.420  0.1734  0.1563 -0.0306
24793OCT     C149585   4.812  20.360  16.618  0.1362 -0.3064  0.0261
24793OCT     C249586   4.441  20.153  16.895  0.1068 -0.0605  0.0381
24794OCT     C149587   7.371   6.700   1.612 -0.0855 -0.3985 -0.0976
24794OCT     C249588   7.147   6.492   1.263 -0.2643  0.1640  0.0076
24795OCT     C149589  11.689  12.220  20.949 -0.2607 -0.1911  0.1954
24795OCT     C249590  11.959  12.266  21.369  0.0462 -0.0484 -0.3080
24796OCT     C149591  21.157  15.327  11.020 -0.3419 -0.0737 -0.2812
24796OCT     C249592  21.082  15.781  10.910 -0.0077  0.0847 -0.3161
24797OCT     C149593  11.528   5.281   5.854  0.1284  0.3857 -0.1170
24797OCT     C249594  11.835   5.610   5.890 -0.2430  0.1484 -0.1997
24798OCT     C149595  23.409  17.400  14.670  0.3674  0.1523 -0.0755
24798OCT     C249596  23.087  17.322  14.305 -0.2550  0.2407  0.3972
24799OCT     C149597  14.693   9.358  17.861  0.0750  0.2067  0.0867
24799OCT     C249598  14.394   9.001  18.095 -0.0353 -0.0513  0.2423
24800OCT     C149599  21.124  10.202   4.209  0.0025  0.3965  0.1271
24800OCT     C249600  20.995  10.608   4.404  0.1622  0.1107  0.5310
24801OCT     C149601  15.016   0.824   5.506  0.2134  0.0305  0.2446
24801OCT     C249602  15.193   1.170   5.273  0.1223 -0.1106  0.1293
24802OCT     C149603   2.027   5.980   6.259  0.2228  0.3458  0.2573
24802OCT     C249604   1.887   6.135   6.701  0.1494  0.1205 -0.2436
24803OCT     C149605  22.902  20.868   5.072  0.1496 -0.0090  0.4523
24803OCT     C249606  23.284  21.109   4.911 -0.0924 -0.1819  0.2123
24804OCT     C149607   4.400   2.294   6.200  0.1107 -0.1397 -0.0449
24804OCT     C249608   4.584   2.198   5.796  0.0124  0.1070  0.0168
24805OCT     C149609   9.794   6.035  19.199  0.1694 -0.1014 -0.1675
24805OCT     C249610   9.678   6.461  18.980 -0.2121  0.1529 -0.3674
24806OCT     C149611  18.092   4.632  10.127  0.1813  0.1758  0.0381
24806OCT     C249612  17.667   4.824  10.203 -0.6454 -0.2793  0.1561
24807OCT     C149613  10.432  17.388  18.346 -0.0598 -0.4587  0.1012
24807OCT     C249614  10.146  17.078  18.595  0.1527 -0.1122 -0.2459
24808OCT     C149615   3.544  19.033   7.510  0.2667  0.5610 -0.0119
24808OCT     C249616   3.590  18.676   7.173 -0.2289 -0.2285 -0.1862
24809OCT     C149617   9.446  17.860   3.478 -0.1808  0.0112 -0.2582
24809OCT     C249618   9.201  18.123   3.824 -0.1924 -0.2222  0.1141
24810OCT     C149619  16.538   2.999   3.948  0.2176 -0.0720  0.1421
24810OCT     C249620  16.754   3.168   3.592 -0.3379  0.0412  0.0608
24811OCT     C149621   6.805   4.808  16.078  0.6103  0.0773 -0.2917
24811OCT     C249622   6.925   4.341  16.015 -0.0531 -0.1349 -0.1219
24812OCT     C149623  19.825  10.082  14.426 -0.0195  0.1244  0.0301
24812OCT     C249624  20.249  10.142  14.179 -0.0716 -0.2176 -0.1588
24813OCT     C149625   6.683   2.193  22.516  0.0660 -0.0756  0.0938
24813OCT     C249626   6.747   2.073  22.050  0.0862 -0.1511  0.1286
24814OCT     C149627   6.644   1.917  19.238  0.0132 -0.0668 -0.1607
24814OCT     C249628   6.452   2.350  19.303  0.2733  0.2006  0.0743
24815OCT     C149629   8.339  17.483  19.157  0.0495  0.0271  0.1033
24815OCT     C249630   8.316  17.729  18.730  0.1131  0.2401 -0.3062
24816OCT     C149631  16.044   0.018  18.119  0.1988  0.0836  0.2572
24816OCT     C249632  15.592   0.104  18.133 -0.1796 -0.0685 -0.0564
24817OCT     C149633   1.484  19.715  19.848  0.1666 -0.0515 -0.0981
24817OCT     C249634   1.479  19.235  19.655 -0.1237  0.2797  0.2390
24818OCT     C149635   0.828   7.336  21.064 -0.1126 -0.2153  0.0185
24818OCT     C249636   0.787   7.019  21.393 -0.2223 -0.4325 -0.0205
24819OCT     C149637   2.127  15.994   6.320 -0.2053 -0.1363 -0.0414
24819OCT     C249638   1.949  15.677   6.581 -0.1804 -0.5310 -0.0759
24820OCT     C149639   7.396   0.975   0.202 -0.2107  0.2940 -0.3362
24820OCT     C249640   7.724   0.683   0.283 -0.0724  0.1928 -0.2258
24821OCT     C149641   1.778  18.222   4.044  0.0507  0.0632 -0.0787
24821OCT     C249642   2.078  18.559   3.937 -0.1897 -0.0421 -0.0458
24822OCT     C149643  23.469  22.302  17.427 -0.3549 -0.1756  0.1045
24822OCT     C249644   0.057  22.590  17.406  0.3592  0.1074 -0.0215
24823OCT     C149645  23.010   9.394  15.396 -0.1174  0.3539  0.1999
24823OCT     C249646  23.012   9.212  15.809  0.0434 -0.1659 -0.1166
24824OCT     C149647  16.455  20.380   2.112 -0.2357 -0.0722 -0.3679
24824OCT     C249648  16.672  20.736   2.388 -0.1898  0.2412  0.1201
24825OCT     C149649   2.177  14.493   4.420 -0.3862 -0.1098  0.3696
24825OCT     C249650   1.798  14.681   4.192  0.1000 -0.3611 -0.4002
24826OCT     C149651  19.901   7.751  12.921 -0.0791  0.1573  0.0696
24826OCT     C249652  19.632   7.910  13.317  0.1332 -0.0725 -0.1047
24827OCT     C149653  16.435  12.541   2.486 -0.0058 -0.0013 -0.1317
24827OCT     C249654  16.486  12.343   2.001 -0.0055  0.1279 -0.2048
24828OCT     C149655   1.046  15.046   4.549 -0.0437  0.3143  0.0999
24828OCT     C249656   1.057  14.710   4.208 -0.2158 -0.1185  0.0412
24829OCT     C149657  12.661   5.489   7.148 -0.2759 -0.0225  0.1377
24829OCT     C249658  12.308   5.476   7.523 -0.1450 -0.0686 -0.3336
24830OCT     C149659   0.636  17.926   8.087 -0.3123 -0.4151 -0.0199
24830OCT     C249660   1.055  18.118   7.947 -0.0027  0.2817  0.1229
24831OCT     C149661   2.657  15.513  12.585  0.4490  0.0899 -0.1143
24831OCT     C249662   2.775  15.943  12.573 -0.1913  0.1118  0.2158
24832OCT     C149663   2.393  21.690   2.750 -0.0222  0.2076  0.4451
24832OCT     C249664   2.425  22.150   2.760 -0.1322 -0.0485  0.3776
24833OCT     C149665  10.582  21.646  21.003  0.0805 -0.0505  0.2566
24833OCT     C249666  10.242  21.360  20.936 -0.0151  0.1294  0.0427
24834OCT     C149667   7.545   9.388  11.762  0.1174  0.2551  0.4394
24834OCT     C249668   7.425   9.806  11.543  0.2299 -0.0326  0.1362
24835OCT     C149669   0.824   1.579  20.295 -0.2810  0.0462  0.1552
24835OCT     C249670   0.573   1.786  19.999  0.2746  0.1066 -0.3083
24836OCT     C149671  15.386   0.624  19.979 -0.0097 -0.1359  0.1444
24836OCT     C249672  15.118   0.767  19.564 -0.3845 -0.0142 -0.1319
24837OCT     C149673   2.525  18.226  19.274 -0.0665  0.1611 -0.6451
24837OCT     C249674   2.577  18.347  19.740  0.0064  0.0352 -0.2957
24838OCT     C149675  15.717   1.852  15.305 -0.0696 -0.0713  0.3393
24838OCT     C249676  15.757   2.291  15.360  0.2076  0.2266 -0.1800
24839OCT     C149677   7.159  13.380  21.595 -0.2834 -0.1631  0.1671
24839OCT     C249678   6.837  13.675  21.807 -0.4870  0.0792  0.1445
24840OCT     C149679  15.169   0.516   5.845  0.2438 -0.0772  0.0790
24840OCT     C249680  14.935   0.942   6.010  0.1560  0.2221 -0.0854
24841OCT     C149681   0.596  23.460  15.548 -0.1155 -0.1232 -0.0686
24841OCT     C249682   0.260  23.474  15.822  0.1231 -0.0613  0.0635
24842OCT     C149683  21.678  11.351   4.256  0.0976  0.1756  0.1738
24842OCT     C249684  21.762  11.542   3.827  0.2210 -0.1121  0.0319
24843OCT     C149685   0.915  17.893  23.490 -0.0793  0.0087  0.3352
24843OCT     C249686   0.976  17.457  23.593 -0.1173  0.1045 -0.2919
24844OCT     C149687  22.531   2.213  23.179  0.2101  0.2116  0.0943
24844OCT     C249688  22.135   1.985  23.358 -0.0425 -0.1783 -0.0092
24845OCT     C149689   3.074   4.641   7.694 -0.5290  0.1597 -0.0423
24845OCT     C249690   3.013   4.888   8.070  0.5733  0.0015  0.1234
24846OCT     C149691   5.374   8.695   7.737 -0.1249 -0.3012  0.1061
24846OCT     C249692   5.185   9.061   7.979 -0.0994 -0.1969 -0.4008
24847OCT     C149693   3.817   9.056  19.560  0.1372 -0.0230  0.1250
24847OCT     C249694   3.684   9.534  19.617 -0.1547 -0.2084  0.4364
24848OCT     C149695  12.666  15.979   3.857 -0.0388  0.1691 -0.4564
24848OCT     C249696  12.883  16.395   3.773  0.1564 -0.0994  0.1154
24849OCT     C149697   1.728   5.809  14.809 -0.2267  0.2813 -0.1137
24849OCT     C249698   1.835   5.620  14.352 -0.4323 -0.2920 -0.4192
24850OCT     C149699  20.302  23.058  20.056 -0.1893  0.1591  0.0615
24850OCT     C249700  20.351  22.663  20.248 -0.0385  0.3118 -0.0756
24851OCT     C149701  11.731   4.924  21.075  0.0553  0.0275 -0.2589
24851OCT     C249702  12.030   4.564  21.223  0.0166  0.3156  0.3830
24852OCT     C149703  21.091   2.257   2.255  0.0283  0.0629 -0.0130
24852OCT     C249704  20.873   2.450   2.629 -0.2823 -0.0115 -0.2904
24853OCT     C149705   2.498  16.212   5.914 -0.0969 -0.3055 -0.0099
24853OCT     C249706   2.396  16.483   5.540 -0.1131 -0.0935  0.2908
24854OCT     C149707   7.961  13.014  20.003 -0.0134 -0.1416  0.3633
24854OCT     C249708   8.412  13.082  20.121  0.3467 -0.2350 -0.2109
24855OCT     C149709  17.652   8.662   0.659 -0.2632 -0.1470 -0.3815
24855OCT     C249710  17.892   9.106   0.678 -0.0835 -0.2089  0.5585
24856OCT     C149711  20.255  12.022  14.384 -0.1616 -0.0030  0.1281
24856OCT     C249712  20.586  12.386  14.299 -0.2989 -0.0208  0.2599
24857OCT     C149713  22.508   9.060  12.055  0.0746  0.2069  0.0826
24857OCT     C249714  22.801   8.795  11.780 -0.1670 -0.1139 -0.3892
24858OCT     C149715   3.842  19.363  12.395 -0.0188 -0.0598  0.0212
24858OCT     C249716   4.249  19.486  12.325 -0.3348  0.3133 -0.1683
24859OCT     C149717   7.000  11.166  13.925  0.2573  0.1111  0.2405
24859OCT     C249718   7.270  11.350  14.196  0.2593 -0.0674 -0.0899
24860OCT     C149719   4.443   8.193   2.790 -0.6374 -0.0629  0.1081
24860OCT     C249720   4.464   7.961   3.173  0.4951  0.1086 -0.2170
24861OCT     C149721  12.284   5.633  20.375 -0.1579  0.0482 -0.4530
24861OCT     C249722  12.290   5.348  20.017  0.0012 -0.0586  0.0108
24862OCT     C149723  23.685   1.546   4.160  0.0578 -0.1149  0.0894
24862OCT     C249724  23.365   1.900   4.216 -0.1411  0.2321  0.0594
24863OCT     C149725  20.017   5.452  23.498 -0.1646  0.0043 -0.2045
24863OCT     C249726  19.697   5.786  23.311  0.0832  0.2410  0.1037
24864OCT     C149727   0.256  22.722  21.033 -0.1883  0.1861  0.2753
24864OCT     C249728   0.488  23.108  21.176  0.2004  0.4483  0.3583
24865OCT     C149729  16.471  11.234  23.025  0.0136 -0.2552  0.0449
24865OCT     C249730  16.493  11.723  22.976 -0.3762  0.0662 -0.2467
24866OCT     C149731   9.491  23.650  14.988 -0.0119 -0.0561 -0.1006
24866OCT     C249732  10.020  23.614  15.015  0.2989  0.0598 -0.1576
24867OCT     C149733  20.877   9.320  21.793 -0.1299  0.2597 -0.1126
24867OCT     C249734  20.970   9.741  21.627 -0.1761 -0.0723 -0.2958
24868OCT     C149735  15.212  18.530  23.249 -0.3194  0.0329 -0.4121
24868OCT     C249736  15.210  18.052  23.113 -0.0186  0.0603  0.2085
24869OCT     C149737   6.345  10.810  22.907 -0.0270  0.0743  0.1454
24869OCT     C249738   6.758  10.756  23.238 -0.0851  0.0339  0.2025
24870OCT     C149739   7.446  17.805  15.742  0.1504 -0.2298  0.2080
24870OCT     C249740   7.447  17.322  15.608  0.1574 -0.0171  0.0660
24871OCT     C149741   1.572   4.406   7.832  0.1475 -0.1811 -0.3929
24871OCT     C249742   1.196   4.269   7.671  0.0391  0.0119 -0.1815
24872OCT     C149743  13.243  21.652   9.841  0.0362 -0.0220 -0.1729
24872OCT     C249744  12.756  21.604   9.871  0.1031 -0.0098 -0.1583
24873OCT     C149745   3.662  19.947  10.759  0.1199  0.1287  0.3419
24873OCT     C249746   3.936  19.739  11.126 -0.0729  0.0682 -0.2148
24874OCT     C149747  21.053  20.200   1.211  0.2907 -0.1033  0.1615
24874OCT     C249748  20.672  19.984   0.933  0.0208  0.1293  0.1845
24875OCT     C149749  10.478   8.291  11.338 -0.0782 -0.2972 -0.1513
24875OCT     C249750  10.255   8.533  10.977 -0.1215 -0.1112  0.0303
24876OCT     C149751   0.906  17.276  18.839  0.0441  0.2361  0.1023
24876OCT     C249752   0.956  17.731  18.899  0.0195 -0.1557  0.4372
24877OCT     C149753   8.211  12.971  13.907 -0.1717  0.3146  0.1659
24877OCT     C249754   8.395  12.531  14.171 -0.3761 -0.1071  0.0626
24878OCT     C149755   7.830  16.947  11.314  0.3718  0.1992 -0.0695
24878OCT     C249756   8.125  16.876  10.918  0.3415  0.0224 -0.1801
24879OCT     C149757   5.894  19.105   0.626  0.4855 -0.1104  0.2539
24879OCT     C249758   5.751  19.482   0.336  0.2465  0.3646  0.1371
24880OCT     C149759  21.640  11.864   4.273  0.0804 -0.3091 -0.0807
24880OCT     C249760  21.311  12.147   4.504 -0.1443 -0.0195 -0.3401
24881OCT     C149761   7.518  22.108   3.017 -0.5115 -0.1343  0.4464
24881OCT     C249762   7.546  22.329   2.603  0.0722 -0.1163  0.3384
24882OCT     C149763  15.477  23.452  23.055 -0.0989  0.0284 -0.0393
24882OCT     C249764  15.318  23.076  22.805  0.1056  0.1070  0.2529
24883OCT     C149765  19.468   4.781   0.876 -0.0279  0.0823  0.2546
24883OCT     C249766  19.341   5.224   0.710 -0.1557 -0.0970  0.1341
24884OCT     C149767  16.769  11.893   2.869 -0.1522  0.0397 -0.0945
24884OCT     C249768  16.381  12.074   2.680  0.2296  0.1732  0.1686
24885OCT     C149769   2.429  18.540  12.088 -0.0548  0.2467  0.1576
24885OCT     C249770   1.982  18.507  11.833  0.0990  0.0723  0.2124
24886OCT     C149771  17.211   2.603   3.371 -0.0161  0.1733 -0.5771
24886OCT     C249772  17.558   2.281   3.288 -0.2621 -0.1466  0.3958
24887OCT     C149773  12.257  20.315  14.284  0.2728  0.0332  0.2821
24887OCT     C249774  11.943  19.939  14.337 -0.2874 -0.0464 -0.0025
24888OCT     C149775  22.247  20.109   1.668 -0.1811  0.2063  0.1588
24888OCT     C249776  22.315  19.767   1.946 -0.1727 -0.2584  0.1459
24889OCT     C149777  14.003   4.696   7.080 -0.2773 -0.2339 -0.2427
24889OCT     C249778  14.014   4.493   6.608  0.2872 -0.0705  0.0578
24890OCT     C149779  18.025   2.847  20.913  0.1912 -0.2846 -0.0622
24890OCT     C249780  18.362   2.583  20.791 -0.1176  0.1561 -0.2452
24891OCT     C149781   0.374   5.665  15.425  0.2923 -0.2074  0.0854
24891OCT     C249782   0.362   6.114  15.627  0.1014  0.0220  0.1178
24892OCT     C149783  23.138   0.051   4.240 -0.1903 -0.3011 -0.0408
24892OCT     C249784  22.951  23.544   3.917 -0.0832 -0.0402 -0.2448
24893OCT     C149785   5.059  16.717   9.477 -0.1620  0.4142 -0.0836
24893OCT     C249786   5.304  17.060   9.619 -0.2533 -0.2251  0.2082
24894OCT     C149787  21.137   8.861   3.926 -0.1140 -0.1194  0.0682
24894OCT     C249788  21.442   8.973   4.301 -0.0731  0.1751 -0.2439
24895OCT     C149789   6.501  11.536  19.677 -0.1917 -0.2041  0.1380
24895OCT     C249790   6.770  11.836  19.886  0.1796  0.2493  0.0484
24896OCT     C149791  11.925   7.825   8.563  0.0428 -0.0058 -0.1954
24896OCT     C249792  12.072   7.982   8.913  0.0951 -0.0232  0.0065
24897OCT     C149793  10.328  22.325  23.382  0.0158 -0.1995  0.2644
24897OCT     C249794  10.137  22.511   0.051  0.3212 -0.5638  0.3318
24898OCT     C149795  17.073  13.296  15.573  0.1304  0.1519 -0.1829
24898OCT     C249796  17.408  12.966  15.588  0.1660  0.3682  0.3794
24899OCT     C149797  14.587   8.000  21.066 -0.0030 -0.0635  0.3827
24899OCT     C249798  14.768   7.621  20.915  0.2757 -0.2802  0.4284
24900OCT     C149799  10.575   8.390   6.181  0.2435  0.1402  0.2306
24900OCT     C249800  10.202   8.549   5.911 -0.3417  0.1582 -0.1241
24901OCT     C149801  12.354  15.114  16.382  0.1313  0.2040  0.3092
24901OCT     C249802  12.472  15.529  16.512  0.1983  0.0219 -0.2673
24902OCT     C149803  12.786  13.053  22.667  0.3879 -0.2674  0.1864
24902OCT     C249804  12.442  13.221  22.941 -0.0268 -0.3190  0.4268
24903OCT     C149805  10.416   6.577  15.769  0.1109  0.2173  0.1277
24903OCT     C249806  10.363   6.625  15.296  0.1010 -0.4688 -0.2254
24904OCT     C149807   2.373  12.071  23.582  0.1536 -0.2943 -0.3430
24904OCT     C249808   1.899  12.094  23.585 -0.0821  0.2910 -0.2127
24905OCT     C149809  15.998  15.144   8.467  0.2849 -0.0940 -0.0020
24905OCT     C249810  16.037  14.952   8.882 -0.1018  0.2161 -0.2085
24906OCT     C149811   3.278  10.591   8.252  0.1580  0.5250  0.1411
24906OCT     C249812   3.331  10.996   8.327 -0.0429  0.0881 -0.2177
24907OCT     C149813   6.622  10.875  20.170 -0.3086  0.4270  0.1729
24907OCT     C249814   6.665  11.088  19.775  0.0199  0.0340  0.0292
24908OCT     C149815   2.280   6.316  22.355  0.0073 -0.1432  0.0958
24908OCT     C249816   2.361   5.860  22.392 -0.0924 -0.5673  0.0529
24909OCT     C149817  21.455   0.210  12.789  0.0846  0.2608  0.0017
24909OCT     C249818  21.599   0.690  12.703 -0.1989 -0.2104 -0.1460
24910OCT     C149819  10.819   8.227  18.285  0.1307  0.0960  0.4402
24910OCT     C249820  11.272   8.133  18.286  0.0673 -0.1459  0.3840
24911OCT     C149821   6.951   3.371   5.676  0.1181  0.2255  0.0150
24911OCT     C249822   7.356   3.245   5.546  0.1367  0.1063 -0.0028
24912OCT     C149823  18.338   0.585   3.273 -0.0849  0.0586  0.0460
24912OCT     C249824  18.417   0.235   3.559 -0.1550  0.2665 -0.0089
24913OCT     C149825   6.873  18.777  17.293 -0.0354  0.2840 -0.0930
24913OCT     C249826   6.762  18.853  17.714  0.2240 -0.2133  0.1332
24914OCT     C149827   9.577   8.081  22.494  0.0823  0.3546 -0.1064
24914OCT     C249828   9.736   7.772  22.833 -0.3188 -0.1777  0.0958
24915OCT     C149829  17.710   3.815   1.822 -0.1899 -0.0359 -0.1487
24915OCT     C249830  17.679   3.374   1.657 -0.0467  0.0050 -0.0472
24916OCT     C149831  13.765  13.108  23.164 -0.1091  0.1844 -0.2235
24916OCT     C249832  14.173  13.263  23.044  0.3696 -0.4240  0.2251
24917OCT     C149833  11.528  23.649   3.845 -0.0220  0.0313  0.1690
24917OCT     C249834  11.912   0.023   3.957 -0.1594 -0.1100 -0.2071
24918OCT     C149835   8.085  23.015  22.954 -0.3430 -0.2280  0.3599
24918OCT     C249836   7.870  23.227  23.305 -0.0600  0.1575  0.3551
24919OCT     C149837  12.020  22.907   6.128  0.0977 -0.2330 -0.0855
24919OCT     C249838  12.059  23.314   6.098 -0.4657 -0.2881 -0.2259
24920OCT     C149839  21.687   4.165  23.558 -0.2255  0.1034 -0.1840
24920OCT     C249840  22.084   3.878   0.034 -0.0066  0.0282 -0.0814
24921OCT     C149841   5.894   4.326   4.403 -0.0742 -0.0614 -0.2832
24921OCT     C249842   5.512   4.119   4.247 -0.2388 -0.0600  0.0969
24922OCT     C149843   2.322  13.969   3.053  0.2913  0.2304 -0.5229
24922OCT     C249844   2.485  13.711   3.353 -0.0332  0.0794  0.1026
24923OCT     C149845  12.715  15.201  22.323 -0.1907  0.0245 -0.1592
24923OCT     C249846  13.019  15.134  22.634 -0.1799  0.2541 -0.2977
24924OCT     C149847   0.229   3.356   6.661 -0.1157  0.0611  0.3280
24924OCT     C249848  23.703   3.031   6.904 -0.0164 -0.1346 -0.4094
24925OCT     C149849  19.812  12.426   1.155 -0.2417 -0.1632  0.0509
24925OCT     C249850  19.741  11.974   1.022  0.3275  0.0508  0.1194
24926OCT     C149851  17.399  15.517  15.190 -0.1321 -0.0352 -0.2299
24926OCT     C249852  17.241  15.961  15.171 -0.0351  0.1779 -0.1158
24927OCT     C149853  16.237  15.449   4.869  0.2281 -0.2089  0.6031
24927OCT     C249854  16.368  15.053   4.702 -0.0191 -0.2045  0.3285
24928OCT     C149855  18.851   7.177   0.909 -0.3895  0.0950  0.3565
24928OCT     C249856  18.606   7.031   0.545  0.1181 -0.0064  0.2985
24929OCT     C149857   5.204  13.028  18.287  0.2536 -0.1948 -0.2692
24929OCT     C249858   5.263  12.734  17.987 -0.1096  0.1338  0.2303
24930OCT     C149859  20.348  19.302   9.003  0.0933 -0.0817 -0.1673
24930OCT     C249860  20.312  18.945   9.278  0.0418 -0.1364 -0.0950
24931OCT     C149861   7.731  18.924  16.925  0.2153  0.1549  0.0552
24931OCT     C249862   8.096  19.192  16.665 -0.0722 -0.1634  0.2265
24932OCT     C149863  13.848   8.336   8.931 -0.3178  0.1157 -0.0242
24932OCT     C249864  13.547   8.688   8.797 -0.1058 -0.0861 -0.3541
24933OCT     C149865  10.278  14.246   2.680  0.2429 -0.2405  0.2751
24933OCT     C249866  10.229  13.811   2.440 -0.2381 -0.1782 -0.0363
24934OCT     C149867  22.250  10.267  21.420 -0.2089  0.0609 -0.2888
24934OCT     C249868  22.508   9.964  21.660 -0.1610 -0.0711 -0.0362
24935OCT     C149869  18.401  16.885   3.496  0.1736  0.1584  0.0340
24935OCT     C249870  18.307  16.523   3.228 -0.2387 -0.0497  0.1103
24936OCT     C149871  16.573   3.294  20.981 -0.0874 -0.1797  0.4158
24936OCT     C249872  16.834   2.874  20.926 -0.0716 -0.0220 -0.1522
24937OCT     C149873  18.568  12.935  10.838  0.0753  0.0290  0.0707
24937OCT     C249874  18.996  13.051  10.741 -0.0684 -0.1048 -0.2878
24938OCT     C149875   7.648  21.671  22.580  0.2330  0.6370  0.1901
24938OCT     C249876   7.520  21.399  22.220 -0.0613 -0.3233 -0.2983
24939OCT     C149877  13.691  18.322  12.335 -0.1587 -0.1219  0.4946
24939OCT     C249878  13.908  17.989  12.082 -0.2051 -0.1709 -0.0906
24940OCT     C149879  22.202   7.382  14.024  0.0922 -0.3560 -0.3731
24940OCT     C249880  22.108   7.090  14.319  0.0061 -0.1575 -0.0707
24941OCT     C149881   4.784   7.349  11.283 -0.0383 -0.2526  0.1850
24941OCT     C249882   4.964   7.411  11.718 -0.2037  0.2370  0.4810
24942OCT     C149883  19.486  10.542  19.102  0.2105 -0.3368 -0.1181
24942OCT     C249884  19.076  10.525  18.902 -0.0096 -0.1014 -0.0846
24943OCT     C149885   0.024   9.183   9.001 -0.2954 -0.3088  0.0325
24943OCT     C249886  23.588   9.341   8.592 -0.1361 -0.1319 -0.1649
24944OCT     C149887  11.530  18.020   3.294 -0.3751  0.0632  0.2149
24944OCT     C249888  11.691  17.653   3.556 -0.0579  0.2632 -0.0606
24945OCT     C149889  13.329  13.589  12.720 -0.0969 -0.1862 -0.3168
24945OCT     C249890  13.602  13.343  12.466  0.2511 -0.2898 -0.0442
24946OCT     C149891   2.409  13.633  15.474 -0.0373  0.2093 -0.0019
24946OCT     C249892   2.737  13.729  15.806 -0.0566 -0.0034 -0.1913
24947OCT     C149893  17.067   3.220  10.201  0.0453 -0.1356 -0.0872
24947OCT     C249894  17.326   3.561  10.303  0.1725 -0.3466  0.0916
24948OCT     C149895   8.640  18.676  12.986  0.2568  0.4438  0.1315
24948OCT     C249896   8.997  18.587  13.172 -0.0449  0.0851  0.1227
24949OCT     C149897  22.502  17.843   7.396 -0.0443  0.0644  0.0286
24949OCT     C249898  22.478  18.291   7.543 -0.0259 -0.1362  0.0184
24950OCT     C149899  23.309  12.791  19.034  0.2082 -0.1860 -0.0230
24950OCT     C249900  23.719  12.663  18.986  0.0668  0.0420  0.1957
24951OCT     C149901   4.557  11.472  12.703 -0.3791 -0.0499  0.1380
24951OCT     C249902   4.461  11.359  12.249  0.1199  0.0207  0.0603
24952OCT     C149903   2.896  22.935   6.688  0.2039 -0.1084  0.1204
24952OCT     C249904   3.292  22.935   6.962  0.3363 -0.3510 -0.2673
24953OCT     C149905  20.189   6.146  18.555  0.0446  0.2517  0.0083
24953OCT     C249906  20.260   6.070  18.103 -0.0365 -0.0670  0.0287
24954OCT     C149907   3.886  12.482   6.307 -0.1191 -0.1583  0.0821
24954OCT     C249908   3.477  12.344   6.526 -0.1163  0.0490 -0.2112
24955OCT     C149909   7.595  12.332  11.051  0.1035 -0.0489  0.0504
24955OCT     C249910   7.295  12.556  10.808  0.1239  0.5240  0.2708
24956OCT     C149911   8.230  14.895   2.018 -0.1178 -0.3740 -0.0968
24956OCT     C249912   8.392  15.266   1.804 -0.2481  0.1329 -0.3362
24957OCT     C149913   3.959   9.069   2.972  0.3391  0.3226 -0.0597
24957OCT     C249914   4.116   9.245   3.343 -0.2570  0.1528 -0.0514
24958OCT     C149915  16.055   3.768  16.082  0.1042  0.2728  0.2967
24958OCT     C249916  16.229   3.976  16.494 -0.1275 -0.1347  0.1949
24959OCT     C149917  21.282  19.692  10.633 -0.2065 -0.2695 -0.2225
24959OCT     C249918  20.953  19.482  10.473  0.0210 -0.0293 -0.2167
24960OCT     C149919  18.315   5.868  18.708 -0.1075 -0.1077  0.1099
24960OCT     C249920  18.077   6.024  19.124 -0.1045  0.2737  0.2084
24961OCT     C149921  14.975  12.410  19.485  0.2060  0.0339 -0.1437
24961OCT     C249922  14.835  12.069  19.190 -0.0181  0.3117  0.0232
24962OCT     C149923  13.962  22.210   0.664 -0.4070 -0.0325  0.0250
24962OCT     C249924  13.608  21.944   0.715  0.2491  0.1437 -0.0084
24963OCT     C149925  12.305  17.363   8.116  0.0881  0.0633 -0.2550
24963OCT     C249926  11.861  17.269   8.120  0.3689  0.2179 -0.2384
24964OCT     C149927  12.862  13.418  12.603 -0.3503  0.0706 -0.0742
24964OCT     C249928  13.133  13.109  12.471  0.1775 -0.0282 -0.3661
24965OCT     C149929  19.142  10.096   6.772 -0.1236  0.1637 -0.0556
24965OCT     C249930  19.001   9.830   6.346  0.6782 -0.4793 -0.1266
24966OCT     C149931  20.368   2.405   3.525  0.2074  0.0044  0.3527
24966OCT     C249932  20.632   2.021   3.431  0.3055 -0.2900  0.2539
24967OCT     C149933   7.436   9.486  10.644 -0.0911  0.2057  0.1174
24967OCT     C249934   7.787   9.603  10.350 -0.0458  0.4208 -0.0718
24968OCT     C149935  19.692   9.297  13.120 -0.0529 -0.1915 -0.1624
24968OCT     C249936  19.865   9.718  12.984 -0.3015 -0.0958 -0.3417
24969OCT     C149937  15.296   6.502  20.847  0.3981  0.2721 -0.0983
24969OCT     C249938  15.718   6.627  20.774 -0.3023  0.3784 -0.3656
24970OCT     C149939  16.739   0.567  19.827 -0.3533 -0.1219 -0.2335
24970OCT     C249940  16.978   0.210  20.011 -0.2788  0.2024 -0.1606
24971OCT     C149941  13.419  18.083  13.322 -0.0004  0.0070 -0.0089
24971OCT     C249942  13.116  18.296  13.631  0.2849 -0.1807 -0.2681
24972OCT     C149943  11.427   2.559   2.025  0.3157 -0.0833 -0.3347
24972OCT     C249944  11.087   2.652   2.276  0.3040 -0.2013  0.0895
24973OCT     C149945   8.904   2.703   2.573 -0.4499 -0.2986  0.1538
24973OCT     C249946   9.178   2.993   2.838  0.0990 -0.0442 -0.1098
24974OCT     C149947   7.920  21.144  10.520 -0.3304 -0.0582 -0.0520
24974OCT     C249948   8.179  20.842  10.810 -0.1146  0.0610  0.0280
24975OCT     C149949  13.620   2.231  15.492 -0.2630  0.1338 -0.5107
24975OCT     C249950  13.653   1.988  15.925  0.1469  0.2213  0.1590
24976OCT     C149951  16.015  21.793  11.684  0.1092 -0.0009 -0.0067
24976OCT     C249952  16.181  21.702  12.165  0.1677  0.4270 -0.0391
24977OCT     C149953  12.288  11.849  18.609 -0.0676  0.0353 -0.1086
24977OCT     C249954  12.651  11.719  18.361  0.0993  0.2452 -0.1396
24978OCT     C149955  12.381   0.405   4.536  0.2068  0.0366  0.0924
24978OCT     C249956  12.248   0.227   4.928  0.0964  0.0699 -0.1897
24979OCT     C149957   8.476  10.281  16.521  0.3365  0.1736 -0.4091
24979OCT     C249958   8.896  10.451  16.559  0.0877 -0.2224 -0.0029
24980OCT     C149959  13.716  19.473  16.379 -0.2686  0.1174  0.6495
24980OCT     C249960  14.222  19.514  16.286  0.1563  0.0218  0.0150
24981OCT     C149961  15.915  16.474  15.846  0.6042 -0.2016  0.3536
24981OCT     C249962  16.040  16.026  15.909 -0.4474 -0.2275  0.1043
24982OCT     C149963   3.407  11.292  15.430  0.0099  0.1769  0.1598
24982OCT     C249964   3.178  11.708  15.635 -0.2376 -0.1803 -0.2070
24983OCT     C149965  11.037   4.960  14.047 -0.2651  0.1344  0.0442
24983OCT     C249966  11.386   4.672  14.166  0.2032 -0.2196 -0.0046
24984OCT     C149967  11.071  11.120  21.965  0.2512 -0.2661  0.2430
24984OCT     C249968  11.119  10.945  21.539  0.1876  0.3325  0.0888
24985OCT     C149969  19.857  21.525  11.673 -0.1746  0.2178 -0.4436
24985OCT     C249970  19.602  21.797  11.938  0.3117  0.0410 -0.3302
24986OCT     C149971   4.059   3.143  16.847  0.0935 -0.1048 -0.3241
24986OCT     C249972   3.743   3.107  16.465  0.2467  0.3476 -0.2711
24987OCT     C149973   2.182  10.295   6.446  0.0944 -0.1683  0.1471
24987OCT     C249974   2.059  10.326   6.903  0.1976 -0.1303  0.1676
24988OCT     C149975   1.133  23.312   1.563  0.0203  0.1707  0.1296
24988OCT     C249976   1.586  23.322   1.747  0.0639 -0.1658 -0.1175
24989OCT     C149977  18.677  12.505  11.751 -0.0227  0.0040  0.2489
24989OCT     C249978  18.807  12.242  11.414 -0.1324 -0.1249 -0.4391
24990OCT     C149979   0.341   1.018   2.349 -0.0038  0.3555  0.1099
24990OCT     C249980   0.351   0.547   2.475  0.1037 -0.6006  0.2623
24991OCT     C149981   5.292   8.048   2.720 -0.0770  0.0149  0.1040
24991OCT     C249982   4.948   8.053   3.019  0.1569  0.3902 -0.1782
24992OCT     C149983   8.434   1.072   1.366  0.0398 -0.2007 -0.1553
24992OCT     C249984   8.753   0.726   1.474 -0.1222 -0.0844 -0.2471
24993OCT     C149985   9.269  23.728   7.319 -0.1534  0.0042  0.0938
24993OCT     C249986   9.746  23.701   7.399  0.1211  0.3055 -0.1894
24994OCT     C149987   4.475   0.544  10.010 -0.1045 -0.2920  0.0294
24994OCT     C249988   4.045   0.729  10.125  0.2218  0.0892 -0.2192
24995OCT     C149989  15.789   6.043  11.408  0.0126 -0.2431  0.2524
24995OCT     C249990  15.447   6.150  11.149 -0.2577 -0.2185 -0.0295
24996OCT     C149991  17.906   2.652  13.949  0.1746 -0.0207 -0.3524
24996OCT     C249992  17.723   2.853  13.566 -0.2275 -0.2001 -0.0151
24997OCT     C149993  11.518  13.318  15.820  0.0725 -0.0527  0.0223
24997OCT     C249994  11.444  13.778  15.649 -0.0615 -0.0331  0.4204
24998OCT     C149995   6.890   9.273  10.543  0.0890 -0.2180 -0.0842
24998OCT     C249996   7.106   9.542  10.247  0.2940 -0.2419  0.2973
24999OCT     C149997  13.468   8.015   0.455  0.4498 -0.0174 -0.2640
24999OCT     C249998  13.828   8.128   0.757 -0.1441  0.1611  0.0799
25000OCT     C149999  18.563   8.010   2.929  0.0476 -0.2538 -0.0744
25000OCT     C250000  18.888   8.313   2.762  0.1734 -0.4192 -0.1215
25001OCT     C150001  11.251  16.687  13.799  0.1611  0.0272  0.1566
25001OCT     C250002  11.166  17.137  13.700 -0.5619  0.0611 -0.1860
25002OCT     C150003   8.615  20.655  11.511  0.2413  0.4047  0.1019
25002OCT     C250004   8.614  20.960  11.082 -0.1236 -0.2052 -0.0732
25003OCT     C150005  12.156  16.733   4.656  0.2727 -0.2100  0.3239
25003OCT     C250006  12.457  16.396   4.665  0.2398  0.0084  0.2265
25004OCT     C150007  23.594  12.159  21.110 -0.2527 -0.1402 -0.0430
25004OCT     C250008  23.212  11.889  21.138 -0.2036  0.1017 -0.4643
25005OCT     C150009  16.566  18.150  20.249 -0.1448  0.0797  0.3464
25005OCT     C250010  16.207  18.035  20.572  0.2759  0.2264  0.1640
25006OCT     C150011   9.640  23.711  20.748 -0.1093 -0.2080  0.0963
25006OCT     C250012   9.894   0.363  20.546 -0.0217 -0.1053  0.1918
25007OCT     C150013   0.822   8.421   0.306  0.2336  0.1382 -0.0645
25007OCT     C250014   0.683   8.022   0.320  0.1448  0.1444  0.1063
25008OCT     C150015  20.905   3.093   7.601  0.2991 -0.1241 -0.2365
25008OCT     C250016  21.258   2.755   7.586  0.0143  0.0168  0.4309
25009OCT     C150017  19.636  13.810  16.088  0.0991  0.0520 -0.0025
25009OCT     C250018  20.080  13.877  15.973 -0.1714  0.0481 -0.0563
25010OCT     C150019   7.720   8.652  14.064  0.0305 -0.2332  0.0654
25010OCT     C250020   7.889   8.532  13.590  0.0342 -0.2805 -0.3097
25011OCT     C150021   9.790  22.231   8.847 -0.0812 -0.2156  0.1285
25011OCT     C250022  10.049  22.652   8.930  0.0195 -0.0442  0.2838
25012OCT     C150023  21.833   2.643   0.617  0.1096 -0.1131  0.1038
25012OCT     C250024  22.079   2.343   0.829  0.0460 -0.3226 -0.2529
25013OCT     C150025   0.367   8.913  11.897  0.0881  0.0369 -0.2526
25013OCT     C250026   0.571   9.349  11.945 -0.1227  0.3071 -0.1632
25014OCT     C150027  22.789  17.385   2.550 -0.2300 -0.2690  0.1868
25014OCT     C250028  22.739  17.401   2.989 -0.3365  0.4091  0.1367
25015OCT     C150029   4.936  22.579   1.526  0.0788  0.0553 -0.2107
25015OCT     C250030   4.565  22.700   1.795 -0.0540 -0.0265 -0.1575
25016OCT     C150031   4.377  10.687  21.197  0.1784 -0.2646 -0.1836
25016OCT     C250032   4.411  11.085  20.956 -0.0275 -0.1521 -0.0889
25017OCT     C150033  16.216   5.333   8.195 -0.1007  0.0041  0.0280
25017OCT     C250034  15.891   5.367   8.551  0.2020  0.0509 -0.2693
25018OCT     C150035   9.680  18.690   3.695 -0.3282  0.0426  0.1443
25018OCT     C250036  10.108  18.716   3.813  0.2042  0.1094  0.1978
25019OCT     C150037  12.916   0.449  14.188 -0.2032 -0.3574 -0.3082
25019OCT     C250038  13.162   0.263  14.566  0.0637  0.1504  0.1675
25020OCT     C150039  11.956  16.565  11.389 -0.2832  0.0927  0.0700
25020OCT     C250040  11.692  16.897  11.109 -0.2894 -0.5128  0.4873
25021OCT     C150041   2.700   7.538  18.835 -0.0452  0.0026 -0.0561
25021OCT     C250042   2.567   7.086  18.728 -0.0800 -0.1182 -0.1723
25022OCT     C150043  23.531  17.521  11.877  0.1486 -0.0670 -0.1100
25022OCT     C250044   0.174  17.248  11.818  0.0195 -0.1450  0.0299
25023OCT     C150045  17.723  17.489  19.679 -0.1474 -0.1485 -0.2441
25023OCT     C250046  17.613  17.123  19.880 -0.0452  0.0345  0.2306
25024OCT     C150047   8.105   5.347   7.728  0.0862  0.2585 -0.0438
25024OCT     C250048   8.335   5.035   7.981  0.0201  0.1153  0.3345
25025OCT     C150049  17.119   0.813   8.203  0.0708 -0.0766 -0.1680
25025OCT     C250050  16.708   1.096   8.241 -0.1787 -0.1935  0.0620
25026OCT     C150051   5.811   9.176  21.410  0.0787  0.1219  0.2358
25026OCT     C250052   6.271   9.064  21.205  0.1103  0.0689  0.1842
25027OCT     C150053   7.840   3.822  18.503  0.1705  0.0124  0.4055
25027OCT     C250054   7.915   3.395  18.267  0.1877 -0.2642  0.0814
25028OCT     C150055   6.705  23.118   2.225  0.0692  0.0877 -0.2044
25028OCT     C250056   6.701  23.183   2.741  0.1579 -0.0510 -0.0006
25029OCT     C150057  13.805   0.505  12.745  0.1016 -0.0496 -0.1601
25029OCT     C250058  14.250   0.625  12.625  0.1254 -0.3000 -0.2876
25030OCT     C150059  13.869  13.358  10.044 -0.1062 -0.0553  0.4328
25030OCT     C250060  13.816  13.771  10.302  0.1540 -0.0797  0.1052
25031OCT     C150061  22.594  21.034   2.981  0.1937  0.0916 -0.1577
25031OCT     C250062  22.930  20.867   2.759  0.0172 -0.1643 -0.0821
25032OCT     C150063   2.854   9.051   2.349 -0.0267 -0.1389 -0.1025
25032OCT     C250064   2.577   8.728   2.140 -0.0507  0.1075 -0.2263
25033OCT     C150065  11.931  21.535   7.239  0.0339 -0.0923 -0.2296
25033OCT     C250066  11.869  21.881   7.580  0.0052  0.0144 -0.4213
25034OCT     C150067  23.428  10.807   3.442  0.2115 -0.0194 -0.1028
25034OCT     C250068  23.609  11.229   3.531  0.0230 -0.2786 -0.3111
25035OCT     C150069   6.404  10.806  22.365 -0.2404  0.2071 -0.5528
25035OCT     C250070   6.302  10.914  21.895 -0.1540  0.2279  0.3441
25036OCT     C150071   6.083  11.454  18.909  0.1240 -0.2129  0.1535
25036OCT     C250072   5.798  11.372  19.299 -0.0325  0.3220  0.1104
25037OCT     C150073  14.141  14.941   0.461 -0.1385  0.0663  0.3255
25037OCT     C250074  13.749  14.767   0.689 -0.2622  0.3040 -0.0199
25038OCT     C150075  11.136   0.629  15.560 -0.0303 -0.1696 -0.1486
25038OCT     C250076  10.862   0.473  15.186 -0.1494  0.2351  0.0437
25039OCT     C150077   6.515  11.658  22.958  0.0469 -0.0767  0.3199
25039OCT     C250078   6.849  11.679  22.663 -0.0704  0.1035  0.0883
25040OCT     C150079   9.734   7.183   2.940  0.0382 -0.0708 -0.3202
25040OCT     C250080   9.487   7.536   3.216  0.2755  0.0441 -0.4415
25041OCT     C150081   4.446  11.615   3.034  0.3233  0.1521  0.0942
25041OCT     C250082   4.309  11.949   2.739 -0.1052  0.0005 -0.0325
25042OCT     C150083  15.727   6.705   9.890 -0.1771 -0.2282  0.0030
25042OCT     C250084  15.774   6.453   9.540 -0.2611  0.0077 -0.3406
25043OCT     C150085  12.979   4.681   1.139  0.4083  0.2248  0.1144
25043OCT     C250086  13.224   4.505   1.483 -0.4348  0.0252 -0.0267
25044OCT     C150087  12.310   7.495   8.703 -0.2404  0.0335  0.0826
25044OCT     C250088  12.501   7.100   8.794  0.0233 -0.1103  0.1424
25045OCT     C150089   6.619  17.468  19.206  0.0556  0.4328  0.1444
25045OCT     C250090   6.715  17.544  19.693 -0.0743  0.0576 -0.4006
25046OCT     C150091   0.743  17.711  11.762  0.0846  0.3578  0.1416
25046OCT     C250092   0.656  17.329  11.492  0.1662 -0.0262  0.3580
25047OCT     C150093   0.106   5.317  15.710 -0.3450  0.3136 -0.5565
25047OCT     C250094  23.608   5.274  16.123  0.1697  0.1262 -0.0736
25048OCT     C150095  20.961  22.394  19.045  0.3438  0.1361  0.4096
25048OCT     C250096  20.861  22.380  19.518 -0.0386 -0.0694 -0.1304
25049OCT     C150097  11.871  21.016  15.204  0.1071 -0.0192  0.1593
25049OCT     C250098  12.135  21.205  15.549 -0.0091  0.0766 -0.0960
25050OCT     C150099   1.546  17.383  17.261 -0.1379  0.0250  0.1361
25050OCT     C250100   1.869  17.561  16.935 -0.1259  0.0061  0.1032
25051OCT     C150101  17.551  21.671   6.250 -0.1007  0.0209  0.0137
25051OCT     C250102  17.970  21.716   6.072 -0.0059 -0.0917 -0.3868
25052OCT     C150103  15.556   7.633   4.577  0.1143  0.1971  0.2020
25052OCT     C250104  15.582   7.908   4.170  0.2219  0.3381  0.2906
25053OCT     C150105  18.414   3.430   0.090  0.3025 -0.1801 -0.1615
25053OCT     C250106  18.103   3.526   0.506  0.0887  0.1336  0.3044
25054OCT     C150107  16.128   2.872  20.465 -0.0714  0.0932 -0.4478
25054OCT     C250108  16.381   3.003  20.093 -0.0959  0.0378  0.1044
25055OCT     C150109  21.842  20.341  10.870 -0.0672 -0.3155 -0.2375
25055OCT     C250110  21.898  19.973  11.140 -0.1424 -0.0420  0.2741
25056OCT     C150111   9.112  11.761  12.999  0.5031  0.0323 -0.1703
25056OCT     C250112   9.380  11.824  13.343  0.0250  0.3655  0.1046
25057OCT     C150113  17.491  16.658   8.888 -0.1268 -0.0947 -0.1064
25057OCT     C250114  17.979  16.793   8.851  0.0317  0.2894  0.0807
25058OCT     C150115  14.833  11.677  14.513 -0.0470  0.0579 -0.1002
25058OCT     C250116  14.798  11.419  14.925 -0.3138 -0.1698  0.3318
25059OCT     C150117   9.930   0.118   9.672  0.0081 -0.2620  0.0663
25059OCT     C250118   9.583   0.152   9.352 -0.1636  0.0478 -0.1137
25060OCT     C150119  22.058  19.014  11.692 -0.3869  0.1169 -0.2924
25060OCT     C250120  21.648  19.213  11.637 -0.0452 -0.0270  0.1557
25061OCT     C150121  17.031   2.358  22.692  0.1446 -0.1821  0.0453
25061OCT     C250122  17.011   2.563  22.290 -0.3314  0.1889 -0.2374
25062OCT     C150123  14.105  16.306  11.312  0.1432 -0.3290  0.1573
25062OCT     C250124  14.038  16.677  11.008  0.1230  0.4917 -0.0454
25063OCT     C150125  21.315  19.759  21.439  0.4801 -0.3392 -0.1797
25063OCT     C250126  21.123  19.624  21.065  0.0300  0.0212 -0.2411
25064OCT     C150127   8.294  19.561  17.941  0.1889 -0.1517 -0.4113
25064OCT     C250128   8.238  19.498  18.410 -0.3836  0.0845  0.0780
25065OCT     C150129  18.113  11.073   6.682  0.2267  0.0016  0.2912
25065OCT     C250130  17.956  10.970   7.135  0.1419  0.2418 -0.2292
25066OCT     C150131   2.958  23.667  10.641  0.3122 -0.0448  0.2504
25066OCT     C250132   2.990  23.217  10.802  0.2585 -0.0274  0.1356
25067OCT     C150133  11.722  13.163   5.730  0.3961 -0.0612  0.0135
25067OCT     C250134  11.992  13.479   5.518  0.2897 -0.1122  0.3365
25068OCT     C150135   6.551  13.680  17.475 -0.1911 -0.2713  0.2108
25068OCT     C250136   6.452  14.167  17.317  0.1863 -0.0023  0.3492
25069OCT     C150137  18.910  19.382  15.639  0.0577 -0.0714  0.0594
25069OCT     C250138  18.727  19.215  16.072 -0.0622 -0.2058 -0.0072
25070OCT     C150139  19.294  22.409  21.749  0.0929 -0.3963  0.1831
25070OCT     C250140  19.093  22.110  21.395 -0.4370 -0.0865  0.0336
25071OCT     C150141  18.219  12.516   6.324  0.1910  0.1416 -0.0308
25071OCT     C250142  17.801  12.370   6.297  0.1194  0.1052  0.5036
25072OCT     C150143  18.450  22.131   7.143  0.1766  0.2712 -0.1253
25072OCT     C250144  18.288  21.845   6.914 -0.0424  0.5301 -0.1102
25073OCT     C150145  11.074   9.679   3.324  0.2563  0.0494  0.3489
25073OCT     C250146  11.039   9.593   3.751 -0.0922 -0.0351  0.4061
25074OCT     C150147  16.155   5.026  12.178 -0.2433  0.1732  0.0864
25074OCT     C250148  16.010   5.463  12.078  0.2026 -0.3063  0.0358
25075OCT     C150149  22.164   4.579  20.876 -0.1707  0.2694  0.2448
25075OCT     C250150  22.109   4.335  21.286 -0.0853  0.0199 -0.1425
25076OCT     C150151  20.221  15.252   5.232  0.0045  0.0279 -0.0158
25076OCT     C250152  20.525  14.945   4.991  0.2019  0.3991 -0.4681
25077OCT     C150153   7.183  22.811  13.343 -0.0416  0.1560  0.1132
25077OCT     C250154   7.237  22.518  12.993 -0.0598 -0.0679  0.0936
25078OCT     C150155   1.289  17.139   6.005  0.2530  0.1182 -0.1661
25078OCT     C250156   1.687  17.330   6.137 -0.0611 -0.0570 -0.1142
25079OCT     C150157  22.673  14.763  13.003 -0.2013 -0.2911  0.3326
25079OCT     C250158  22.836  15.102  12.700 -0.1782 -0.1376 -0.1370
25080OCT     C150159  15.623   3.374  23.654 -0.3209 -0.1396  0.0936
25080OCT     C250160  15.355   3.639   0.133 -0.3048 -0.1721 -0.3707
25081OCT     C150161   2.838  10.011   3.889  0.0369 -0.0571 -0.3855
25081OCT     C250162   3.291   9.838   4.008 -0.2054  0.0028  0.1612
25082OCT     C150163   4.447   4.085  14.296 -0.3588  0.0573  0.2084
25082OCT     C250164   4.773   4.006  14.546 -0.0579 -0.1201 -0.4089
25083OCT     C150165  11.874   7.025  12.080  0.1502 -0.2090 -0.3724
25083OCT     C250166  12.034   6.876  11.667 -0.4075  0.2299 -0.3023
25084OCT     C150167  18.577   6.152   2.980 -0.2039  0.1811  0.0116
25084OCT     C250168  18.171   5.953   3.158 -0.2499  0.1913  0.1264
25085OCT     C150169  21.298   4.828  20.912 -0.0185 -0.0962 -0.1773
25085OCT     C250170  21.240   4.359  21.080 -0.2738  0.1543 -0.2344
25086OCT     C150171   5.515   3.751  20.732 -0.1621  0.0693 -0.2286
25086OCT     C250172   5.290   3.619  21.182  0.0954 -0.0047  0.2711
25087OCT     C150173  18.875   6.583  13.417  0.2375  0.0704  0.0775
25087OCT     C250174  19.102   6.722  13.108  0.0653 -0.0108  0.3395
25088OCT     C150175   3.038  13.087  15.224 -0.0090  0.1838 -0.2637
25088OCT     C250176   3.435  13.326  15.228 -0.4316  0.3582 -0.0162
25089OCT     C150177  18.574  15.519   7.810 -0.1327 -0.1054 -0.3213
25089OCT     C250178  19.047  15.372   7.756  0.2677  0.3574 -0.2711
25090OCT     C150179   6.224  16.748   9.578 -0.0333 -0.2247 -0.0633
25090OCT     C250180   5.779  16.875   9.534  0.3440 -0.2453  0.1118
25091OCT     C150181  16.975   2.089  23.093  0.2058 -0.1209  0.1554
25091OCT     C250182  17.321   1.973  22.836 -0.0986 -0.0979  0.2370
25092OCT     C150183   5.784  14.755  22.557 -0.2180 -0.0840  0.0069
25092OCT     C250184   5.388  14.670  22.383  0.0629 -0.3594  0.1687
25093OCT     C150185   1.579  21.496  20.266  0.0899 -0.0427 -0.3728
25093OCT     C250186   1.567  21.772  19.897  0.0807  0.1238 -0.1507
25094OCT     C150187  12.479  11.351  23.408 -0.3986  0.5574  0.0055
25094OCT     C250188  12.526  11.602  23.015 -0.0484  0.2652  0.3127
25095OCT     C150189  17.848  14.983   6.429  0.2094  0.2321 -0.1519
25095OCT     C250190  18.327  14.952   6.497 -0.0738 -0.0326  0.0530
25096OCT     C150191  15.500  17.757  12.395 -0.3798 -0.0807 -0.0006
25096OCT     C250192  15.636  17.314  12.291  0.2680  0.1319  0.1996
25097OCT     C150193  19.923  21.367   3.811 -0.0426 -0.1202 -0.1478
25097OCT     C250194  20.131  20.990   3.814  0.1797 -0.2503 -0.0906
25098OCT     C150195  10.631  12.954  13.732 -0.1320  0.2497  0.1538
25098OCT     C250196  10.752  13.394  13.820 -0.3947  0.0001 -0.0281
25099OCT     C150197   1.424   1.471  22.869 -0.1920  0.5898  0.1282
25099OCT     C250198   1.728   1.691  23.125 -0.3484  0.3957  0.3757
25100OCT     C150199   1.569   9.619  14.648 -0.0653  0.3331  0.2158
25100OCT     C250200   1.493   9.137  14.613 -0.2441 -0.0485 -0.2030
25101OCT     C150201  10.839   9.369  22.155  0.2321 -0.3503  0.1520
25101OCT     C250202  10.743   8.930  22.037 -0.1441 -0.0202  0.1465
25102OCT     C150203   9.865   6.232  17.236  0.3240 -0.3505 -0.2813
25102OCT     C250204   9.652   6.637  17.424  0.0648  0.1233  0.0860
25103OCT     C150205  18.004   2.402   6.494  0.0720  0.1893 -0.2136
25103OCT     C250206  17.936   2.471   6.021  0.4263 -0.0765  0.0935
25104OCT     C150207  15.045   7.319  15.214 -0.1226  0.1373  0.1479
25104OCT     C250208  15.184   6.854  15.075 -0.1171 -0.0622  0.0177
25105OCT     C150209  13.084  19.986   1.116 -0.1225  0.1971  0.1124
25105OCT     C250210  13.199  20.066   1.538  0.0747  0.1265 -0.0299
25106OCT     C150211  16.254  10.533   4.029 -0.3000 -0.1194  0.3977
25106OCT     C250212  16.225  10.800   3.672  0.1745  0.1070 -0.3203
25107OCT     C150213  15.583   4.556  19.273  0.1846 -0.2254 -0.2516
25107OCT     C250214  15.524   4.847  19.622  0.3393  0.1923 -0.0582
25108OCT     C150215  20.767  14.462  13.027  0.2238  0.0639 -0.2013
25108OCT     C250216  20.388  14.547  13.270  0.1145 -0.2771  0.2059
25109OCT     C150217  22.147  15.286   1.638 -0.0537 -0.0410  0.0231
25109OCT     C250218  21.665  15.145   1.832  0.0354 -0.0002  0.3173
25110OCT     C150219  16.035  21.606  17.552 -0.0631  0.0607  0.2067
25110OCT     C250220  16.512  21.560  17.388  0.2792 -0.0359  0.2930
25111OCT     C150221  14.471   8.341  15.036 -0.1904  0.0845 -0.1671
25111OCT     C250222  14.787   8.002  15.017 -0.0825 -0.0736  0.2961
25112OCT     C150223   9.727  16.160   6.354  0.0026 -0.1795 -0.1476
25112OCT     C250224   9.545  16.570   6.397  0.2541  0.2008 -0.0872
25113OCT     C150225  17.452  23.575  22.417  0.2008  0.0790  0.2846
25113OCT     C250226  17.897  23.617  22.507 -0.0033 -0.0593 -0.3765
25114OCT     C150227   8.362  17.213  14.681  0.1018  0.1342  0.2826
25114OCT     C250228   8.276  16.746  14.801 -0.0487  0.1453 -0.2366
25115OCT     C150229   5.528   4.474  21.367 -0.5328 -0.2516 -0.0639
25115OCT     C250230   5.958   4.337  21.192  0.1268  0.3577 -0.0965
25116OCT     C150231  16.326   6.271   6.921 -0.1029  0.2566  0.2925
25116OCT     C250232  15.850   6.178   7.091 -0.3969 -0.2725  0.1446
25117OCT     C150233  14.032  20.618   2.044  0.1418 -0.1092  0.3852
25117OCT     C250234  14.467  20.814   1.873 -0.1401  0.1640  0.3952
25118OCT     C150235  12.888  22.080  13.845  0.0151  0.2115 -0.4005
25118OCT     C250236  13.275  21.989  13.609 -0.1470 -0.3509  0.4150
25119OCT     C150237  17.546   8.084   3.151  0.1616 -0.0124 -0.1345
25119OCT     C250238  17.721   8.127   2.699  0.0062 -0.2246  0.1584
25120OCT     C150239   5.863   9.193   7.282 -0.1605 -0.1249  0.1637
25120OCT     C250240   6.135   9.578   7.239  0.2086 -0.2225  0.0469
25121OCT     C150241   2.318   6.457  21.872  0.1209  0.2071 -0.1776
25121OCT     C250242   2.648   6.140  22.041 -0.2177  0.0165  0.1343
25122OCT     C150243  16.019   8.060  17.607  0.2145 -0.0541  0.1815
25122OCT     C250244  16.368   8.323  17.525 -0.0012 -0.2007  0.3865
25123OCT     C150245  10.429   9.870  13.483  0.0411  0.2818  0.2775
25123OCT     C250246  10.342   9.791  13.004  0.0495 -0.1212 -0.3479
25124OCT     C150247   5.077  17.444  16.818 -0.0670 -0.0030 -0.0266
25124OCT     C250248   5.515  17.628  16.843 -0.0042 -0.0127  0.0579
25125OCT     C150249  21.968   8.463   7.283 -0.1692  0.4540  0.1867
25125OCT     C250250  22.321   8.741   7.461  0.2696  0.2697  0.2745
25126OCT     C150251  15.480  12.570  12.750  0.0722  0.0324 -0.1368
25126OCT     C250252  15.447  13.063  12.797 -0.0752 -0.4374  0.0530
25127OCT     C150253  10.873  11.919  17.324 -0.0660  0.0839  0.1569
25127OCT     C250254  10.646  11.699  17.688  0.0823 -0.0902 -0.0619
25128OCT     C150255  19.912  21.672  22.137  0.0033  0.3581 -0.0214
25128OCT     C250256  19.812  21.298  22.447  0.3453  0.0595  0.0165
25129OCT     C150257  21.578   2.344   5.407 -0.3199 -0.0679  0.2335
25129OCT     C250258  21.822   2.127   5.070 -0.2047 -0.1283  0.0660
25130OCT     C150259   7.033  21.478   7.250 -0.2614  0.3482  0.3163
25130OCT     C250260   7.008  21.436   6.776 -0.0552 -0.3570  0.0058
25131OCT     C150261   9.774  13.649   8.875  0.3286 -0.1816  0.0728
25131OCT     C250262   9.776  13.188   8.955  0.1789  0.0440  0.0579
25132OCT     C150263  17.813  23.163  15.107 -0.3759  0.0179 -0.2444
25132OCT     C250264  17.322  23.198  15.029 -0.1158  0.1173 -0.0211
25133OCT     C150265   5.691  15.968  22.092  0.1263 -0.0526  0.2277
25133OCT     C250266   5.839  15.554  22.367  0.0833 -0.0971  0.3934
25134OCT     C150267  12.996  16.278   1.629  0.1312  0.0513 -0.3080
25134OCT     C250268  13.164  16.632   1.328  0.2389 -0.1352 -0.0192
25135OCT     C150269  21.969  13.255  20.746  0.3269  0.2592 -0.1786
25135OCT     C250270  21.881  13.292  21.215  0.2030 -0.2710 -0.0855
25136OCT     C150271   3.698   9.029  10.143  0.3879  0.0656 -0.5230
25136OCT     C250272   3.914   9.202  10.525  0.0298 -0.2766 -0.1120
25137OCT     C150273  18.071   7.800  20.659 -0.1529 -0.1990  0.2134
25137OCT     C250274  17.577   7.726  20.601 -0.1314  0.1090 -0.1929
25138OCT     C150275   0.297   4.695   4.275  0.0088  0.2917 -0.2927
25138OCT     C250276   0.547   4.725   3.889 -0.0327 -0.2155 -0.3063
25139OCT     C150277  16.221  17.890   9.717 -0.0043  0.0684  0.0816
25139OCT     C250278  16.177  18.305   9.833 -0.2509  0.0834  0.0223
25140OCT     C150279  10.354  11.459  11.683  0.0376  0.2774 -0.2940
25140OCT     C250280   9.911  11.410  11.484 -0.1573  0.1732 -0.0996
25141OCT     C150281   0.722   5.563  22.333  0.3658 -0.2777 -0.3675
25141OCT     C250282   0.455   5.371  22.015  0.0176  0.1754 -0.0245
25142OCT     C150283   6.413   5.008   7.867  0.2311 -0.0067 -0.1749
25142OCT     C250284   6.584   5.452   7.960  0.2409  0.2181 -0.0101
25143OCT     C150285   0.608  20.462  20.546 -0.0505 -0.3880  0.0818
25143OCT     C250286   0.808  20.197  20.238 -0.1521  0.2590  0.1460
25144OCT     C150287   9.587  15.674  12.578  0.1005 -0.1104 -0.1314
25144OCT     C250288   9.406  15.964  12.273  0.1646 -0.1237  0.0584
25145OCT     C150289  21.124  17.868  13.576 -0.0495 -0.4442 -0.2034
25145OCT     C250290  21.573  17.915  13.624  0.4245  0.0132 -0.1956
25146OCT     C150291  13.481   9.663  16.531 -0.4206 -0.1428 -0.0813
25146OCT     C250292  13.560   9.930  16.875  0.2081  0.3850  0.2596
25147OCT     C150293   3.566  12.250  22.591  0.5521  0.0737  0.1359
25147OCT     C250294   3.219  12.172  22.330 -0.0285 -0.2142 -0.2038
25148OCT     C150295   9.498   4.193  19.341  0.4171  0.0577  0.0234
25148OCT     C250296   9.414   3.784  19.541  0.1987 -0.0315  0.0655
25149OCT     C150297  21.910  22.610   3.653  0.0591  0.0441  0.1492
25149OCT     C250298  22.345  22.503   3.725 -0.1506 -0.0753 -0.1617
25150OCT     C150299  15.306  22.933  19.879  0.0437 -0.1024 -0.0348
25150OCT     C250300  15.378  23.448  20.004 -0.0385  0.1219 -0.2758
25151OCT     C150301  17.569  20.152  22.782 -0.3363 -0.0138  0.1712
25151OCT     C250302  17.167  19.999  22.888  0.2550 -0.0192 -0.0583
25152OCT     C150303   3.532   7.455  17.729  0.0942  0.2684  0.1606
25152OCT     C250304   3.170   7.282  17.979  0.4241  0.3777 -0.1046
25153OCT     C150305   2.866   2.034   9.733  0.2914 -0.2787  0.1692
25153OCT     C250306   3.286   2.092   9.929  0.2680 -0.2622  0.0842
25154OCT     C150307  10.113  16.584   7.878 -0.0600  0.0636  0.0621
25154OCT     C250308   9.907  16.330   8.169 -0.2603 -0.0222 -0.0156
25155OCT     C150309  16.020  23.195   8.402  0.2389  0.2872 -0.0434
25155OCT     C250310  16.304  23.453   8.240  0.0612 -0.0302  0.1404
25156OCT     C150311   8.431  18.136   9.468 -0.2577  0.4723 -0.0554
25156OCT     C250312   8.081  18.309   9.216  0.1280 -0.2669 -0.1885
25157OCT     C150313   7.462   2.673   8.831  0.1857  0.1581 -0.2962
25157OCT     C250314   7.142   2.813   9.174  0.1039 -0.3223 -0.3406
25158OCT     C150315   1.110  22.319  15.598  0.0909 -0.1520 -0.0086
25158OCT     C250316   0.889  22.162  15.252  0.0210 -0.0187  0.0753
25159OCT     C150317  18.790   6.796  17.757 -0.3040  0.1646  0.1765
25159OCT     C250318  18.964   7.221  17.764  0.0047  0.1451 -0.0396
25160OCT     C150319   1.659   7.142  14.911 -0.0507 -0.0473  0.0567
25160OCT     C250320   1.995   7.269  15.243  0.0608 -0.2795  0.1382
25161OCT     C150321  17.589   4.001   3.167  0.4081  0.1084 -0.1448
25161OCT     C250322  17.771   4.347   3.426 -0.0668 -0.1829 -0.0942
25162OCT     C150323  10.517  22.824   0.303  0.1786  0.3483 -0.0362
25162OCT     C250324  10.519  22.366   0.474 -0.2825  0.3427 -0.2195
25163OCT     C150325  17.739  13.858   9.058  0.1523  0.2848 -0.1607
25163OCT     C250326  17.437  13.697   9.427 -0.0956 -0.0638 -0.3176
25164OCT     C150327   0.231   5.991   4.397  0.0262  0.0270  0.0336
25164OCT     C250328   0.295   6.234   4.066  0.2179  0.0526  0.2521
25165OCT     C150329   9.016   0.555   7.346 -0.1967  0.0678 -0.1700
25165OCT     C250330   9.137   0.513   6.918  0.2244 -0.0426  0.2447
25166OCT     C150331   3.701  21.158   8.805 -0.0504  0.1397  0.0669
25166OCT     C250332   4.149  21.101   8.948  0.2176  0.2084 -0.3152
25167OCT     C150333   7.231  16.800   2.309 -0.0165  0.1437 -0.1260
25167OCT     C250334   7.210  16.739   1.818 -0.1321  0.0928  0.1674
25168OCT     C150335  17.564   1.331  16.922 -0.0215  0.1459  0.0519
25168OCT     C250336  17.765   1.686  16.697  0.0572 -0.1872 -0.1498
25169OCT     C150337   4.827  15.700  13.997 -0.2125  0.1368 -0.4252
25169OCT     C250338   4.831  15.913  14.416  0.2374  0.2975 -0.0042
25170OCT     C150339  22.686  20.046  20.543  0.0893 -0.0360  0.2320
25170OCT     C250340  22.658  20.008  20.956  0.0057 -0.0215 -0.1592
25171OCT     C150341  10.327  13.082  18.944 -0.1647  0.0436 -0.0708
25171OCT     C250342  10.034  13.242  18.573  0.0791 -0.0831 -0.1207
25172OCT     C150343   7.907  18.964  12.699  0.0037 -0.3720  0.3704
25172OCT     C250344   7.645  18.978  12.361 -0.3660  0.1749  0.0000
25173OCT     C150345   7.914  20.268  16.535 -0.2454 -0.0469 -0.0149
25173OCT     C250346   8.033  20.557  16.238  0.0737 -0.0323  0.1656
25174OCT     C150347   9.696   5.703   8.567  0.0961  0.2030 -0.1395
25174OCT     C250348  10.108   5.854   8.444 -0.3672 -0.0477 -0.0790
25175OCT     C150349  11.400  14.051   1.356  0.2961 -0.1161  0.1366
25175OCT     C250350  11.788  13.852   1.262  0.1407  0.1095  0.3570
25176OCT     C150351   2.578   9.499  10.637 -0.0049  0.0659 -0.4078
25176OCT     C250352   2.608   9.457  11.102  0.2213  0.1403 -0.0928
25177OCT     C150353  14.342   6.884  19.554 -0.3234 -0.0531  0.0445
25177OCT     C250354  14.537   6.474  19.600 -0.2415  0.2393  0.4304
25178OCT     C150355   0.095  23.049   3.143  0.6455 -0.0564 -0.1234
25178OCT     C250356  23.531  23.138   2.752  0.2017 -0.0343 -0.1924
25179OCT     C150357   9.934  16.810   1.877 -0.3906  0.0144  0.0898
25179OCT     C250358   9.675  16.670   1.523  0.1012 -0.1526  0.0666
25180OCT     C150359  11.191   1.014   3.724  0.0258  0.3854  0.3737
25180OCT     C250360  11.193   1.422   3.809 -0.0016 -0.1166 -0.1519
25181OCT     C150361   2.106   8.882  18.969  0.3455 -0.1620 -0.1335
25181OCT     C250362   1.873   8.892  18.556 -0.2327 -0.5177 -0.1116
25182OCT     C150363   6.869   8.644   0.352  0.0372  0.1855 -0.2319
25182OCT     C250364   7.201   8.388   0.203  0.0863  0.3017 -0.0951
25183OCT     C150365  14.817  20.799  18.712 -0.1789 -0.0891 -0.0859
25183OCT     C250366  14.817  20.905  19.124 -0.2204  0.1686  0.2631
25184OCT     C150367   1.694  20.003  22.187  0.0047 -0.1849  0.1722
25184OCT     C250368   1.332  20.151  22.378  0.2411 -0.3862 -0.1690
25185OCT     C150369  12.687  10.160   9.435  0.2995  0.0585 -0.1025
25185OCT     C250370  13.073   9.900   9.325 -0.3687  0.0166 -0.0601
25186OCT     C150371   9.628  21.772  14.012 -0.0147 -0.0688 -0.0183
25186OCT     C250372  10.014  21.976  13.827 -0.0226 -0.0836  0.0612
25187OCT     C150373  10.098   4.421   7.878 -0.1580 -0.2155  0.3036
25187OCT     C250374  10.195   4.012   7.655  0.1363  0.1689 -0.2797
25188OCT     C150375  18.774  12.372   9.928  0.3086 -0.1084  0.1112
25188OCT     C250376  19.272  12.426  10.055  0.1030  0.0362  0.0787
25189OCT     C150377  20.078  17.704   3.474 -0.2945 -0.5142  0.1604
25189OCT     C250378  19.773  18.059   3.450  0.0283  0.0106 -0.0167
25190OCT     C150379  16.555  11.615  10.377 -0.2739 -0.0175  0.2083
25190OCT     C250380  16.684  12.012  10.286 -0.2395 -0.2836  0.1928
25191OCT     C150381  22.200   4.604  13.399  0.1306 -0.3133 -0.2445
25191OCT     C250382  22.432   4.286  13.488  0.1297  0.0270 -0.0093
25192OCT     C150383  13.467  22.356  11.562 -0.2102  0.0337 -0.0907
25192OCT     C250384  13.359  21.997  11.271 -0.1500 -0.1486  0.2828
25193OCT     C150385  14.083  18.456  18.666 -0.0032  0.2449 -0.0104
25193OCT     C250386  14.311  18.380  18.256 -0.1677  0.2241 -0.1087
25194OCT     C150387   1.583  16.438  13.081 -0.0492 -0.1569 -0.0180
25194OCT     C250388   1.411  16.847  13.218 -0.1172 -0.2071 -0.0023
25195OCT     C150389  15.819  13.619  17.267  0.1559  0.0706 -0.1123
25195OCT     C250390  16.039  14.046  17.326  0.1031  0.0338 -0.0110
25196OCT     C150391   1.052  17.693  14.972 -0.1413 -0.2190  0.0934
25196OCT     C250392   1.020  17.224  15.053  0.0133 -0.1704 -0.3482
25197OCT     C150393  20.355   0.972   2.615 -0.0341 -0.0447  0.0489
25197OCT     C250394  20.056   0.750   2.902 -0.0233  0.1489 -0.6137
25198OCT     C150395  19.942  20.196  11.985  0.0276  0.0714  0.2223
25198OCT     C250396  19.715  20.481  11.571  0.0047 -0.0096 -0.0802
25199OCT     C150397   2.669   2.076  10.601 -0.2295 -0.0224 -0.0033
25199OCT     C250398   2.281   1.783  10.682  0.0322 -0.3243  0.0343
25200OCT     C150399   4.193   4.556  16.235 -0.1709  0.5457 -0.4245
25200OCT     C250400   3.797   4.693  16.033  0.1967  0.0097  0.1240
25201OCT     C150401  22.404  20.753   9.251  0.0748  0.0191 -0.0558
25201OCT     C250402  22.619  20.799   8.877 -0.0582 -0.1779 -0.0931
25202OCT     C150403  11.037   4.691  14.977  0.2742 -0.2104 -0.1516
25202OCT     C250404  11.118   5.131  15.027  0.0664 -0.1628 -0.3036
25203OCT     C150405  18.950  16.642  11.414  0.2321  0.1381  0.2950
25203OCT     C250406  19.389  16.778  11.398 -0.1177  0.0212 -0.3329
25204OCT     C150407   9.305  12.510  19.229 -0.0148  0.0976  0.2357
25204OCT     C250408   9.135  12.197  19.509  0.1189 -0.2898 -0.0562
25205OCT     C150409  15.970  17.312  10.934  0.1929 -0.3285 -0.5855
25205OCT     C250410  15.894  17.059  10.582  0.0135 -0.2757  0.3238
25206OCT     C150411   5.193   0.683   2.309 -0.0012 -0.1558  0.2702
25206OCT     C250412   4.978   1.110   2.481  0.2229  0.0681 -0.0108
25207OCT     C150413  17.304   9.209  16.599 -0.1158  0.2138 -0.1359
25207OCT     C250414  17.294   9.375  17.045  0.5850 -0.3609  0.2192
25208OCT     C150415  13.861  12.287   1.054  0.2803 -0.2405 -0.0339
25208OCT     C250416  14.101  12.504   0.701 -0.0735 -0.1172  0.3445
25209OCT     C150417   7.396  12.123   3.355  0.1218 -0.0063  0.2899
25209OCT     C250418   7.774  11.978   3.653  0.0551  0.1584 -0.3147
25210OCT     C150419   5.889  14.673   5.266  0.0987 -0.2286  0.0610
25210OCT     C250420   5.859  14.680   4.789 -0.3142 -0.2162  0.0691
25211OCT     C150421  12.875   9.100  11.910 -0.0522 -0.2020  0.0037
25211OCT     C250422  13.224   9.375  12.061  0.0595 -0.1697  0.1848
25212OCT     C150423  21.342   7.776  15.249 -0.0637  0.0286 -0.6438
25212OCT     C250424  21.700   8.025  15.062 -0.1263 -0.2210  0.3624
25213OCT     C150425  19.525  19.330  21.450  0.0843 -0.0927 -0.1515
25213OCT     C250426  19.655  19.330  20.994 -0.2027 -0.0629  0.0565
25214OCT     C150427  21.066  14.897  23.543  0.0533  0.3184 -0.1889
25214OCT     C250428  21.029  14.447  23.411  0.0142 -0.2414  0.0240
25215OCT     C150429  17.394   6.253  12.074 -0.0648 -0.3324 -0.0562
25215OCT     C250430  17.227   6.697  11.899  0.2095 -0.0081 -0.0318
25216OCT     C150431   3.398  18.617  23.334  0.0960  0.4750  0.2776
25216OCT     C250432   3.053  18.355  23.302 -0.0804  0.0136 -0.1404
25217OCT     C150433   4.687   9.432   9.030 -0.3508 -0.5046  0.2803
25217OCT     C250434   4.617   9.626   8.646 -0.2963 -0.0960  0.0468
25218OCT     C150435  20.930  13.831  17.236 -0.0061 -0.1843  0.4795
25218OCT     C250436  20.528  14.062  17.084  0.3400  0.0757  0.0847
25219OCT     C150437   7.801  20.479   9.745 -0.0805 -0.1769  0.1431
25219OCT     C250438   8.280  20.520   9.618  0.1426  0.0705  0.1284
25220OCT     C150439  17.855   2.532   9.705 -0.2361 -0.0542  0.0698
25220OCT     C250440  18.011   2.769  10.103 -0.1167  0.1043 -0.0817
25221OCT     C150441  18.330  15.369   1.266  0.1817  0.0454 -0.0023
25221OCT     C250442  18.470  15.804   1.397  0.2528 -0.0974 -0.0320
25222OCT     C150443  15.637  21.184   9.232 -0.0613  0.1014 -0.4719
25222OCT     C250444  15.431  21.383   8.863  0.3721 -0.0067 -0.1100
25223OCT     C150445   0.895  20.305  15.547 -0.2220  0.0668 -0.1970
25223OCT     C250446   0.623  20.663  15.250 -0.2355  0.1090 -0.2255
25224OCT     C150447   0.856   4.173   9.834  0.1803  0.3020 -0.1866
25224OCT     C250448   1.129   4.184  10.241 -0.6376 -0.0008  0.4334
25225OCT     C150449   3.744  21.790  15.391 -0.3945 -0.3567 -0.2211
25225OCT     C250450   3.391  21.919  15.723 -0.0707  0.0623  0.3603
25226OCT     C150451  16.433  19.854  13.357  0.3142 -0.0111  0.3212
25226OCT     C250452  16.784  20.219  13.535 -0.0121  0.1102 -0.0044
25227OCT     C150453  19.601  16.291  23.034  0.2528 -0.0058 -0.0342
25227OCT     C250454  19.875  16.584  22.817  0.1768 -0.0933  0.2678
25228OCT     C150455  19.896  17.393  23.574 -0.1664  0.1720  0.0285
25228OCT     C250456  19.866  17.869  23.422 -0.0136  0.2675 -0.1709
25229OCT     C150457  15.601   2.226  23.309 -0.2109  0.3349  0.0892
25229OCT     C250458  15.795   2.627  23.155 -0.2406  0.1267 -0.1304
25230OCT     C150459  21.224  15.274  10.047  0.1964 -0.0864 -0.2917
25230OCT     C250460  21.290  15.121  10.513 -0.5092 -0.0055 -0.1180
25231OCT     C150461   6.490   4.532  10.153  0.1897  0.2347  0.3715
25231OCT     C250462   6.949   4.464  10.136  0.0125  0.1674  0.2524
25232OCT     C150463   4.493  20.223  11.798  0.1717  0.2577 -0.3258
25232OCT     C250464   4.347  19.767  11.690 -0.0773  0.2629  0.1227
25233OCT     C150465  22.833   0.273  11.413 -0.2167  0.0505 -0.1810
25233OCT     C250466  22.822  23.719  11.794 -0.0647 -0.2169  0.0494
25234OCT     C150467   8.175  14.041  15.496 -0.0100  0.1559  0.4293
25234OCT     C250468   8.120  13.964  15.971 -0.0907 -0.0849 -0.1782
25235OCT     C150469   1.879   1.242   7.234  0.0317  0.0949 -0.0238
25235OCT     C250470   1.982   0.972   7.568  0.2555  0.2659  0.1160
25236OCT     C150471  13.944  11.027   6.963  0.0421 -0.0084 -0.7002
25236OCT     C250472  13.824  10.879   7.404  0.1337 -0.0960  0.0707
25237OCT     C150473   5.839   7.648  19.262  0.4052 -0.0561  0.2834
25237OCT     C250474   5.408   7.686  19.468 -0.1502 -0.0453  0.1808
25238OCT     C150475  20.068  21.985  18.371 -0.1731 -0.3801  0.2764
25238OCT     C250476  20.045  22.481  18.440  0.0195  0.1632 -0.1747
25239OCT     C150477   2.732   0.905  16.033  0.1120  0.0106  0.1777
25239OCT     C250478   2.812   0.477  15.911 -0.2739 -0.1831 -0.0562
25240OCT     C150479  19.607  20.585  23.047  0.2056 -0.1364 -0.2473
25240OCT     C250480  19.685  20.781  23.451  0.1313 -0.0137  0.0232
25241OCT     C150481   0.333   1.125   8.469 -0.1776 -0.2498  0.0278
25241OCT     C250482   0.383   0.690   8.713 -0.1036  0.0576  0.0313
25242OCT     C150483  16.113  15.217   5.910  0.0123  0.0957  0.2103
25242OCT     C250484  16.517  14.985   5.814  0.0166 -0.1494  0.0720
25243OCT     C150485  20.223   9.063   0.144 -0.3420  0.1022  0.0988
25243OCT     C250486  20.474   8.761   0.423 -0.2655 -0.1315 -0.1519
25244OCT     C150487  11.648  20.422   1.580  0.0995  0.1400  0.0314
25244OCT     C250488  11.712  20.870   1.562 -0.0214  0.0588  0.0895
25245OCT     C150489  15.134  15.406  15.262  0.0713  0.0724 -0.1138
25245OCT     C250490  15.023  15.781  15.029 -0.1410  0.0700 -0.1050
25246OCT     C150491  12.359   7.833   5.332  0.0891  0.0074 -0.1743
25246OCT     C250492  11.989   8.002   5.157 -0.3636 -0.1296  0.0097
25247OCT     C150493   7.191   0.760  16.786  0.0724 -0.1367 -0.2602
25247OCT     C250494   7.546   0.553  17.061 -0.1732 -0.0523 -0.1397
25248OCT     C150495   4.536  21.376  19.078 -0.4365  0.2021 -0.2166
25248OCT     C250496   4.898  21.299  19.380  0.0669  0.0888 -0.2678
25249OCT     C150497   6.773   7.235  11.925  0.4078  0.1410  0.0701
25249OCT     C250498   7.224   7.117  11.799 -0.1779 -0.1770  0.0126
25250OCT     C150499  18.531  20.620  20.515  0.0503  0.0906 -0.0089
25250OCT     C250500  18.648  20.255  20.267  0.3813 -0.0762 -0.0932
25251OCT     C150501  16.764   9.062   9.876  0.3407  0.0241 -0.1019
25251OCT     C250502  16.332   9.248   9.813  0.0196 -0.0253 -0.0633
25252OCT     C150503  20.323   6.740   5.537  0.4833 -0.2456 -0.0006
25252OCT     C250504  19.883   6.732   5.395  0.4758 -0.0810  0.1662
25253OCT     C150505  11.879   6.005  21.907  0.1666 -0.6967  0.1838
25253OCT     C250506  11.717   5.587  22.083  0.0035  0.1591 -0.4229
25254OCT     C150507  17.029  16.648   5.252 -0.2693  0.0050 -0.3246
25254OCT     C250508  17.188  16.344   5.609 -0.0938 -0.0372  0.0004
25255OCT     C150509   4.392  21.956  20.069 -0.0863  0.1510 -0.2426
25255OCT     C250510   4.518  22.224  20.406 -0.5898  0.1059  0.0164
25256OCT     C150511   8.269   3.146   8.252 -0.0814 -0.0678  0.1610
25256OCT     C250512   7.977   3.436   8.451 -0.1105 -0.0029 -0.1983
25257OCT     C150513  21.831   0.510  16.891  0.1182  0.0128 -0.3067
25257OCT     C250514  21.444   0.652  17.085 -0.1229  0.1476 -0.1068
25258OCT     C150515   5.937   4.553  13.664  0.2952  0.0772  0.0171
25258OCT     C250516   5.805   4.127  13.587 -0.2755  0.2176 -0.0625
25259OCT     C150517   6.512  10.142   6.295 -0.2791  0.3690  0.4390
25259OCT     C250518   6.524   9.872   5.882  0.4381 -0.1942  0.2357
25260OCT     C150519  18.906   3.153   2.528 -0.1298  0.1895  0.0447
25260OCT     C250520  19.053   3.124   2.968 -0.0050  0.0787 -0.5355
25261OCT     C150521  17.472   2.664   5.115  0.1278  0.1744 -0.0313
25261OCT     C250522  17.164   2.330   5.268  0.1082  0.0803  0.1332
25262OCT     C150523  16.499  22.773  12.709  0.3337 -0.1565 -0.2848
25262OCT     C250524  16.126  22.520  12.714  0.3512 -0.1940 -0.1071
25263OCT     C150525  10.646   5.292  13.743 -0.3211  0.0114 -0.1992
25263OCT     C250526  10.202   5.193  13.802  0.0735  0.3834  0.1604
25264OCT     C150527   6.933  10.566   3.415  0.0070  0.3916  0.2700
25264OCT     C250528   7.252  10.253   3.354  0.2321 -0.0497  0.0320
25265OCT     C150529  14.270  11.806  19.351  0.0141 -0.2228 -0.1500
25265OCT     C250530  14.562  11.670  19.698 -0.2015 -0.2640 -0.1345
25266OCT     C150531  18.033   2.536  11.091 -0.0118  0.0085 -0.2271
25266OCT     C250532  17.595   2.726  10.994  0.4520  0.0059  0.0666
25267OCT     C150533  13.332   5.411   7.436 -0.3446  0.2493 -0.2746
25267OCT     C250534  13.777   5.417   7.661  0.0261 -0.2125  0.0497
25268OCT     C150535  15.198   1.063  13.585  0.3164 -0.1853  0.1973
25268OCT     C250536  14.879   1.250  13.266  0.4287 -0.0099 -0.3288
25269OCT     C150537   1.421   3.322  13.726 -0.0241  0.0042 -0.1761
25269OCT     C250538   1.382   2.875  13.567  0.6083  0.1683 -0.1313
25270OCT     C150539  10.723   8.808  11.137 -0.0874  0.2228  0.0543
25270OCT     C250540  11.055   8.590  11.439  0.3413  0.3171  0.0420
25271OCT     C150541  21.283  12.887  14.667 -0.0575  0.0617  0.0667
25271OCT     C250542  21.062  12.598  14.968  0.2195  0.0128 -0.0508
25272OCT     C150543   1.679   9.080  11.775 -0.0535  0.0001 -0.0082
25272OCT     C250544   1.904   8.811  11.492  0.3305  0.1067 -0.1676
25273OCT     C150545   3.391  10.503   7.721 -0.3194 -0.0557  0.0438
25273OCT     C250546   3.079  10.215   7.874  0.2791  0.1970  0.1900
25274OCT     C150547   3.314   5.315   4.541  0.1431  0.1704 -0.2560
25274OCT     C250548   3.149   5.612   4.305 -0.4283  0.3465 -0.0557
25275OCT     C150549   7.138   6.345  19.166  0.2378  0.1422 -0.0045
25275OCT     C250550   6.888   6.067  18.850 -0.3055  0.2499  0.3572
25276OCT     C150551   1.079  19.907  17.896 -0.2458  0.2467  0.3223
25276OCT     C250552   1.371  20.165  18.183  0.1947 -0.3199 -0.0767
25277OCT     C150553   7.197  23.381  14.060  0.1408 -0.2506 -0.0025
25277OCT     C250554   7.503  23.684  13.868 -0.1134  0.1477 -0.0990
25278OCT     C150555   8.127  19.028  10.771 -0.0050 -0.1816 -0.3344
25278OCT     C250556   8.104  19.501  10.961  0.2009 -0.4799  0.0505
25279OCT     C150557  13.985  13.325   6.233  0.1860  0.1288 -0.0449
25279OCT     C250558  13.965  13.519   5.870  0.0412 -0.1292  0.2580
25280OCT     C150559   5.584   6.277  20.527  0.2941  0.0517  0.2497
25280OCT     C250560   5.299   5.938  20.461  0.0572  0.0474  0.1053
25281OCT     C150561   1.616  16.049  16.430 -0.0220 -0.0279 -0.2974
25281OCT     C250562   1.363  16.403  16.293 -0.0395  0.2196  0.1848
25282OCT     C150563   4.279  12.804  14.014  0.2152 -0.2211  0.0291
25282OCT     C250564   4.075  13.244  13.903 -0.1041  0.1423 -0.1524
25283OCT     C150565  22.045  17.631   1.697  0.1380  0.1966  0.0615
25283OCT     C250566  21.918  17.509   1.273  0.1646  0.1075 -0.2608
25284OCT     C150567   9.399   1.266   6.274 -0.0092  0.1868  0.1248
25284OCT     C250568   9.173   1.645   6.501 -0.2793 -0.3218  0.0034
25285OCT     C150569  18.700  11.926  18.497  0.6015  0.0726  0.2495
25285OCT     C250570  18.829  11.450  18.349 -0.4275 -0.2696  0.4705
25286OCT     C150571  19.048   2.606   8.409 -0.0953  0.0457  0.0176
25286OCT     C250572  19.094   2.453   8.858 -0.2611 -0.4495 -0.0534
25287OCT     C150573  14.205   8.317  19.548  0.2281 -0.1360 -0.2186
25287OCT     C250574  14.510   7.938  19.694  0.1573 -0.0409  0.1127
25288OCT     C150575  18.681   2.346   5.046 -0.0927  0.3186  0.0437
25288OCT     C250576  18.499   1.945   4.921 -0.0224 -0.4814  0.4437
25289OCT     C150577   2.565  18.695   5.999  0.1487  0.1396  0.2289
25289OCT     C250578   2.712  18.461   6.377 -0.0083  0.1650  0.0513
25290OCT     C150579  13.415  10.048  23.382 -0.3394  0.1869 -0.1518
25290OCT     C250580  13.432  10.053  22.939 -0.1421  0.4001  0.0361
25291OCT     C150581  18.653   1.302  20.950  0.1980 -0.0045 -0.2884
25291OCT     C250582  18.972   1.637  20.945  0.1011 -0.1776  0.0397
25292OCT     C150583  14.450   6.483   5.893 -0.0089  0.2755 -0.3990
25292OCT     C250584  14.733   6.205   6.092 -0.2799  0.0903  0.1392
25293OCT     C150585   2.616  14.944   5.000 -0.2974 -0.1334  0.3028
25293OCT     C250586   2.343  14.561   5.109 -0.0755 -0.0893  0.3159
25294OCT     C150587  11.723  16.089   0.242  0.0324 -0.0644 -0.2378
25294OCT     C250588  11.311  16.194   0.459  0.2052 -0.0152  0.0091
25295OCT     C150589   3.640  14.699   9.616 -0.0805 -0.1014  0.0397
25295OCT     C250590   3.808  14.319   9.838  0.0723 -0.1299 -0.2509
25296OCT     C150591  23.321   0.487  14.277 -0.1764  0.0569 -0.2786
25296OCT     C250592  23.631   0.820  14.174  0.1424  0.1036 -0.2514
25297OCT     C150593   2.044   2.135  18.490 -0.1609 -0.4128  0.3216
25297OCT     C250594   1.754   2.414  18.714  0.2172 -0.2727  0.1903
25298OCT     C150595  19.114  20.145   7.986 -0.2439 -0.3169  0.0751
25298OCT     C250596  19.323  20.162   8.386  0.2029  0.2391 -0.0098
25299OCT     C150597  19.484   8.231   3.050  0.3134 -0.4730 -0.1065
25299OCT     C250598  19.966   8.224   3.120 -0.1913 -0.3680 -0.1701
25300OCT     C150599  22.328  11.207  14.803 -0.4597  0.1004 -0.1232
25300OCT     C250600  22.213  11.730  14.938  0.1046  0.0424 -0.3460
25301OCT     C150601  19.924   3.199  12.758 -0.2366 -0.1115  0.0568
25301OCT     C250602  20.067   3.602  12.577  0.0011 -0.2025 -0.1803
25302OCT     C150603  21.196  14.492  19.738 -0.2009 -0.2645  0.0567
25302OCT     C250604  20.951  14.669  20.107 -0.1379  0.0998  0.0788
25303OCT     C150605   0.676   8.688   3.905  0.2595  0.1800 -0.1159
25303OCT     C250606   0.983   8.521   3.644 -0.1324 -0.0188 -0.1476
25304OCT     C150607  21.417   8.305   6.582 -0.0889  0.2682 -0.0451
25304OCT     C250608  21.721   8.246   6.317  0.1954  0.0367 -0.2564
25305OCT     C150609  22.266   7.622  22.304 -0.3984  0.0662  0.0498
25305OCT     C250610  22.747   7.631  22.418 -0.2253  0.5330 -0.1286
25306OCT     C150611   2.524  22.342   6.053  0.0112  0.2809 -0.2934
25306OCT     C250612   2.605  22.517   6.446 -0.0722  0.1634  0.0448
25307OCT     C150613  14.244  18.553  22.394  0.3236  0.1458  0.0680
25307OCT     C250614  14.089  18.163  22.182 -0.1215 -0.0526  0.0374
25308OCT     C150615   1.263  19.337  23.518  0.0756 -0.0669  0.0960
25308OCT     C250616   1.660  19.485  23.409 -0.1286  0.1004  0.1451
25309OCT     C150617  18.602  20.093  12.681  0.0501 -0.0266  0.0595
25309OCT     C250618  18.409  19.994  13.098  0.0305  0.3429 -0.0206
25310OCT     C150619   7.097   2.877  21.331  0.2715 -0.0939  0.2880
25310OCT     C250620   7.447   3.153  21.579  0.2963  0.0623  0.0924
25311OCT     C150621   7.630   0.795  21.600  0.1097  0.2303 -0.4765
25311OCT     C250622   7.157   0.678  21.748 -0.2578 -0.1736  0.1337
25312OCT     C150623  22.916   7.189   2.407 -0.1631  0.1949 -0.0290
25312OCT     C250624  23.236   7.137   2.136 -0.0045 -0.1031 -0.0948
25313OCT     C150625   2.536   9.547  23.025 -0.1619 -0.5835 -0.3815
25313OCT     C250626   2.575   9.338  23.488 -0.2852  0.2544 -0.1766
25314OCT     C150627  15.628   5.885  18.267  0.0370 -0.0586  0.1209
25314OCT     C250628  15.867   5.725  18.631 -0.3261 -0.1921 -0.0862
25315OCT     C150629  21.143  20.595   0.438  0.3645  0.1124 -0.0720
25315OCT     C250630  21.601  20.534   0.557  0.0194  0.3349  0.1246
25316OCT     C150631   2.988  10.187  12.511 -0.0551  0.3757 -0.1555
25316OCT     C250632   2.522  10.213  12.299 -0.5368  0.3132 -0.2070
25317OCT     C150633   7.122   1.982   7.685 -0.3267 -0.0036  0.0058
25317OCT     C250634   7.040   2.355   7.535  0.3904 -0.1207  0.1694
25318OCT     C150635   9.206  12.126   7.974  0.2624 -0.0456  0.2139
25318OCT     C250636   9.404  11.810   7.691 -0.1195 -0.2883 -0.2450
25319OCT     C150637   0.280   5.565  14.403  0.0225 -0.1197 -0.1765
25319OCT     C250638   0.207   5.457  13.965  0.0604 -0.6534 -0.0722
25320OCT     C150639  10.144   5.686  21.114  0.0512  0.1680  0.0665
25320OCT     C250640   9.974   6.095  20.981 -0.2049 -0.1507  0.0581
25321OCT     C150641   5.702  14.369  10.466  0.0169  0.0055 -0.1268
25321OCT     C250642   5.603  14.695  10.782 -0.0970  0.0565 -0.1396
25322OCT     C150643  18.172   9.962  18.735 -0.0626  0.0806 -0.0344
25322OCT     C250644  18.133   9.616  18.525 -0.2119  0.0787 -0.0523
25323OCT     C150645  10.583  12.609   8.812 -0.0721 -0.1461 -0.2387
25323OCT     C250646  10.706  12.631   8.381 -0.3228  0.0456 -0.3515
25324OCT     C150647  17.606  15.820  12.743  0.0954 -0.0936 -0.5392
25324OCT     C250648  17.452  15.448  12.507  0.1653  0.0449 -0.3198
25325OCT     C150649   4.094  17.632   6.844 -0.1276 -0.0588  0.2066
25325OCT     C250650   3.849  18.011   6.725  0.0376 -0.1768 -0.0070
25326OCT     C150651   2.336  17.637  12.679 -0.2345 -0.0343 -0.2108
25326OCT     C250652   1.990  17.312  12.591 -0.0238  0.0803 -0.2393
25327OCT     C150653  14.859   0.992  16.451  0.1161  0.0646  0.1253
25327OCT     C250654  14.507   1.270  16.608 -0.0972 -0.1293 -0.0828
25328OCT     C150655   6.917  20.140  17.444 -0.3001 -0.0953 -0.0768
25328OCT     C250656   7.010  19.729  17.670  0.0626  0.0066  0.0860
25329OCT     C150657   0.684   1.407   8.652  0.4349  0.1690 -0.0199
25329OCT     C250658   1.121   1.176   8.747  0.3246 -0.1229  0.0197
25330OCT     C150659  20.179   3.734  13.458  0.2807  0.1791  0.0314
25330OCT     C250660  19.747   3.524  13.370  0.0266 -0.3710 -0.0610
25331OCT     C150661   1.664  13.694   8.490 -0.0174  0.4078  0.1301
25331OCT     C250662   1.721  14.103   8.808 -0.1944  0.0387 -0.0103
25332OCT     C150663  20.526  21.878  16.426 -0.0303 -0.0426  0.0587
25332OCT     C250664  21.013  21.956  16.427 -0.0721  0.0674  0.4163
25333OCT     C150665  16.780   6.433   1.150  0.1476 -0.1919  0.2797
25333OCT     C250666  16.418   6.447   1.469 -0.0015 -0.3375  0.2333
25334OCT     C150667  22.418  11.145  11.990  0.3963 -0.5190 -0.0125
25334OCT     C250668  22.216  10.779  12.182  0.0203 -0.0805  0.0079
25335OCT     C150669   8.937   3.104   0.767 -0.3328 -0.1036 -0.0013
25335OCT     C250670   8.772   3.039   1.250  0.3122  0.1371  0.3947
25336OCT     C150671  21.067   1.248   4.029 -0.1218  0.2369 -0.1985
25336OCT     C250672  20.635   1.046   4.079 -0.1723 -0.1228  0.3873
25337OCT     C150673   3.316  16.906  12.806 -0.2635 -0.2716  0.1306
25337OCT     C250674   3.581  17.212  13.054  0.2491 -0.1064 -0.1721
25338OCT     C150675  14.197   8.462  21.036 -0.0846  0.0559 -0.0809
25338OCT     C250676  13.889   8.577  21.374  0.2080 -0.1149 -0.2019
25339OCT     C150677  20.256  18.069   0.489  0.1671 -0.0576 -0.0363
25339OCT     C250678  20.195  17.726   0.125  0.0440 -0.0684  0.1069
25340OCT     C150679  15.340  15.159  22.254 -0.0818  0.1081  0.3135
25340OCT     C250680  15.195  14.787  22.050  0.2477  0.2795 -0.1013
25341OCT     C150681  14.807  11.980   3.192  0.3154 -0.1892 -0.2391
25341OCT     C250682  15.113  12.270   3.402 -0.2157 -0.0500  0.2121
25342OCT     C150683  20.234  12.781  10.787 -0.3387 -0.1719 -0.1139
25342OCT     C250684  20.426  13.076  11.126  0.0648 -0.2860  0.0760
25343OCT     C150685  14.039  17.577  22.071 -0.1257  0.0374 -0.0687
25343OCT     C250686  13.689  17.374  22.323 -0.3107  0.0669 -0.2167
25344OCT     C150687   7.165  13.432  11.755 -0.0311 -0.2079  0.1090
25344OCT     C250688   6.791  13.131  11.885  0.0334 -0.3522 -0.1113
25345OCT     C150689  21.648  19.607  10.949  0.1322  0.1289  0.0111
25345OCT     C250690  21.765  19.161  10.817 -0.1999  0.3697  0.2691
25346OCT     C150691  20.915  22.850   8.437  0.1754 -0.1473 -0.4638
25346OCT     C250692  21.091  22.725   8.843  0.1975  0.0062 -0.0930
25347OCT     C150693   3.045   9.541  16.925 -0.1231  0.2673 -0.2169
25347OCT     C250694   2.928   9.982  16.886  0.2610 -0.1137 -0.0743
25348OCT     C150695   3.179  11.870  11.621  0.2393 -0.1122  0.4041
25348OCT     C250696   3.402  12.191  11.378  0.3570 -0.2436 -0.1728
25349OCT     C150697  19.894  19.479   2.013 -0.1940 -0.3642  0.0783
25349OCT     C250698  20.241  19.219   1.872 -0.1773 -0.0828 -0.4383
25350OCT     C150699  13.578  17.024  23.259  0.0864 -0.1366  0.1342
25350OCT     C250700  13.440  16.743  23.591 -0.2155 -0.0330 -0.3105
25351OCT     C150701   7.926   8.353   5.146 -0.0134 -0.0089  0.4098
25351OCT     C250702   7.743   8.342   4.724  0.4013  0.0288  0.0515
25352OCT     C150703  22.889   1.674  23.415 -0.1845  0.1958  0.1551
25352OCT     C250704  22.712   1.193  23.312 -0.1163 -0.1936 -0.3498
25353OCT     C150705  18.694   7.927  17.529 -0.0758  0.0751 -0.0878
25353OCT     C250706  18.779   7.681  17.951  0.1185  0.2513 -0.0402
25354OCT     C150707   9.410  19.607  15.686  0.1493  0.0010 -0.3142
25354OCT     C250708   9.737  19.829  15.942  0.1551 -0.2113  0.1493
25355OCT     C150709  13.450  21.580  10.775  0.1196 -0.2099 -0.0021
25355OCT     C250710  13.866  21.759  10.604 -0.0154  0.1671  0.2053
25356OCT     C150711   0.178  21.765  21.948  0.1558  0.2818 -0.2391
25356OCT     C250712   0.439  21.419  22.098  0.0720  0.0651 -0.0968
25357OCT     C150713  12.051  18.466   7.299 -0.0600 -0.0288 -0.1591
25357OCT     C250714  12.302  18.106   7.365  0.3405 -0.0411  0.0943
25358OCT     C150715   7.411  15.709  12.920 -0.1640 -0.0679  0.2237
25358OCT     C250716   7.558  16.157  12.860 -0.3064 -0.1519  0.0132
25359OCT     C150717  16.782  10.133  21.869 -0.2131  0.0694 -0.0086
25359OCT     C250718  17.214  10.240  21.964  0.1774  0.0214 -0.1894
25360OCT     C150719  15.962  11.571   3.864  0.1848  0.2347  0.0452
25360OCT     C250720  16.107  11.297   3.507  0.2949 -0.0108 -0.2538
25361OCT     C150721  23.729  15.795   5.939 -0.0786  0.1402  0.1005
25361OCT     C250722  23.465  15.804   5.594  0.1271  0.0468  0.0438
25362OCT     C150723   8.680  13.928  20.722 -0.2723 -0.3226 -0.2787
25362OCT     C250724   8.226  14.067  20.852  0.1916  0.0628  0.1007
25363OCT     C150725   5.185  17.503  12.408  0.5627 -0.0899 -0.1414
25363OCT     C250726   5.456  17.089  12.384 -0.0310 -0.4135  0.4259
25364OCT     C150727   4.112  14.854  16.596  0.4335 -0.4558 -0.2518
25364OCT     C250728   4.016  15.139  16.953  0.1161 -0.4987  0.0293
25365OCT     C150729  18.946  15.765  16.641  0.0004  0.0808  0.0862
25365OCT     C250730  18.740  15.448  16.385  0.2437 -0.2411 -0.1315
25366OCT     C150731  16.495  15.299  15.346 -0.3297 -0.0208 -0.0710
25366OCT     C250732  16.378  15.139  14.955 -0.4534  0.0999 -0.1673
25367OCT     C150733   6.191  23.133  16.639  0.0611  0.0390  0.1873
25367OCT     C250734   6.100  23.521  16.859 -0.3191 -0.1973  0.0364
25368OCT     C150735  22.900  11.610  10.271 -0.1255 -0.0823  0.1356
25368OCT     C250736  22.994  11.255  10.023 -0.1256  0.1574 -0.4049
25369OCT     C150737  15.357   5.890   9.896 -0.4589  0.0682  0.2082
25369OCT     C250738  14.966   5.941   9.708  0.0726  0.1029 -0.1601
25370OCT     C150739  23.236   1.537  21.992 -0.2049 -0.1011  0.0630
25370OCT     C250740  23.712   1.460  22.121  0.0885  0.3005 -0.2283
25371OCT     C150741  19.808   0.186   6.708 -0.2089  0.0337  0.1249
25371OCT     C250742  19.980   0.374   7.082 -0.0755 -0.0270  0.1712
25372OCT     C150743  21.617  20.530   8.707 -0.2459  0.1065 -0.1685
25372OCT     C250744  21.359  20.438   9.055 -0.0783  0.2176 -0.0093
25373OCT     C150745   9.027  14.502  23.382 -0.1812  0.2134 -0.1989
25373OCT     C250746   8.652  14.713  23.435  0.2936 -0.4896 -0.1730
25374OCT     C150747  17.672   9.073   3.235 -0.0035  0.0172  0.0756
25374OCT     C250748  17.264   9.064   3.497  0.0132 -0.1535 -0.0211
25375OCT     C150749   3.674  17.271  14.425 -0.1890  0.0305 -0.2842
25375OCT     C250750   3.321  17.095  14.713  0.1592 -0.1235 -0.0901
25376OCT     C150751   1.082  19.299  21.675  0.2426  0.2986 -0.1281
25376OCT     C250752   1.230  19.107  22.084 -0.0547  0.1155 -0.3065
25377OCT     C150753   9.456   1.628  13.110 -0.0950  0.0395 -0.2369
25377OCT     C250754   9.775   1.450  13.347  0.1065 -0.3261 -0.2018
25378OCT     C150755   6.833   0.097   4.363  0.1259 -0.0123 -0.2817
25378OCT     C250756   7.307   0.179   4.333 -0.0514  0.0645 -0.0665
25379OCT     C150757   3.043   2.346  13.320 -0.0245  0.0039 -0.0330
25379OCT     C250758   2.747   2.647  13.428  0.1948  0.2890 -0.0359
25380OCT     C150759   7.349  13.639  15.414  0.0924 -0.4005  0.3440
25380OCT     C250760   7.737  13.806  15.239  0.0568 -0.1669 -0.0441
25381OCT     C150761  17.518   3.191  22.141 -0.0761  0.2452  0.3661
25381OCT     C250762  17.453   2.738  22.086 -0.0024 -0.1653 -0.3090
25382OCT     C150763  16.833   4.546  14.563  0.0416 -0.2614 -0.0159
25382OCT     C250764  17.164   4.820  14.360  0.1449  0.1143 -0.2209
25383OCT     C150765   0.873  18.199  16.489  0.0195  0.1067 -0.0220
25383OCT     C250766   0.986  18.638  16.525 -0.0831 -0.2325  0.1178
25384OCT     C150767  15.962  18.191   4.768  0.0487 -0.0761 -0.1624
25384OCT     C250768  15.619  18.431   4.997  0.0705  0.0446  0.4285
25385OCT     C150769  20.047   2.564  20.964 -0.1961  0.0344  0.1597
25385OCT     C250770  20.081   2.652  21.435 -0.1626  0.0161 -0.0098
25386OCT     C150771  16.224  21.968   4.580 -0.2662  0.1069 -0.2245
25386OCT     C250772  16.612  21.833   4.351 -0.1439  0.1904 -0.3252
25387OCT     C150773   8.453  10.766   2.198 -0.1343 -0.6717  0.0564
25387OCT     C250774   8.764  10.786   1.830  0.0963 -0.0141 -0.0200
25388OCT     C150775   1.403   0.001  22.633  0.0795 -0.0700  0.3307
25388OCT     C250776   1.456  23.387  22.305  0.0658 -0.1079  0.0525
25389OCT     C150777  16.967  19.194   1.864  0.1624  0.0013 -0.4185
25389OCT     C250778  17.042  19.407   1.430 -0.2388  0.3038  0.2431
25390OCT     C150779  19.221  19.748  12.452 -0.4659  0.0394 -0.2456
25390OCT     C250780  19.188  19.618  12.001 -0.1702 -0.1037 -0.3120
25391OCT     C150781   2.276   9.796  12.285 -0.4809 -0.0598 -0.0390
25391OCT     C250782   1.884   9.557  12.324 -0.0163 -0.3357 -0.1322
25392OCT     C150783  12.393  13.297  22.450 -0.1322  0.0731 -0.3994
25392OCT     C250784  12.779  13.549  22.367  0.1725 -0.3641 -0.0852
25393OCT     C150785  22.149   6.049  13.767  0.2172  0.3054 -0.1611
25393OCT     C250786  21.917   6.204  13.456  0.0041 -0.0011  0.1758
25394OCT     C150787  12.007  20.495   4.886 -0.1777 -0.0870  0.0389
25394OCT     C250788  11.658  20.788   4.928 -0.1889  0.4481  0.0023
25395OCT     C150789   2.914  13.748   1.920  0.2920 -0.1108 -0.3370
25395OCT     C250790   2.874  14.056   1.585 -0.0998 -0.0463 -0.0190
25396OCT     C150791  18.862   6.664  19.641  0.3487 -0.0649  0.4714
25396OCT     C250792  19.076   6.527  20.026 -0.0233  0.0095 -0.0381
25397OCT     C150793  17.897   8.461  11.677  0.1128  0.0531 -0.0847
25397OCT     C250794  18.257   8.520  11.386  0.1016  0.2043 -0.1716
25398OCT     C150795   2.808  15.518  23.692  0.3590  0.1025 -0.2553
25398OCT     C250796   2.908  15.759   0.380 -0.0530  0.0507  0.2116
25399OCT     C150797   2.825   7.378  21.469  0.4570 -0.1884 -0.0606
25399OCT     C250798   2.792   7.092  21.037 -0.2644 -0.2013 -0.1033
25400OCT     C150799  15.937   9.648   6.267 -0.1068 -0.2706  0.0663
25400OCT     C250800  16.143   9.886   5.958  0.3009  0.0273  0.5002
25401OCT     C150801  20.375   2.279  22.620  0.1027 -0.1588  0.0669
25401OCT     C250802  19.961   2.222  22.495 -0.2866 -0.0527 -0.1726
25402OCT     C150803   8.227  21.984  20.265 -0.1271 -0.0939 -0.1420
25402OCT     C250804   8.563  22.325  20.265 -0.2528 -0.0116 -0.2936
25403OCT     C150805  12.750  15.327  10.434  0.0855 -0.0324  0.1110
25403OCT     C250806  12.866  15.577  10.830 -0.3613  0.1053 -0.1741
25404OCT     C150807   0.491  22.444  10.604  0.2051 -0.1336 -0.3598
25404OCT     C250808   0.410  22.153  11.002 -0.1579  0.5767 -0.1202
25405OCT     C150809  18.551  20.602   6.406 -0.3500 -0.2576  0.3570
25405OCT     C250810  18.453  20.448   6.861 -0.0431 -0.2567 -0.1993
25406OCT     C150811  12.807  21.435   4.226  0.2738 -0.2703 -0.0381
25406OCT     C250812  12.620  21.665   3.885 -0.0526  0.4108  0.1034
25407OCT     C150813   1.957  13.634   9.365 -0.0583 -0.3495 -0.3866
25407OCT     C250814   2.042  14.182   9.301  0.0325  0.2417 -0.1911
25408OCT     C150815   7.046  16.407   6.419  0.2127  0.3264  0.1124
25408OCT     C250816   7.521  16.430   6.349 -0.1614 -0.0672 -0.0685
25409OCT     C150817  18.415  19.558   8.436  0.0058  0.3047 -0.1918
25409OCT     C250818  18.365  19.081   8.317 -0.0789  0.0477  0.0631
25410OCT     C150819  23.383   1.945   0.603  0.0220  0.1028  0.4233
25410OCT     C250820  23.219   1.550   0.850 -0.2078 -0.0588  0.3057
25411OCT     C150821  19.483   8.601   0.598  0.3752 -0.0950  0.3733
25411OCT     C250822  19.449   8.319   0.984 -0.0826 -0.1792 -0.0665
25412OCT     C150823  11.889  12.223  22.542 -0.0534  0.2219 -0.1214
25412OCT     C250824  11.718  12.301  22.126 -0.1121  0.1581 -0.0217
25413OCT     C150825  17.241   8.280  12.454 -0.0351  0.1805  0.1368
25413OCT     C250826  17.027   8.074  12.031 -0.0730  0.2966  0.3127
25414OCT     C150827   1.269   0.577   8.192 -0.2761 -0.0812 -0.1374
25414OCT     C250828   1.648   0.755   8.384  0.1423  0.0743  0.2550
25415OCT     C150829  13.221   6.642   7.281  0.1997  0.3035  0.1960
25415OCT     C250830  13.363   6.898   6.926  0.0404 -0.4298  0.4646
25416OCT     C150831   4.741  12.273  18.914  0.2148 -0.0409 -0.1195
25416OCT     C250832   4.960  12.543  18.651 -0.1030  0.3207 -0.1268
25417OCT     C150833   4.487   9.009  17.286 -0.0081 -0.1571 -0.3152
25417OCT     C250834   4.652   9.432  17.196  0.2458 -0.0539 -0.0915
25418OCT     C150835  13.978   6.904  10.669  0.2978  0.2240  0.0635
25418OCT     C250836  13.978   6.461  10.408 -0.1290  0.1766  0.2287
25419OCT     C150837   7.101   3.812   5.664  0.0335  0.0359 -0.0418
25419OCT     C250838   7.349   4.011   6.001  0.1455  0.0040 -0.1583
25420OCT     C150839  19.268  11.051   8.801  0.2041  0.0370  0.2363
25420OCT     C250840  19.111  10.719   9.080 -0.0425 -0.0663 -0.2282
25421OCT     C150841  15.652  17.351  19.663  0.2394 -0.2560 -0.2235
25421OCT     C250842  16.039  17.148  19.536 -0.2966  0.1408  0.1070
25422OCT     C150843   7.318   3.037  14.806 -0.2090 -0.2305  0.2048
25422OCT     C250844   7.532   2.768  14.476 -0.0616 -0.3302  0.1614
25423OCT     C150845   4.400   5.945  15.945  0.3996 -0.2448  0.4376
25423OCT     C250846   4.084   5.910  15.603 -0.1130  0.0785  0.2649
25424OCT     C150847  14.677  23.060   8.279  0.2390 -0.0710  0.0378
25424OCT     C250848  15.039  23.201   8.559  0.2132  0.1658 -0.1960
25425OCT     C150849   5.508   8.528  14.004  0.1138  0.0779  0.1944
25425OCT     C250850   5.284   8.277  13.719 -0.0764 -0.2081  0.2466
25426OCT     C150851  10.847  16.737   9.468 -0.1232 -0.1977  0.1490
25426OCT     C250852  11.041  16.628   9.066 -0.1232  0.0869  0.2086
25427OCT     C150853  18.824  23.288   9.017 -0.0005 -0.2679  0.1633
25427OCT     C250854  19.298  23.207   9.066 -0.0409  0.0380  0.2239
25428OCT     C150855  15.528  23.719  20.985 -0.4103  0.1216  0.2411
25428OCT     C250856  15.055  23.575  21.034 -0.2937 -0.0111  0.0254
25429OCT     C150857  22.037  12.185   2.894 -0.0044 -0.0850 -0.1273
25429OCT     C250858  21.884  12.455   2.537  0.1110  0.1575 -0.1737
25430OCT     C150859   1.447   9.750  20.315  0.0984 -0.1882 -0.0690
25430OCT     C250860   1.421   9.538  20.742  0.1258  0.0426  0.0982
25431OCT     C150861   4.188   8.957   1.872  0.3142  0.2346  0.2542
25431OCT     C250862   3.975   8.491   1.894  0.1383  0.1625 -0.2403
25432OCT     C150863  23.275   1.536   6.305 -0.3219  0.1893 -0.1840
25432OCT     C250864  23.415   1.158   6.598 -0.0903 -0.2720  0.2901
25433OCT     C150865   2.339   8.157   6.290 -0.1464  0.0611 -0.0586
25433OCT     C250866   2.764   7.960   6.150  0.0035  0.0788  0.0148
25434OCT     C150867  13.077  14.628   0.081  0.0461  0.0677 -0.0549
25434OCT     C250868  12.870  14.295   0.279  0.1300 -0.0154  0.1180
25435OCT     C150869  14.035   2.226  23.227  0.0034 -0.0953  0.2817
25435OCT     C250870  13.789   1.939  22.996 -0.0253 -0.0355  0.2413
25436OCT     C150871  20.830   5.303   9.147 -0.1887 -0.1847 -0.6614
25436OCT     C250872  20.731   5.002   9.484 -0.0314 -0.0203  0.4479
25437OCT     C150873  21.701  17.986   5.676 -0.5417 -0.0726 -0.0047
25437OCT     C250874  21.880  17.619   5.940  0.2205  0.2685 -0.0912
25438OCT     C150875  16.073  13.951  20.072  0.1768  0.2225 -0.0205
25438OCT     C250876  15.928  14.414  20.115 -0.2368 -0.0955  0.3434
25439OCT     C150877  13.448  13.982  11.565  0.3362 -0.0835  0.2521
25439OCT     C250878  13.595  13.530  11.360  0.1321 -0.3338  0.0523
25440OCT     C150879  13.458  21.816  20.764 -0.3448  0.4322 -0.2423
25440OCT     C250880  13.082  21.491  20.904  0.0077 -0.0251  0.1631
25441OCT     C150881  22.253  19.120   7.438  0.1072  0.1221 -0.1330
25441OCT     C250882  22.549  19.431   7.459 -0.3990  0.0426 -0.2441
25442OCT     C150883  14.841  19.909   3.820 -0.1528 -0.0883 -0.1974
25442OCT     C250884  15.085  19.887   3.407  0.1980  0.3886  0.0616
25443OCT     C150885   5.735  18.969  23.133 -0.1476 -0.4314  0.0710
25443OCT     C250886   5.824  19.421  22.985  0.0560  0.0814  0.3731
25444OCT     C150887   9.574  12.392   5.239  0.1591 -0.2456  0.2353
25444OCT     C250888   9.888  12.056   5.432  0.0875  0.3583  0.1041
25445OCT     C150889  22.181   2.883  22.782  0.3996  0.3010  0.3828
25445OCT     C250890  21.857   3.074  22.472 -0.1830 -0.1612  0.1290
25446OCT     C150891  20.165  14.263  12.104 -0.1663  0.1138  0.1792
25446OCT     C250892  20.608  14.276  11.931 -0.0850  0.0241  0.0569
25447OCT     C150893  10.777   9.607  10.759  0.2341 -0.1519  0.2538
25447OCT     C250894  11.265   9.557  10.767  0.2610 -0.1633 -0.0297
25448OCT     C150895   1.720   2.812   8.102  0.3197 -0.0868 -0.0050
25448OCT     C250896   2.030   3.074   7.850  0.3915  0.2877 -0.2441
25449OCT     C150897   2.351  19.438  14.979 -0.1189 -0.1513  0.2504
25449OCT     C250898   2.024  19.426  15.296 -0.1904  0.3337  0.0294
25450OCT     C150899   9.427   3.366   0.497  0.0133 -0.0327  0.1812
25450OCT     C250900   9.464   3.087   0.870  0.0207  0.0081 -0.5898
25451OCT     C150901  18.670  13.011  15.744  0.1626 -0.2162 -0.3835
25451OCT     C250902  19.076  12.837  15.901  0.2321  0.1977  0.0592
25452OCT     C150903  13.415  12.317  21.222  0.2868 -0.0367 -0.1511
25452OCT     C250904  13.695  12.200  21.535  0.0337  0.0686  0.1662
25453OCT     C150905   9.112   6.965  23.487  0.0658  0.0547  0.5581
25453OCT     C250906   8.821   7.206  23.140 -0.0962  0.1808 -0.2619
25454OCT     C150907   7.533  23.251  13.209 -0.2063  0.0855  0.1960
25454OCT     C250908   7.934  23.262  13.464  0.2002 -0.0493 -0.0922
25455OCT     C150909  17.121  22.697  19.902 -0.3201  0.0097 -0.1600
25455OCT     C250910  17.339  23.068  19.879  0.0087 -0.1815 -0.0327
25456OCT     C150911   7.142  10.696   7.732 -0.2439 -0.1852  0.3040
25456OCT     C250912   7.537  10.473   7.805  0.0272  0.2967  0.0679
25457OCT     C150913  15.741  23.039   6.099 -0.2778  0.0589 -0.0720
25457OCT     C250914  15.372  23.217   5.930  0.2453 -0.2100  0.0960
25458OCT     C150915   7.227   9.249  18.887  0.2896  0.0801 -0.3282
25458OCT     C250916   7.453   9.344  18.531 -0.4677  0.0467 -0.0050
25459OCT     C150917   2.679  13.310   8.110 -0.0648  0.1772  0.2677
25459OCT     C250918   2.533  13.088   8.505  0.0923 -0.2226 -0.0118
25460OCT     C150919   0.688   1.034   0.458 -0.0319  0.0059 -0.0456
25460OCT     C250920   0.666   1.295   0.009  0.3643  0.4014 -0.4503
25461OCT     C150921   2.669   1.575  20.772 -0.3679  0.2597  0.3815
25461OCT     C250922   2.460   1.872  21.029 -0.4658  0.1518  0.2436
25462OCT     C150923   9.945   0.387   7.785  0.0318  0.4014 -0.0246
25462OCT     C250924   9.855   0.156   8.162 -0.1206  0.2112 -0.2065
25463OCT     C150925  18.554   6.337   1.992 -0.2052 -0.1187  0.0191
25463OCT     C250926  18.663   6.341   2.445  0.1309  0.2155  0.3171
25464OCT     C150927  10.905   2.327   6.230  0.3613  0.5098  0.1274
25464OCT     C250928  11.387   2.183   6.375 -0.1536 -0.1821 -0.2995
25465OCT     C150929  13.426   7.514  18.742  0.0833 -0.2800 -0.0239
25465OCT     C250930  12.957   7.503  18.939 -0.0498 -0.1164 -0.0274
25466OCT     C150931   4.278   5.055   9.534 -0.0342 -0.0205  0.0888
25466OCT     C250932   4.235   5.266   9.108  0.0406 -0.0379  0.2240
25467OCT     C150933  22.724  15.631  10.497  0.2317  0.1249  0.2633
25467OCT     C250934  22.324  15.831  10.321 -0.1640  0.0736 -0.1850
25468OCT     C150935  12.793   6.979  21.408  0.0695 -0.2072  0.1228
25468OCT     C250936  12.723   7.235  21.031  0.2932  0.0335 -0.6107
25469OCT     C150937  23.168  16.414   8.674 -0.0387 -0.0061  0.0506
25469OCT     C250938  22.896  16.441   9.130  0.3540 -0.1994  0.2215
25470OCT     C150939   9.593  14.285  13.544  0.2057  0.2184 -0.1407
25470OCT     C250940   9.403  14.359  13.118 -0.4802 -0.2938  0.1869
25471OCT     C150941   0.179   9.573  16.014 -0.0307  0.6350  0.1766
25471OCT     C250942   0.073   9.127  16.003  0.1541  0.1340 -0.1327
25472OCT     C150943  10.756   1.370   5.541  0.0266  0.0107  0.2070
25472OCT     C250944  10.821   1.855   5.491 -0.0122  0.1134 -0.0642
25473OCT     C150945  11.329  11.179   2.534 -0.2343  0.5009  0.4358
25473OCT     C250946  11.295  11.298   2.056 -0.2689 -0.1810 -0.0746
25474OCT     C150947  18.805  21.756  17.260 -0.1099  0.2033 -0.3243
25474OCT     C250948  18.662  21.918  17.749  0.1652  0.4517 -0.1759
25475OCT     C150949  21.833   2.156  13.447 -0.0106  0.0077 -0.0625
25475OCT     C250950  21.512   2.247  13.172 -0.4328 -0.0817  0.4606
25476OCT     C150951  23.734   2.397  22.167 -0.2410 -0.2711  0.3719
25476OCT     C250952  23.545   1.970  22.177  0.0144  0.2736 -0.3379
25477OCT     C150953   3.950  12.050   6.526  0.0442 -0.3364  0.2179
25477OCT     C250954   3.848  11.707   6.752 -0.1058  0.3255  0.1188
25478OCT     C150955   7.454   9.445  15.373 -0.2740  0.0114  0.3057
25478OCT     C250956   7.950   9.499  15.388  0.1572  0.0169  0.0306
25479OCT     C150957   5.768  20.020  21.113  0.1088  0.0041 -0.2897
25479OCT     C250958   5.770  20.341  20.781 -0.1399  0.1471  0.0168
25480OCT     C150959   4.970  11.579  20.032 -0.0790 -0.1162 -0.0531
25480OCT     C250960   5.020  11.212  19.745 -0.3816 -0.2316 -0.2778
25481OCT     C150961  11.162   0.795   1.738  0.0469  0.0496 -0.0817
25481OCT     C250962  11.116   0.480   2.055  0.0345  0.0498 -0.0927
25482OCT     C150963  11.654   8.945  11.709 -0.1646 -0.0150 -0.1489
25482OCT     C250964  11.620   8.745  11.285 -0.0980  0.0132 -0.0486
25483OCT     C150965   6.117  22.771  14.417  0.1445  0.2274 -0.1351
25483OCT     C250966   6.080  22.733  13.983  0.1203 -0.0321  0.1227
25484OCT     C150967  11.964   2.850   0.904  0.2498  0.0709 -0.0040
25484OCT     C250968  12.234   2.863   1.260 -0.0287 -0.0014  0.2326
25485OCT     C150969  16.055  10.281   1.319  0.1809 -0.0410  0.2020
25485OCT     C250970  15.866  10.686   1.249 -0.0342 -0.0573 -0.0668
25486OCT     C150971   5.042  13.685   1.858 -0.2371  0.2349  0.1153
25486OCT     C250972   4.787  13.278   1.755  0.0214 -0.0311  0.1686
25487OCT     C150973   1.231  11.726  16.666 -0.1266 -0.2796 -0.0227
25487OCT     C250974   1.542  11.357  16.688 -0.0007  0.0048  0.0622
25488OCT     C150975   7.696  21.291  14.188 -0.1602 -0.1217  0.2140
25488OCT     C250976   7.638  20.970  14.558 -0.1015 -0.3202 -0.0443
25489OCT     C150977   7.587   0.797  20.577 -0.3099 -0.0615 -0.1276
25489OCT     C250978   7.845   1.130  20.363  0.3546 -0.2907 -0.2190
25490OCT     C150979  15.888  18.850  13.935 -0.2141 -0.1182 -0.0744
25490OCT     C250980  16.315  19.052  14.138 -0.0007  0.0131 -0.1300
25491OCT     C150981   6.640  16.021  18.446  0.0785 -0.2296  0.0684
25491OCT     C250982   6.685  16.400  18.155  0.0540 -0.0556  0.3058
25492OCT     C150983   5.916   7.570   1.932 -0.2202  0.0882 -0.0614
25492OCT     C250984   6.069   7.317   2.320 -0.2266  0.0740  0.2381
25493OCT     C150985   5.426  10.598  15.830 -0.2402  0.0555 -0.1519
25493OCT     C250986   5.263  10.928  15.582 -0.1034  0.0886  0.4438
25494OCT     C150987  14.596   3.497   5.973 -0.0523 -0.1089 -0.0175
25494OCT     C250988  15.003   3.693   6.104  0.3555 -0.3227  0.3494
25495OCT     C150989  14.392  12.436   8.938 -0.0405  0.2112 -0.0357
25495OCT     C250990  13.895  12.476   8.935 -0.1482 -0.3096 -0.0223
25496OCT     C150991   8.527   0.416  21.078  0.1471 -0.2681  0.0380
25496OCT     C250992   8.786   0.678  20.841  0.0058 -0.2950  0.1749
25497OCT     C150993   1.205   8.658  10.402 -0.0692  0.2924 -0.2082
25497OCT     C250994   1.538   8.487  10.155 -0.5667  0.0887 -0.3008
25498OCT     C150995  21.746   8.595  23.288 -0.1460  0.0127 -0.0513
25498OCT     C250996  21.517   8.718  22.908 -0.1233 -0.0075 -0.1751
25499OCT     C150997  12.117  10.310   4.162 -0.1160 -0.3067 -0.0338
25499OCT     C250998  12.446  10.163   4.474  0.1804 -0.1213 -0.4068
25500OCT     C150999  22.676  22.540  14.142 -0.1301 -0.0087  0.1604
25500OCT     C251000  22.884  22.313  13.788 -0.1329 -0.0461 -0.1021
25501OCT     C151001   8.904  21.668  23.397 -0.0423 -0.2207  0.5199
25501OCT     C251002   8.930  21.842   0.076 -0.0961 -0.1697 -0.2250
25502OCT     C151003  17.534  12.991  18.570 -0.2535  0.1025 -0.0845
25502OCT     C251004  17.621  13.480  18.562  0.1042  0.2980 -0.1863
25503OCT     C151005  17.207  16.945   6.939 -0.3542  0.2465  0.2394
25503OCT     C251006  16.876  16.727   6.609 -0.1538 -0.1735 -0.1196
25504OCT     C151007   9.188  22.748  22.420 -0.0823  0.1577 -0.0117
25504OCT     C251008   8.805  22.402  22.495  0.2446 -0.3108  0.0888
25505OCT     C151009  23.326  19.192   7.321 -0.3027 -0.0398  0.2640
25505OCT     C251010  23.593  19.055   7.670  0.2408 -0.0723  0.0312
25506OCT     C151011  11.888   5.173  11.786  0.0407 -0.3269  0.0267
25506OCT     C251012  12.104   5.011  12.147 -0.1785  0.0233 -0.0904
25507OCT     C151013  16.960  16.391  18.724 -0.0006  0.4111  0.1423
25507OCT     C251014  16.602  16.107  18.575  0.2700 -0.3471  0.0458
25508OCT     C151015   5.617  18.896  17.542 -0.1735  0.1559  0.0665
25508OCT     C251016   5.532  18.981  17.963  0.0158 -0.0029 -0.1433
25509OCT     C151017  12.757  14.867   1.618  0.0535  0.0310  0.2007
25509OCT     C251018  12.696  14.813   1.191  0.1335 -0.0402 -0.0632
25510OCT     C151019   5.638   8.286  11.762  0.6098 -0.0935 -0.3845
25510OCT     C251020   5.941   8.319  12.067  0.0302 -0.0554  0.1152
25511OCT     C151021  13.983  20.779  22.957 -0.0896  0.0430  0.4387
25511OCT     C251022  14.186  20.433  23.289 -0.0328  0.1789 -0.2167
25512OCT     C151023  22.609  20.014   3.191 -0.0332 -0.1477  0.1038
25512OCT     C251024  22.717  20.498   3.156 -0.0989 -0.0650  0.3751
25513OCT     C151025   3.828  13.609   2.339 -0.1755 -0.0923 -0.2705
25513OCT     C251026   3.679  14.045   2.498 -0.1602 -0.2534  0.0239
25514OCT     C151027  13.836   7.258  16.140  0.0146 -0.1263 -0.0412
25514OCT     C251028  13.588   6.924  15.907 -0.4352 -0.0334 -0.0320
25515OCT     C151029  15.072   0.480   3.015 -0.2211 -0.2198 -0.1376
25515OCT     C251030  15.289   0.763   3.346 -0.0575 -0.5411 -0.3908
25516OCT     C151031  22.279  19.412  13.691  0.0547 -0.0476  0.3281
25516OCT     C251032  22.422  19.042  13.897  0.0596  0.0270  0.0137
25517OCT     C151033  18.506   6.295  11.602 -0.1222 -0.3887  0.0410
25517OCT     C251034  18.137   6.110  11.791 -0.0837 -0.1632 -0.1366
25518OCT     C151035  14.861  16.512  10.028 -0.1277 -0.0165 -0.3246
25518OCT     C251036  14.776  16.422  10.486  0.2256  0.2074  0.2236
25519OCT     C151037  12.942   7.713  13.586 -0.0973 -0.1311 -0.2593
25519OCT     C251038  12.562   7.566  13.546  0.0146  0.0606 -0.1950
25520OCT     C151039  18.747   2.679   7.764 -0.2517  0.2580 -0.0327
25520OCT     C251040  18.505   3.002   7.948 -0.0896 -0.1024 -0.2604
25521OCT     C151041   8.923   2.820  11.126 -0.1541  0.4914  0.1245
25521OCT     C251042   9.394   2.644  11.055  0.0717 -0.0897  0.0529
25522OCT     C151043   0.631  15.722  19.842  0.5205  0.5290  0.1025
25522OCT     C251044   0.988  15.457  19.787  0.2193 -0.0753 -0.2762
25523OCT     C151045   2.205  17.290   7.798  0.0931 -0.0790 -0.0064
25523OCT     C251046   2.201  17.756   7.653  0.1919 -0.0284  0.2179
25524OCT     C151047   8.089   2.294  19.554  0.0643  0.0259  0.4072
25524OCT     C251048   7.640   2.390  19.640 -0.1825 -0.1031 -0.3389
25525OCT     C151049   9.546  22.047  15.779 -0.0922 -0.0241 -0.3686
25525OCT     C251050   9.866  21.731  15.567 -0.4151  0.3725  0.1641
25526OCT     C151051  13.832   7.081   8.908  0.0134  0.0125  0.0469
25526OCT     C251052  14.274   6.875   8.940  0.1802  0.0126 -0.0524
25527OCT     C151053   2.815  19.660   4.400  0.2365  0.0683 -0.0009
25527OCT     C251054   2.406  19.811   4.572 -0.1309  0.1664  0.0461
25528OCT     C151055   5.086  19.971  11.174  0.2031  0.1430  0.1533
25528OCT     C251056   5.334  19.896  10.722  0.1848 -0.1203  0.3643
25529OCT     C151057  17.379  19.182  18.067 -0.1297  0.0901  0.0846
25529OCT     C251058  17.041  19.429  17.832  0.2886 -0.2302  0.0849
25530OCT     C151059  22.756   5.284  21.368  0.1686  0.3890  0.3139
25530OCT     C251060  22.486   5.663  21.219  0.1288 -0.2285  0.0829
25531OCT     C151061   5.425  22.853  10.797 -0.1570  0.0069 -0.0222
25531OCT     C251062   5.772  22.867  11.136 -0.0385  0.1255 -0.0819
25532OCT     C151063   0.499  19.052  17.801 -0.2942 -0.0348  0.0302
25532OCT     C251064   0.680  19.352  18.146 -0.1890  0.1374  0.1558
25533OCT     C151065   6.699  22.123  22.536  0.0561  0.2784  0.0100
25533OCT     C251066   6.525  22.005  22.974 -0.3078 -0.3257 -0.1781
25534OCT     C151067  10.972  11.581  14.917  0.2180  0.0666 -0.2158
25534OCT     C251068  11.021  11.835  15.291 -0.1753  0.0161 -0.2514
25535OCT     C151069  21.369  16.696  18.213 -0.0545 -0.1065 -0.1096
25535OCT     C251070  20.997  16.539  18.432 -0.0071  0.0747 -0.0433
25536OCT     C151071  21.757  19.755   8.466 -0.0595 -0.3156 -0.1128
25536OCT     C251072  21.930  20.158   8.393  0.3366 -0.2161  0.4252
25537OCT     C151073  18.785   6.210   6.744  0.2738  0.1329  0.2287
25537OCT     C251074  18.449   6.268   7.145  0.0588 -0.0832 -0.1445
25538OCT     C151075   6.828  10.226   8.642 -0.1703 -0.0760  0.3902
25538OCT     C251076   7.009   9.893   8.369 -0.2279 -0.1603  0.4886
25539OCT     C151077   7.757  16.676   1.980  0.0936  0.1048 -0.3403
25539OCT     C251078   8.119  16.909   1.739  0.2308 -0.2523 -0.0638
25540OCT     C151079   8.939  13.015   6.358  0.0073  0.2548 -0.2394
25540OCT     C251080   9.016  13.453   6.325 -0.1590 -0.2915  0.1323
25541OCT     C151081   3.459   2.770  14.381 -0.1787  0.2568 -0.0922
25541OCT     C251082   3.128   2.880  14.693 -0.2957  0.0184  0.0127
25542OCT     C151083  19.688   8.948  17.543 -0.0899 -0.0489 -0.1223
25542OCT     C251084  19.639   8.498  17.536 -0.2353 -0.0566 -0.4393
25543OCT     C151085   1.270  22.584   3.995 -0.2590 -0.2899 -0.3192
25543OCT     C251086   0.977  22.523   3.603 -0.2392 -0.0080 -0.0573
25544OCT     C151087  21.341   8.928   6.028  0.1718  0.0238  0.1509
25544OCT     C251088  21.680   8.918   5.755 -0.1623  0.0352  0.2650
25545OCT     C151089   6.463  16.648   2.860 -0.2622  0.0812 -0.2474
25545OCT     C251090   6.829  16.850   3.085  0.2016 -0.2686 -0.0925
25546OCT     C151091   8.231   7.620  10.782 -0.2585  0.3003 -0.2249
25546OCT     C251092   8.330   8.004  11.082 -0.2545 -0.0063 -0.4049
25547OCT     C151093  17.452   2.999  16.406  0.1467 -0.0714  0.1856
25547OCT     C251094  17.352   3.393  16.145 -0.0964  0.2816 -0.1169
25548OCT     C151095   5.633   0.481  12.329  0.4055  0.2419  0.2992
25548OCT     C251096   5.273   0.293  12.103  0.1321 -0.2635 -0.0906
25549OCT     C151097   9.171   4.631   2.113  0.0345  0.1171  0.0130
25549OCT     C251098   8.715   4.688   1.908  0.0106  0.1804 -0.1199
25550OCT     C151099   6.570   4.270   3.001  0.4392  0.0778  0.0796
25550OCT     C251100   6.907   4.358   3.319  0.3444  0.4095 -0.0800
25551OCT     C151101   4.629   7.503  18.486 -0.0018  0.1265 -0.0700
25551OCT     C251102   4.553   7.981  18.558 -0.0596  0.0347  0.2229
25552OCT     C151103  13.202  16.853  19.156  0.0137 -0.0948 -0.2091
25552OCT     C251104  13.157  16.573  19.517 -0.1467  0.1855 -0.2372
25553OCT     C151105   4.944   7.089   3.137  0.1942  0.2671 -0.0636
25553OCT     C251106   4.735   6.799   2.824  0.0331 -0.0211  0.2145
25554OCT     C151107  13.579  15.096  10.521  0.4173  0.0240 -0.2423
25554OCT     C251108  13.166  15.034  10.282  0.0450 -0.0439 -0.3096
25555OCT     C151109   6.897  15.883   3.122 -0.0274 -0.1666 -0.0476
25555OCT     C251110   7.074  15.965   3.524  0.2272 -0.0687  0.1584
25556OCT     C151111   0.301   2.729  10.624 -0.0522 -0.1043 -0.1007
25556OCT     C251112   0.026   3.026  10.323  0.0578  0.4717 -0.0612
25557OCT     C151113  18.188  10.015  17.121  0.1747  0.3601 -0.2711
25557OCT     C251114  17.821   9.936  17.383  0.2084 -0.1445 -0.1605
25558OCT     C151115   3.389  23.149  11.355 -0.1752  0.3685 -0.2231
25558OCT     C251116   2.956  22.983  11.282  0.0797 -0.3486 -0.2452
25559OCT     C151117   6.575  18.106   4.036 -0.0884  0.0383 -0.3810
25559OCT     C251118   6.531  17.790   4.361  0.1088 -0.2021 -0.1238
25560OCT     C151119  19.434   5.343  22.846  0.1235 -0.1806  0.0955
25560OCT     C251120  19.121   5.706  22.778  0.0705  0.2607 -0.0348
25561OCT     C151121   1.247  12.049  10.173  0.1214  0.3582  0.0431
25561OCT     C251122   1.011  11.909  10.573 -0.0237  0.1542  0.0986
25562OCT     C151123  18.027   1.003  11.493 -0.0173 -0.1541  0.2413
25562OCT     C251124  17.636   1.261  11.519  0.1541  0.1558 -0.3035
25563OCT     C151125   7.169   7.245  11.060 -0.1723 -0.1960 -0.0091
25563OCT     C251126   7.307   7.228  10.658  0.1403 -0.2773 -0.3684
25564OCT     C151127  17.410   7.226  17.449  0.1778  0.1115 -0.0059
25564OCT     C251128  17.696   6.872  17.538  0.0858 -0.1740 -0.1484
25565OCT     C151129  11.146  20.225  10.508 -0.0544 -0.2347 -0.4155
25565OCT     C251130  10.988  20.506  10.800  0.0987 -0.0510  0.3068
25566OCT     C151131   7.508  23.078  10.386 -0.2188 -0.0765 -0.2667
25566OCT     C251132   7.589  22.946   9.967 -0.0150 -0.1589 -0.0476
25567OCT     C151133  14.246   9.210   0.743  0.0105 -0.1898 -0.2885
25567OCT     C251134  13.907   9.515   0.525  0.2803  0.1330 -0.0749
25568OCT     C151135  14.135   2.712   4.183 -0.0028  0.1977 -0.1174
25568OCT     C251136  14.487   2.382   4.105 -0.0388  0.1764  0.0247
25569OCT     C151137  22.966  21.378   0.570 -0.0840  0.4879  0.2550
25569OCT     C251138  22.538  21.259   0.431 -0.0695 -0.4165 -0.0777
25570OCT     C151139  11.152   6.608   4.084  0.3178  0.3214 -0.3065
25570OCT     C251140  11.505   6.785   4.408  0.0209  0.1561 -0.0163
25571OCT     C151141   9.306  14.842   0.222  0.0288  0.0305 -0.2396
25571OCT     C251142   9.487  14.736  23.572  0.0847 -0.4436  0.0116
25572OCT     C151143   4.013  13.756   2.844  0.1180 -0.2531  0.0986
25572OCT     C251144   3.563  13.554   2.752 -0.2337 -0.1443 -0.3160
25573OCT     C151145   8.918  20.441  12.354  0.2853  0.0293  0.0069
25573OCT     C251146   9.147  20.007  12.430 -0.5694 -0.1981 -0.2221
25574OCT     C151147  18.523  18.996   1.623 -0.0987 -0.1286 -0.3640
25574OCT     C251148  18.125  18.865   1.780 -0.4587 -0.5545 -0.3591
25575OCT     C151149  16.822  17.176   7.305 -0.1530 -0.0918 -0.0766
25575OCT     C251150  16.713  17.649   7.304 -0.2914  0.2759 -0.0616
25576OCT     C151151  10.651  23.247  21.252  0.0801  0.0444 -0.1966
25576OCT     C251152  11.132  23.264  21.351  0.2040  0.1913  0.3263
25577OCT     C151153  11.047   8.150  23.041  0.1405 -0.3188  0.3423
25577OCT     C251154  11.514   8.051  22.918  0.1089  0.0097  0.1013
25578OCT     C151155  19.451   5.618  14.258  0.0453 -0.2291 -0.0060
25578OCT     C251156  19.091   5.423  14.408 -0.2946 -0.1780  0.2487
25579OCT     C151157   1.065  19.528  12.079 -0.0645  0.0880 -0.1828
25579OCT     C251158   0.867  19.961  12.142 -0.0497 -0.0257 -0.1322
25580OCT     C151159   8.703  23.485  11.494  0.3107  0.2673 -0.5089
25580OCT     C251160   9.005  23.153  11.408 -0.2128  0.2521 -0.0491
25581OCT     C151161  13.791  18.195  22.680  0.3163 -0.1624  0.1165
25581OCT     C251162  13.938  17.745  22.585 -0.1253  0.0951  0.1082
25582OCT     C151163   2.755  13.471  23.299 -0.2019 -0.0981 -0.2380
25582OCT     C251164   2.648  13.737  23.672  0.1496 -0.1582  0.1810
25583OCT     C151165   9.761   9.611  14.851  0.0479  0.1059 -0.1433
25583OCT     C251166  10.136   9.813  14.645  0.0242  0.0447  0.1268
25584OCT     C151167   6.388   4.066  18.856  0.4674 -0.2980  0.0719
25584OCT     C251168   6.652   4.169  19.244 -0.0270  0.1681  0.1695
25585OCT     C151169  19.054  19.073   4.242 -0.0721 -0.1303 -0.4454
25585OCT     C251170  18.576  19.137   4.396 -0.0944  0.0853  0.0889
25586OCT     C151171  15.603   9.897   2.940  0.1965  0.1749  0.0205
25586OCT     C251172  15.977   9.821   2.658 -0.2615  0.2491  0.5484
25587OCT     C151173  14.651  17.949   5.004  0.1904 -0.1448 -0.0155
25587OCT     C251174  14.607  18.376   5.035 -0.1990  0.1545  0.0196
25588OCT     C151175  16.482   0.964   6.499 -0.0985 -0.3872  0.2319
25588OCT     C251176  16.800   0.984   6.831  0.1893 -0.0286  0.1600
25589OCT     C151177   4.963  12.640   8.574  0.5071 -0.0721  0.1672
25589OCT     C251178   5.229  13.000   8.426  0.0242 -0.3287 -0.0540
25590OCT     C151179  23.480   3.495  11.610  0.0958  0.1626  0.0099
25590OCT     C251180  23.547   3.071  11.408  0.0845 -0.0225 -0.0932
25591OCT     C151181   0.878  10.015  13.094  0.0097  0.2576  0.0953
25591OCT     C251182   0.862  10.364  13.373  0.1492  0.2706  0.0252
25592OCT     C151183  11.686  15.790   7.151  0.2282 -0.2693  0.1153
25592OCT     C251184  11.424  16.005   7.505  0.4193 -0.0742  0.1619
25593OCT     C151185   8.899  15.338   5.800  0.2547 -0.3358  0.1041
25593OCT     C251186   8.544  15.258   6.088  0.1045  0.1486 -0.1808
25594OCT     C151187  19.791   1.103   2.744  0.0249  0.1654  0.0146
25594OCT     C251188  20.174   1.262   3.011  0.0681 -0.2047 -0.3625
25595OCT     C151189  16.415   0.880   0.027 -0.1564  0.3231 -0.0847
25595OCT     C251190  16.076   0.688  23.453  0.1733 -0.0915 -0.1477
25596OCT     C151191  10.790  19.972   5.905  0.2017 -0.0912 -0.0109
25596OCT     C251192  10.463  19.679   5.815  0.0005  0.1530 -0.0799
25597OCT     C151193  17.372   1.271  22.990 -0.0480  0.0660 -0.2632
25597OCT     C251194  17.060   1.114  22.665 -0.2903  0.0279 -0.3290
25598OCT     C151195   7.807  17.397  12.463  0.3597  0.3023  0.1311
25598OCT     C251196   7.879  17.683  12.181 -0.1534 -0.5207 -0.0328
25599OCT     C151197  17.934  20.240   8.783 -0.3327 -0.0661  0.2410
25599OCT     C251198  18.220  20.547   8.521  0.0193  0.2957  0.2729
25600OCT     C151199  13.833   9.930   7.798 -0.1275  0.0269  0.0143
25600OCT     C251200  13.696   9.898   7.324 -0.2743 -0.1833  0.2637
25601OCT     C151201  11.996   8.962   7.882 -0.2281  0.0493 -0.0894
25601OCT     C251202  11.611   9.228   7.986 -0.0345  0.1055 -0.1029
25602OCT     C151203   7.473  19.893  17.817  0.0425 -0.1408 -0.2794
25602OCT     C251204   7.713  19.811  17.432 -0.2825 -0.2554  0.1187
25603OCT     C151205  16.530   9.199   5.451 -0.0658 -0.0314  0.2000
25603OCT     C251206  16.663   8.758   5.650  0.0706 -0.0297 -0.3749
25604OCT     C151207  23.169   7.638   4.118 -0.1983 -0.0937  0.0452
25604OCT     C251208  23.288   8.002   3.744  0.3397  0.1045  0.1574
25605OCT     C151209   9.942  16.140  19.889 -0.1036  0.0364 -0.0834
25605OCT     C251210   9.614  16.201  20.203  0.1597  0.0436  0.3648
25606OCT     C151211   1.367  21.813  13.390  0.0866  0.0644 -0.1590
25606OCT     C251212   1.448  21.361  13.486  0.3927  0.3533  0.0380
25607OCT     C151213  17.754  10.182   5.296  0.2427  0.1949 -0.1227
25607OCT     C251214  18.167   9.972   5.396  0.4257 -0.1845 -0.0091
25608OCT     C151215   0.047   5.009   1.050  0.0882  0.0641  0.2862
25608OCT     C251216  23.556   5.327   0.830 -0.3942  0.1543  0.3390
25609OCT     C151217  20.705  17.101  17.819 -0.1389  0.1862  0.1262
25609OCT     C251218  20.944  17.043  18.226 -0.2271  0.2962 -0.1549
25610OCT     C151219   7.955   5.743   8.556 -0.0149 -0.3585 -0.0801
25610OCT     C251220   8.237   5.470   8.255 -0.1899  0.3348  0.6052
25611OCT     C151221  17.005   7.572  19.746  0.1699 -0.0371 -0.3128
25611OCT     C251222  17.178   7.528  19.319 -0.1102  0.1989 -0.3370
25612OCT     C151223  20.820  22.057  12.806  0.1202  0.0820 -0.0062
25612OCT     C251224  20.387  22.082  12.645 -0.0381 -0.3259 -0.1989
25613OCT     C151225  22.359   4.976  14.132 -0.0733  0.2585  0.1942
25613OCT     C251226  21.926   5.098  14.001 -0.1835 -0.0737  0.1795
25614OCT     C151227   3.007  13.413  14.275  0.0020  0.3888  0.1384
25614OCT     C251228   2.897  13.829  14.036 -0.0876 -0.1412  0.0787
25615OCT     C151229   8.049   6.544   9.903  0.2140  0.1699 -0.0751
25615OCT     C251230   8.232   6.936   9.646  0.1172 -0.1515 -0.2387
25616OCT     C151231   6.940   8.086  20.192  0.0395 -0.0647 -0.1407
25616OCT     C251232   6.696   7.974  19.836  0.1390 -0.0633  0.1984
25617OCT     C151233  11.677   8.341   8.151  0.1490  0.0954  0.3254
25617OCT     C251234  11.323   8.170   7.975 -0.1796  0.4235  0.0905
25618OCT     C151235  11.465   2.345   5.901  0.1495  0.2198  0.1583
25618OCT     C251236  11.338   2.741   5.800  0.0634 -0.1063  0.4645
25619OCT     C151237  13.761  17.503  18.450 -0.1554  0.1918 -0.1443
25619OCT     C251238  14.061  17.439  18.097  0.2657 -0.3574  0.3496
25620OCT     C151239  10.659  14.981   4.734  0.1154 -0.0455 -0.1220
25620OCT     C251240  10.831  15.290   5.060 -0.1697  0.0912  0.0436
25621OCT     C151241  15.652  12.169  11.361  0.0817  0.0710  0.1099
25621OCT     C251242  15.421  12.552  11.158  0.0506 -0.2323  0.4560
25622OCT     C151243  17.911  16.491  18.567 -0.0257 -0.0918 -0.5039
25622OCT     C251244  17.883  16.237  18.960 -0.0478  0.1619 -0.1641
25623OCT     C151245  23.591  16.490  10.391 -0.1636  0.3470  0.1126
25623OCT     C251246  23.460  16.210  10.742  0.2172  0.1922  0.1217
25624OCT     C151247   9.844  13.669  18.231 -0.3854  0.1245 -0.0841
25624OCT     C251248   9.740  14.126  18.346  0.0074 -0.0031 -0.0406
25625OCT     C151249   3.391  14.038  10.741 -0.1737  0.0032  0.1121
25625OCT     C251250   3.229  14.021  11.142  0.0995 -0.1523 -0.6146
25626OCT     C151251  22.158  14.755  20.982  0.1065  0.0257 -0.2551
25626OCT     C251252  22.056  14.296  20.807 -0.3919  0.2437  0.0077
25627OCT     C151253  12.216   8.332   8.552  0.1003 -0.0424 -0.1738
25627OCT     C251254  11.926   8.714   8.398  0.0448  0.1527  0.1954
25628OCT     C151255   6.136   2.036  13.418  0.0183  0.3275 -0.0893
25628OCT     C251256   6.171   1.698  13.160  0.1891 -0.2446  0.4202
25629OCT     C151257  14.585  12.183   3.923  0.0809 -0.0815 -0.0767
25629OCT     C251258  14.798  12.475   4.135  0.1569  0.0158 -0.3182
25630OCT     C151259  18.164  20.609  23.187  0.0644  0.0704  0.1571
25630OCT     C251260  18.089  20.281  22.871  0.3159  0.1530  0.3793
25631OCT     C151261  21.279   8.720  16.161 -0.0311  0.2176 -0.3494
25631OCT     C251262  20.856   8.887  16.276 -0.0150 -0.2653 -0.1944
25632OCT     C151263   8.765   6.620  14.262 -0.4996  0.0849 -0.1082
25632OCT     C251264   8.388   6.335  14.434  0.1435 -0.1006  0.0674
25633OCT     C151265   3.658   2.726   7.275 -0.1019 -0.0643  0.0931
25633OCT     C251266   3.806   2.367   6.994 -0.3065  0.5218 -0.0348
25634OCT     C151267  13.030  20.100  15.184  0.3416  0.2519 -0.1633
25634OCT     C251268  13.332  19.854  14.906 -0.0578 -0.0056 -0.5419
25635OCT     C151269  16.765  22.541  12.295 -0.1282 -0.0649 -0.0195
25635OCT     C251270  16.964  22.435  11.846  0.0519 -0.0938  0.2268
25636OCT     C151271   9.313   0.873  23.363  0.0334 -0.0603  0.0313
25636OCT     C251272   9.376   0.728  22.912  0.4486 -0.0574 -0.1292
25637OCT     C151273   5.417  11.189   4.398  0.1524  0.1853 -0.2459
25637OCT     C251274   5.658  11.592   4.416 -0.1575  0.0731  0.3320
25638OCT     C151275  22.170  14.767  18.856  0.0202 -0.1116  0.0136
25638OCT     C251276  22.403  14.677  18.437 -0.0029 -0.2002 -0.0449
25639OCT     C151277  22.750  16.062  11.474  0.2227  0.1894  0.1975
25639OCT     C251278  23.180  16.068  11.403 -0.0439  0.0395 -0.1409
25640OCT     C151279  18.982   5.200   6.391  0.1381 -0.1062 -0.1200
25640OCT     C251280  18.805   5.396   6.784 -0.0276 -0.0959  0.0494
25641OCT     C151281   3.926  21.491   9.105  0.0492  0.0084  0.0226
25641OCT     C251282   4.093  21.855   9.368 -0.0248  0.1848  0.0840
25642OCT     C151283   7.333  23.564  20.165  0.0190 -0.1453  0.1085
25642OCT     C251284   7.442  23.095  20.143 -0.0922  0.0769  0.1757
25643OCT     C151285   1.594   9.280   9.057 -0.0809 -0.2564  0.0640
25643OCT     C251286   1.382   8.835   9.075 -0.4044  0.0818  0.0223
25644OCT     C151287  13.500  20.998  12.766 -0.2893  0.0950  0.0398
25644OCT     C251288  13.572  20.649  13.052  0.1519 -0.3262 -0.0322
25645OCT     C151289   7.917   8.025   8.408 -0.2550 -0.0712 -0.0914
25645OCT     C251290   8.227   8.234   8.692  0.2347  0.0054  0.1597
25646OCT     C151291  14.643   4.642  18.107 -0.1140 -0.1663 -0.5618
25646OCT     C251292  14.745   4.440  18.529 -0.0989  0.1182 -0.0344
25647OCT     C151293  10.534   1.604   5.008  0.2974 -0.3819  0.2322
25647OCT     C251294  10.901   1.958   4.976 -0.0397 -0.0768 -0.1031
25648OCT     C151295  19.387  11.440  13.596 -0.1360 -0.0069 -0.2311
25648OCT     C251296  19.536  11.878  13.458 -0.0639 -0.0886 -0.1075
25649OCT     C151297  13.099   6.111  21.447  0.0268  0.1777 -0.0941
25649OCT     C251298  13.047   6.055  21.909  0.3010  0.3069 -0.0923
25650OCT     C151299  14.151  13.011  14.446 -0.2036  0.3365  0.1706
25650OCT     C251300  13.977  12.875  14.085  0.1796 -0.2410 -0.0179
25651OCT     C151301   0.599  15.608   6.819 -0.2978  0.1253  0.0834
25651OCT     C251302   0.827  15.949   6.975 -0.0134  0.0460  0.3418
25652OCT     C151303  20.103  12.782  13.893 -0.2076 -0.0780  0.2062
25652OCT     C251304  20.028  12.508  14.287  0.0873  0.2481  0.0892
25653OCT     C151305  23.053  15.766  18.101 -0.0013  0.2184  0.1306
25653OCT     C251306  22.846  15.969  18.416  0.2737 -0.0270 -0.1834
25654OCT     C151307  13.025  19.278   2.175  0.2236  0.0111 -0.1564
25654OCT     C251308  12.620  19.244   1.923 -0.1807  0.0347 -0.0330
25655OCT     C151309  22.438  14.022   1.849 -0.2017  0.1208 -0.2579
25655OCT     C251310  22.715  14.050   2.275 -0.1227  0.4541  0.2230
25656OCT     C151311  13.293  12.723   5.527 -0.2727  0.0490 -0.3519
25656OCT     C251312  13.510  12.350   5.341 -0.0922 -0.1268 -0.2203
25657OCT     C151313  17.329   9.785   5.347  0.1408  0.1574 -0.1486
25657OCT     C251314  17.449   9.307   5.248  0.1661 -0.1812 -0.3308
25658OCT     C151315  15.423  12.220  16.966 -0.1762  0.0630 -0.0074
25658OCT     C251316  15.824  12.161  16.689  0.0213  0.2028  0.1902
25659OCT     C151317   0.077  19.269   4.054  0.3761 -0.0312 -0.0382
25659OCT     C251318  23.689  19.536   3.685 -0.0955  0.1577 -0.0281
25660OCT     C151319  17.997  15.929  20.350 -0.0252  0.1780  0.1164
25660OCT     C251320  17.728  16.277  20.514 -0.0884 -0.0853  0.1393
25661OCT     C151321   1.530  17.470  19.782  0.0845 -0.2696 -0.0785
25661OCT     C251322   1.352  17.794  20.064  0.1651  0.1474  0.0861
25662OCT     C151323   8.033  10.695   3.734  0.2262  0.0755 -0.2753
25662OCT     C251324   8.152  11.139   3.688 -0.1672 -0.3059 -0.1032
25663OCT     C151325   0.736   6.593   2.868 -0.1918 -0.0930 -0.2444
25663OCT     C251326   0.243   6.661   2.912 -0.1369 -0.0329  0.5815
25664OCT     C151327  23.275  23.422  12.937 -0.2076 -0.0364  0.1157
25664OCT     C251328  23.222  22.933  13.089 -0.3008  0.1151  0.2734
25665OCT     C151329  14.451   4.399   4.529  0.4732 -0.2557  0.0391
25665OCT     C251330  14.864   4.585   4.372 -0.1786 -0.0462 -0.0339
25666OCT     C151331  10.477  21.263  11.897 -0.1383  0.1670  0.0152
25666OCT     C251332  10.594  20.797  11.971  0.1240 -0.3574 -0.1163
25667OCT     C151333  12.128   7.951  18.440 -0.2519 -0.1001 -0.1406
25667OCT     C251334  12.139   7.770  18.051  0.2188  0.4464 -0.3108
25668OCT     C151335   7.368  15.006  10.297 -0.1127  0.2715  0.1058
25668OCT     C251336   6.968  15.324  10.199  0.3074  0.0326 -0.2176
25669OCT     C151337   8.571   8.985  18.347  0.0879 -0.0803  0.1607
25669OCT     C251338   8.328   9.178  18.685 -0.3692  0.3692 -0.2249
25670OCT     C151339  12.151   0.860  22.680  0.1640 -0.1342 -0.0825
25670OCT     C251340  11.653   0.767  22.666 -0.2473 -0.0059 -0.1355
25671OCT     C151341  22.119   0.512  23.735 -0.1731  0.2285 -0.1102
25671OCT     C251342  22.476   0.404  23.437  0.0720 -0.1462  0.3338
25672OCT     C151343   4.807  22.113   0.364  0.3317 -0.0979 -0.2463
25672OCT     C251344   4.943  22.497   0.546  0.0788 -0.0159  0.5276
25673OCT     C151345   0.287  15.590  12.340  0.0901  0.1562  0.2425
25673OCT     C251346   0.196  15.868  11.960  0.4328  0.1582  0.3135
25674OCT     C151347   2.727  11.071  11.536  0.1402 -0.0850  0.0756
25674OCT     C251348   3.027  11.404  11.591  0.1469 -0.0117  0.1986
25675OCT     C151349   1.243  19.535   9.334 -0.0998  0.0811  0.1263
25675OCT     C251350   1.166  19.999   9.093 -0.2447  0.2475  0.0705
25676OCT     C151351  22.097  14.039   3.627 -0.0497  0.3906  0.1224
25676OCT     C251352  22.013  14.312   4.000  0.0047  0.3026  0.2860
25677OCT     C151353   9.320  16.087  21.600 -0.3193 -0.0340 -0.2939
25677OCT     C251354   9.689  16.353  21.512 -0.0686 -0.1609 -0.0542
25678OCT     C151355  16.030   4.887  19.754 -0.1966 -0.0055 -0.4661
25678OCT     C251356  15.957   4.412  19.718  0.3078  0.0628 -0.0500
25679OCT     C151357   2.709  13.757  16.937 -0.0455 -0.1497 -0.0178
25679OCT     C251358   2.289  13.733  16.764  0.0559 -0.0778 -0.0414
25680OCT     C151359   9.462   2.357   4.018  0.1604 -0.1634 -0.3248
25680OCT     C251360   9.048   2.351   3.785  0.0554 -0.1157  0.0805
25681OCT     C151361   9.905   5.374  12.234 -0.2512  0.0941  0.0142
25681OCT     C251362   9.949   5.751  11.874 -0.4924  0.1385 -0.0665
25682OCT     C151363  12.517   5.704  19.638 -0.0439  0.0273 -0.0281
25682OCT     C251364  12.159   5.827  19.933 -0.0832 -0.0467  0.2281
25683OCT     C151365  13.391  23.250  16.851 -0.2320  0.0470  0.3916
25683OCT     C251366  13.246  23.164  16.432  0.3823 -0.0084  0.4259
25684OCT     C151367  22.574   0.913   2.124  0.0408 -0.0121  0.1946
25684OCT     C251368  22.853   0.881   2.499  0.0561  0.1971 -0.0309
25685OCT     C151369   0.974   4.258   1.923  0.0170 -0.0008  0.3246
25685OCT     C251370   1.012   3.799   1.701 -0.3408 -0.0189  0.0289
25686OCT     C151371  21.674  16.441  14.139  0.0316 -0.2428 -0.0731
25686OCT     C251372  21.525  16.902  14.213 -0.2912  0.2810 -0.2831
25687OCT     C151373   1.008  11.616  18.849 -0.0273 -0.1941 -0.1638
25687OCT     C251374   0.836  11.843  19.216  0.4051 -0.1231  0.1297
25688OCT     C151375  20.663  15.963   7.123 -0.1294  0.0400  0.0863
25688OCT     C251376  20.349  15.620   6.991 -0.0081  0.4164 -0.0870
25689OCT     C151377   4.071   9.606   0.894  0.3206 -0.3951  0.4949
25689OCT     C251378   3.656   9.453   1.037 -0.5532 -0.1665  0.0388
25690OCT     C151379   0.007   9.529   9.361 -0.3465 -0.1793 -0.0594
25690OCT     C251380   0.460   9.390   9.386  0.4554  0.2102  0.4093
25691OCT     C151381   2.472  22.134  23.260  0.0196 -0.0250  0.3657
25691OCT     C251382   2.264  22.066  22.835 -0.2214  0.1528 -0.4754
25692OCT     C151383  10.696  13.484  11.075 -0.0701 -0.0035  0.0486
25692OCT     C251384  10.702  13.971  11.105 -0.1121 -0.1274 -0.3048
25693OCT     C151385  13.604   1.907   6.721  0.0506  0.0531  0.3869
25693OCT     C251386  13.910   2.200   6.686 -0.1874 -0.4906  0.0876
25694OCT     C151387  12.109   8.115   0.210 -0.0249  0.1378  0.2361
25694OCT     C251388  12.084   8.351   0.613 -0.1295 -0.0161  0.3837
25695OCT     C151389  16.632  11.325   1.213 -0.0940 -0.1818  0.0555
25695OCT     C251390  16.244  11.073   1.024 -0.0493  0.1642  0.1997
25696OCT     C151391   3.165   1.084  16.349 -0.1508  0.1894  0.1365
25696OCT     C251392   3.120   0.609  16.477  0.3142 -0.0487 -0.4268
25697OCT     C151393  16.520  16.744   0.989 -0.0817  0.0392 -0.1951
25697OCT     C251394  16.848  17.026   0.863 -0.1300 -0.0890  0.0312
25698OCT     C151395  18.769   6.610  18.719  0.4003  0.0386  0.1133
25698OCT     C251396  18.312   6.408  18.739  0.0450  0.2384 -0.4407
25699OCT     C151397  22.122   5.389   4.805  0.2488  0.0770  0.1161
25699OCT     C251398  22.125   5.312   5.224  0.4839 -0.0878 -0.0852
25700OCT     C151399   0.805   3.791   3.010  0.1892 -0.4202 -0.2807
25700OCT     C251400   0.608   3.582   2.608 -0.0566  0.0922 -0.0042
25701OCT     C151401   4.011  19.762  16.843 -0.1734 -0.0072 -0.0943
25701OCT     C251402   3.965  20.207  16.941  0.1066 -0.4521  0.0012
25702OCT     C151403  18.476   9.436   5.146  0.0861  0.0582 -0.2041
25702OCT     C251404  18.062   9.606   4.975 -0.2018  0.1791  0.1785
25703OCT     C151405  13.471  15.253  20.875  0.2265  0.1679 -0.1366
25703OCT     C251406  13.882  15.307  21.128  0.3334  0.0623  0.1056
25704OCT     C151407  13.448  14.316   8.088 -0.3557  0.1294 -0.0269
25704OCT     C251408  13.787  14.602   8.132  0.2543 -0.0170  0.1493
25705OCT     C151409  16.338   5.693   5.450 -0.1107 -0.0026 -0.1539
25705OCT     C251410  16.539   5.314   5.346 -0.1892  0.2890  0.1090
25706OCT     C151411  17.392   3.642   9.046  0.5363  0.2812  0.1859
25706OCT     C251412  17.665   3.666   9.402 -0.4238  0.1155 -0.4011
25707OCT     C151413  18.101   3.860   7.574 -0.4143  0.1984  0.2220
25707OCT     C251414  17.791   4.100   7.694 -0.3981  0.0813  0.0654
25708OCT     C151415   1.158   3.415   6.775  0.0450 -0.1335  0.2693
25708OCT     C251416   1.417   3.795   6.737  0.2091  0.0198  0.2619
25709OCT     C151417  20.118  16.381  17.434  0.1604 -0.1848 -0.0186
25709OCT     C251418  20.599  16.325  17.501 -0.0883  0.5116  0.0274
25710OCT     C151419  19.256  17.099   2.011 -0.0840 -0.3611 -0.3971
25710OCT     C251420  19.249  17.290   1.552  0.0814 -0.1952 -0.3568
25711OCT     C151421  12.438  14.933   2.004 -0.0691 -0.0912  0.0286
25711OCT     C251422  12.220  15.392   2.080 -0.4699  0.0365  0.2101
25712OCT     C151423  13.215   6.275   6.086 -0.2914  0.1515  0.0876
25712OCT     C251424  13.491   6.480   6.384  0.1476  0.1071 -0.1140
25713OCT     C151425   8.464  17.339  21.840  0.1140  0.1559 -0.1267
25713OCT     C251426   8.212  16.918  21.730 -0.1723 -0.0194  0.0805
25714OCT     C151427   0.810   2.612  12.441 -0.0242 -0.0742  0.0691
25714OCT     C251428   1.301   2.590  12.369  0.1937 -0.0379  0.1372
25715OCT     C151429  20.231  15.142   3.450 -0.2237 -0.3288 -0.0725
25715OCT     C251430  20.514  15.507   3.527 -0.2651 -0.3806  0.0402
25716OCT     C151431  12.686   0.674  12.769 -0.2293  0.1149  0.0738
25716OCT     C251432  12.757   0.371  13.156  0.0013  0.3244 -0.0970
25717OCT     C151433  15.134  17.684  23.620  0.0746 -0.1041 -0.0970
25717OCT     C251434  14.699  17.719  23.707 -0.2379 -0.1755  0.1959
25718OCT     C151435  10.470   3.911  13.889  0.1500  0.1778 -0.0515
25718OCT     C251436  10.496   3.519  13.633 -0.1280  0.0712 -0.0270
25719OCT     C151437  19.859  19.191   4.177  0.1645 -0.4078 -0.1704
25719OCT     C251438  19.626  19.535   4.464  0.0241  0.2783  0.1429
25720OCT     C151439  22.792  12.406  22.629 -0.4219 -0.0027  0.1589
25720OCT     C251440  23.030  12.221  22.959 -0.2083  0.0096  0.1923
25721OCT     C151441  22.568   2.965  20.374  0.1328 -0.0343  0.1644
25721OCT     C251442  22.140   3.144  20.263  0.0322 -0.2469 -0.0652
25722OCT     C151443   4.950  11.186   1.804  0.2102 -0.1283  0.3968
25722OCT     C251444   5.194  10.793   1.711 -0.2823  0.1216  0.0479
25723OCT     C151445   9.907   6.301   7.180  0.1509 -0.3708 -0.1422
25723OCT     C251446   9.696   6.318   6.804  0.1475  0.1117 -0.2787
25724OCT     C151447   8.444  11.715  16.158  0.0254 -0.0735  0.1336
25724OCT     C251448   8.449  11.425  15.828  0.1585 -0.2012  0.0762
25725OCT     C151449   5.164  21.204  20.644 -0.2253 -0.0923 -0.0015
25725OCT     C251450   4.759  21.304  20.401  0.3226  0.0895 -0.3627
25726OCT     C151451   0.856  15.220  18.532  0.2428 -0.0455 -0.1598
25726OCT     C251452   0.619  15.135  18.100  0.2832  0.1220 -0.0000
25727OCT     C151453   2.738   0.265  11.250 -0.1613  0.1130 -0.0507
25727OCT     C251454   2.756  23.676  11.594 -0.3353  0.2184  0.1215
25728OCT     C151455   9.937  22.676  10.111 -0.2805  0.0776 -0.1482
25728OCT     C251456  10.435  22.680  10.061  0.1322 -0.0895 -0.1184
25729OCT     C151457   4.707   4.417   0.994  0.2212  0.1177  0.1579
25729OCT     C251458   4.603   4.902   1.023 -0.3176  0.1289  0.4349
25730OCT     C151459  22.562   8.511   5.483  0.2211 -0.1791 -0.0589
25730OCT     C251460  22.210   8.571   5.179 -0.0489  0.2622  0.0312
25731OCT     C151461  23.249  20.509   2.598 -0.2307 -0.2966 -0.0742
25731OCT     C251462  23.042  20.192   2.817 -0.1476  0.2687 -0.4281
25732OCT     C151463   7.300   3.051  17.114  0.1571  0.0730 -0.0062
25732OCT     C251464   7.692   2.891  17.359  0.2660  0.1978  0.0117
25733OCT     C151465  13.508  16.925  14.316  0.0545  0.1457 -0.1231
25733OCT     C251466  13.047  17.024  14.347 -0.0671  0.2436  0.0681
25734OCT     C151467  11.207   5.995  19.545 -0.2854  0.0184  0.3760
25734OCT     C251468  11.613   6.018  19.217  0.0517 -0.0815  0.3045
25735OCT     C151469  21.278   8.921  11.080 -0.0919 -0.0554  0.2492
25735OCT     C251470  20.904   9.130  11.194  0.0119  0.0410 -0.7241
25736OCT     C151471  20.608   7.169  10.310  0.2509 -0.1338  0.3387
25736OCT     C251472  20.586   7.239  10.733  0.3351  0.1222  0.5863
25737OCT     C151473  14.932  19.554  19.661 -0.1719  0.2936 -0.3066
25737OCT     C251474  14.761  19.336  19.295 -0.3995  0.0693  0.0847
25738OCT     C151475   0.539   4.649  16.323 -0.0460  0.3009 -0.1231
25738OCT     C251476   0.593   4.379  15.930  0.0233 -0.0170  0.1273
25739OCT     C151477  16.529  15.214  21.020  0.0254 -0.0325 -0.0197
25739OCT     C251478  16.014  15.179  20.933  0.2149 -0.0903  0.1887
25740OCT     C151479   1.107   2.407  12.801 -0.1234 -0.2595  0.1250
25740OCT     C251480   0.859   1.991  12.892  0.0390  0.1958  0.0407
25741OCT     C151481  20.829  12.618   2.637 -0.0583  0.1417  0.0820
25741OCT     C251482  20.994  13.032   2.552  0.0234  0.1012  0.1930
25742OCT     C151483  11.526  11.123   4.179  0.0611 -0.0747 -0.0488
25742OCT     C251484  11.094  11.206   4.185  0.1638  0.2555  0.0973
25743OCT     C151485   9.530  21.453  15.282  0.1831 -0.4437  0.0251
25743OCT     C251486   9.605  21.056  15.015  0.3439  0.0561  0.0877
25744OCT     C151487  19.243   6.415  13.786 -0.0648  0.2704 -0.0198
25744OCT     C251488  19.559   6.193  13.500 -0.1231  0.0134  0.0279
25745OCT     C151489  21.616   3.329  19.792 -0.0028  0.3765  0.3462
25745OCT     C251490  21.956   3.440  19.458  0.0930 -0.0157 -0.1434
25746OCT     C151491  22.020  23.223  12.975  0.1541  0.1546 -0.1779
25746OCT     C251492  22.008  23.560  13.291 -0.1350  0.3680  0.0751
25747OCT     C151493  12.168  21.399  13.908  0.0454  0.1743 -0.0838
25747OCT     C251494  12.093  20.989  13.779  0.1376  0.1319 -0.5351
25748OCT     C151495  17.408  12.542   2.990  0.0623  0.1399 -0.1473
25748OCT     C251496  17.709  12.269   3.147 -0.3405  0.0379  0.0820
25749OCT     C151497   0.715  18.455   2.883 -0.1459  0.1563 -0.1340
25749OCT     C251498   0.621  18.875   2.714 -0.3455 -0.2973  0.1424
25750OCT     C151499   4.958  10.761  17.982 -0.0607  0.0028  0.2829
25750OCT     C251500   5.045  10.407  18.306  0.1078 -0.1325  0.2440
25751OCT     C151501   6.152  20.664  10.154 -0.0911 -0.2519  0.0620
25751OCT     C251502   6.651  20.570  10.054 -0.2928 -0.2020  0.0732
25752OCT     C151503  18.011   2.575  21.884  0.0230 -0.0352  0.2855
25752OCT     C251504  17.950   2.243  21.592 -0.0816 -0.0087 -0.1622
25753OCT     C151505  22.127   6.691   9.518 -0.4038  0.0773  0.0003
25753OCT     C251506  22.210   6.824  10.016  0.0198  0.0975 -0.0386
25754OCT     C151507   1.260  15.233   7.517 -0.0173  0.0253 -0.4584
25754OCT     C251508   1.313  15.363   7.102 -0.0029 -0.0416 -0.1996
25755OCT     C151509  22.134  18.380  12.809 -0.0886 -0.3783  0.0734
25755OCT     C251510  22.089  18.721  13.148  0.0710  0.0982 -0.2533
25756OCT     C151511  23.712   9.390   0.961  0.1020 -0.2795  0.0501
25756OCT     C251512   0.382   9.114   1.127  0.2018 -0.1688  0.2658
25757OCT     C151513  15.526   9.315  17.654 -0.2319 -0.0803 -0.0816
25757OCT     C251514  15.242   9.522  17.996 -0.0449  0.0883  0.5673
25758OCT     C151515  22.876  13.160   5.829  0.0345 -0.3657 -0.2229
25758OCT     C251516  22.806  13.600   5.785 -0.0048 -0.2418  0.0746
25759OCT     C151517  12.786  15.196  16.112 -0.1153 -0.0665  0.1707
25759OCT     C251518  12.633  14.848  15.853 -0.3449  0.1723  0.1738
25760OCT     C151519  15.244  21.472  18.335  0.3912  0.0460 -0.3416
25760OCT     C251520  15.206  21.711  17.975 -0.2024  0.0458 -0.2322
25761OCT     C151521   6.809  14.151  11.296 -0.0324 -0.1314 -0.1733
25761OCT     C251522   6.690  14.223  10.815 -0.2332 -0.4902 -0.1227
25762OCT     C151523  10.974  18.256   1.418  0.2515 -0.1520  0.0299
25762OCT     C251524  10.925  18.378   1.883  0.0275 -0.1026 -0.0969
25763OCT     C151525   8.489   1.010   1.868  0.1473  0.0414  0.1163
25763OCT     C251526   8.229   0.698   1.596 -0.2320  0.2466 -0.1586
25764OCT     C151527   7.877  22.561  14.487 -0.1167  0.2819  0.0100
25764OCT     C251528   7.469  22.424  14.659 -0.1883 -0.1454  0.0825
25765OCT     C151529   9.992   6.236  18.680 -0.7241  0.1125 -0.2035
25765OCT     C251530  10.524   6.294  18.663 -0.1947  0.0516 -0.1599
25766OCT     C151531  19.588   1.508   0.748  0.1024  0.2147 -0.2676
25766OCT     C251532  19.178   1.241   0.702  0.0860  0.1133  0.0507
25767OCT     C151533  22.006  14.821   6.644  0.0361  0.1139 -0.2118
25767OCT     C251534  21.533  14.859   6.691 -0.3900 -0.3299 -0.0575
25768OCT     C151535  15.193  16.488  21.006  0.1254 -0.0459 -0.0282
25768OCT     C251536  15.381  16.863  21.044  0.1266 -0.1164 -0.0784
25769OCT     C151537  18.697   3.772  21.866  0.0013 -0.0151  0.0075
25769OCT     C251538  18.748   3.726  22.316 -0.0722  0.2578  0.0272
25770OCT     C151539   3.395  13.157   5.797  0.3224  0.2484  0.2049
25770OCT     C251540   2.994  13.034   6.068 -0.4007 -0.2343  0.0987
25771OCT     C151541  12.736  16.345   4.281 -0.0722 -0.3259  0.0532
25771OCT     C251542  13.050  16.442   4.642 -0.0932  0.0795 -0.1621
25772OCT     C151543   5.666   1.547  17.086 -0.0276  0.3516 -0.1647
25772OCT     C251544   5.910   1.195  17.214 -0.1889 -0.1211 -0.2681
25773OCT     C151545  13.655  22.615  17.185 -0.3368 -0.0612 -0.2265
25773OCT     C251546  13.968  22.392  16.874  0.2240 -0.3071 -0.0495
25774OCT     C151547   9.479  12.638   2.613 -0.1417 -0.1765 -0.0938
25774OCT     C251548   9.309  12.574   2.146 -0.0179 -0.0326  0.1452
25775OCT     C151549   5.370  10.161  13.326  0.4053 -0.3345  0.0942
25775OCT     C251550   5.722  10.346  13.055  0.4910 -0.2015 -0.0208
25776OCT     C151551  23.050   6.015  10.825 -0.0520 -0.2731  0.3294
25776OCT     C251552  23.167   5.685  11.173 -0.1051  0.0575  0.0731
25777OCT     C151553   9.901  11.866  11.911 -0.0995  0.3340 -0.1306
25777OCT     C251554  10.336  11.829  12.061 -0.0896  0.1395 -0.2241
25778OCT     C151555   6.708   1.583  13.709 -0.3823  0.2980  0.2771
25778OCT     C251556   6.230   1.605  13.626 -0.1834  0.4650  0.1202
25779OCT     C151557  18.548  10.634  23.569  0.0428  0.0161 -0.1428
25779OCT     C251558  18.735  11.017  23.583  0.2546  0.2586  0.2900
25780OCT     C151559  12.296  16.464  16.750  0.1889  0.0643  0.0476
25780OCT     C251560  11.982  16.330  16.430  0.0533 -0.2984 -0.0396
25781OCT     C151561   3.976   8.946   9.712  0.0690  0.1946  0.2176
25781OCT     C251562   3.693   8.644   9.431 -0.0654  0.1844  0.2595
25782OCT     C151563  20.663  17.632  15.312 -0.0251 -0.0891  0.1362
25782OCT     C251564  20.745  18.076  15.240 -0.3326  0.2557 -0.1712
25783OCT     C151565  11.415  19.849   9.963  0.6621 -0.2739  0.3981
25783OCT     C251566  11.704  20.204   9.927  0.0202 -0.6029  0.3062
25784OCT     C151567   2.581   6.807   4.668  0.1672 -0.0821 -0.1160
25784OCT     C251568   2.927   6.621   4.410  0.1036 -0.3260 -0.2299
25785OCT     C151569   9.883   0.762   3.217 -0.0410  0.0908 -0.4136
25785OCT     C251570   9.424   0.872   3.178  0.2174 -0.0201 -0.0171
25786OCT     C151571   2.695   6.238  14.541  0.0780  0.3944 -0.0706
25786OCT     C251572   2.851   6.660  14.538 -0.2199 -0.1942  0.0164
25787OCT     C151573  20.912  12.480   2.130  0.1080 -0.3293  0.1864
25787OCT     C251574  21.095  12.594   1.681  0.0143  0.3628  0.1828
25788OCT     C151575  12.297  13.392   6.010 -0.3712  0.1227  0.0647
25788OCT     C251576  12.535  13.259   5.638 -0.0440  0.0872 -0.1722
25789OCT     C151577  15.030  13.675  15.383  0.2012 -0.1473 -0.2393
25789OCT     C251578  14.913  14.038  15.145  0.3055  0.1125 -0.4165
25790OCT     C151579   4.262  14.137  10.951  0.1105 -0.0292 -0.1792
25790OCT     C251580   4.554  13.815  11.076 -0.1503  0.4538  0.0785
25791OCT     C151581   0.069  23.347   9.906 -0.1311 -0.1146  0.0319
25791OCT     C251582  23.396  23.531   9.855  0.3186 -0.0451  0.0424
25792OCT     C151583   0.241   4.919  20.653 -0.1484  0.1015  0.3817
25792OCT     C251584   0.249   5.225  20.991 -0.4176 -0.2807 -0.0810
25793OCT     C151585  18.745   3.454  16.885 -0.1501  0.0101 -0.0900
25793OCT     C251586  18.715   3.003  16.993  0.0906  0.2433  0.2813
25794OCT     C151587   1.369  10.874  14.245  0.1659 -0.0496 -0.2493
25794OCT     C251588   1.319  10.796  14.733  0.2318  0.3731 -0.1502
25795OCT     C151589  20.482   9.404   8.732 -0.1591  0.1427  0.1755
25795OCT     C251590  20.796   9.359   8.347  0.0266  0.0136  0.0100
25796OCT     C151591  23.669   5.617  12.276 -0.0601 -0.0919 -0.0854
25796OCT     C251592   0.374   5.615  12.494  0.3099  0.0667 -0.3340
25797OCT     C151593   8.801   2.800   8.234  0.1632 -0.3036  0.2450
25797OCT     C251594   9.086   2.811   8.581 -0.0384 -0.2972 -0.1246
25798OCT     C151595  18.636  17.800   5.321  0.2874  0.1038 -0.0288
25798OCT     C251596  18.592  17.500   5.650 -0.0104 -0.0389  0.0155
25799OCT     C151597  22.070  10.532  20.986  0.1453  0.0272 -0.0461
25799OCT     C251598  22.315  10.902  21.168  0.0506  0.0600  0.0145
25800OCT     C151599   2.636  18.022  21.906 -0.2367 -0.0588  0.1528
25800OCT     C251600   2.278  18.220  22.107  0.0915  0.2227  0.0342
25801OCT     C151601   7.943  15.048   7.980  0.3571 -0.0829 -0.0452
25801OCT     C251602   8.337  14.909   7.943 -0.0351 -0.1724  0.4949
25802OCT     C151603  15.892   0.294  19.257 -0.0667 -0.1656  0.2319
25802OCT     C251604  16.181   0.435  18.841  0.1397  0.4791  0.0644
25803OCT     C151605   2.408  11.605   1.499  0.0280  0.0258 -0.1329
25803OCT     C251606   2.208  12.068   1.481 -0.0354 -0.1455 -0.1903
25804OCT     C151607  23.228  21.219  22.850  0.0110 -0.0636 -0.0314
25804OCT     C251608  23.053  20.838  23.033  0.1308  0.1843 -0.1312
25805OCT     C151609  15.312  13.919   4.365  0.1315 -0.0880  0.2600
25805OCT     C251610  14.898  14.150   4.568  0.0415  0.1595 -0.0190
25806OCT     C151611   8.997   6.875  16.308  0.2114 -0.0841  0.1738
25806OCT     C251612   9.310   6.700  15.957  0.0509  0.3490 -0.0337
25807OCT     C151613   5.517  21.658  18.955 -0.2065 -0.0214 -0.0078
25807OCT     C251614   5.664  21.607  19.405 -0.2148 -0.0636 -0.2972
25808OCT     C151615   3.794  18.826  17.180  0.0796  0.0893  0.0618
25808OCT     C251616   4.035  18.385  17.240  0.2464 -0.0983 -0.0441
25809OCT     C151617   4.665   8.352  13.608  0.0101 -0.1855 -0.0018
25809OCT     C251618   4.390   7.950  13.615  0.2264 -0.1045 -0.0713
25810OCT     C151619  14.759  15.057  22.068  0.1985  0.3714  0.1674
25810OCT     C251620  14.895  14.871  22.487  0.1077 -0.1686 -0.0605
25811OCT     C151621  16.059   4.851   8.036 -0.2607  0.0489 -0.3845
25811OCT     C251622  15.953   4.458   7.853 -0.6376  0.0968  0.0349
25812OCT     C151623   8.473  13.991   9.235 -0.0520 -0.0565 -0.1008
25812OCT     C251624   8.007  13.989   9.282 -0.1074  0.1793  0.1305
25813OCT     C151625   1.677  14.560   6.576 -0.1886 -0.1573 -0.3070
25813OCT     C251626   1.377  14.750   6.293 -0.0553  0.0864 -0.0105
25814OCT     C151627   5.717  21.174  14.193  0.0531 -0.3605  0.0960
25814OCT     C251628   5.729  20.894  13.816  0.0668 -0.0610 -0.0204
25815OCT     C151629   6.363   9.781   5.292 -0.0587  0.3786  0.0412
25815OCT     C251630   6.776   9.514   5.279  0.0334  0.5032  0.1836
25816OCT     C151631  23.407  15.689   3.717 -0.0727 -0.2813 -0.3029
25816OCT     C251632  23.709  15.883   4.036  0.3155 -0.0481  0.1082
25817OCT     C151633  10.275   1.849  13.956 -0.3716 -0.1103  0.0579
25817OCT     C251634   9.889   1.827  13.683 -0.1043 -0.1397 -0.0336
25818OCT     C151635  10.684  22.857  22.678  0.2262 -0.4048 -0.2298
25818OCT     C251636  10.403  22.866  23.066  0.0114 -0.1600  0.1606
25819OCT     C151637  22.428   4.742  21.788  0.0144 -0.1113  0.1076
25819OCT     C251638  21.968   4.549  21.775 -0.0024 -0.3567 -0.1367
25820OCT     C151639  13.821   8.758   1.615 -0.1956 -0.1999 -0.1744
25820OCT     C251640  13.659   8.358   1.737  0.1299  0.3488 -0.0591
25821OCT     C151641   4.885   5.778   5.313  0.1038  0.0981 -0.1898
25821OCT     C251642   4.547   5.706   5.042  0.0413  0.2704 -0.2172
25822OCT     C151643   8.670  15.179   3.697 -0.1338  0.2231  0.1741
25822OCT     C251644   8.855  14.794   3.844 -0.1640  0.5454 -0.2309
25823OCT     C151645  18.919  17.877  22.409  0.1159 -0.1791  0.2486
25823OCT     C251646  19.087  17.457  22.509  0.1150  0.0340  0.1660
25824OCT     C151647  19.570   5.239  23.443  0.1448  0.3412 -0.0883
25824OCT     C251648  19.912   4.949  23.614  0.0173 -0.3091 -0.2667
25825OCT     C151649   7.625   8.615  11.460 -0.0988 -0.1291 -0.0960
25825OCT     C251650   7.372   8.951  11.603  0.0807 -0.0515 -0.1275
25826OCT     C151651  13.960   1.893   0.052  0.0773  0.1089 -0.1286
25826OCT     C251652  13.665   1.583   0.116  0.1471  0.4430  0.0078
25827OCT     C151653   3.333  18.089  12.393 -0.3476  0.2507 -0.0046
25827OCT     C251654   3.184  18.190  12.826 -0.1134  0.0433  0.0830
25828OCT     C151655   1.082   9.655  14.802 -0.1495  0.1533 -0.4561
25828OCT     C251656   1.316   9.992  14.886 -0.0176  0.0533 -0.1290
25829OCT     C151657   3.815  15.808  20.998  0.0728  0.1304 -0.4344
25829OCT     C251658   4.178  15.855  21.284 -0.0804  0.1735  0.1218
25830OCT     C151659  23.425  18.402  15.630  0.0703 -0.0256  0.0706
25830OCT     C251660  23.714  18.205  15.935 -0.4739  0.4692 -0.0129
25831OCT     C151661  17.906  23.542   0.128 -0.0055 -0.0218  0.1453
25831OCT     C251662  17.783   0.067  23.509 -0.0244  0.0932  0.1781
25832OCT     C151663  20.916  10.777   6.316 -0.0582 -0.2778  0.2170
25832OCT     C251664  20.505  10.651   6.519 -0.1221  0.0426  0.0624
25833OCT     C151665   0.503   4.258   7.166 -0.1874  0.2201 -0.0636
25833OCT     C251666   0.555   4.678   7.223 -0.0276  0.2135  0.0152
25834OCT     C151667  15.931   6.800  12.199 -0.4576 -0.0918 -0.2372
25834OCT     C251668  15.759   7.263  12.225  0.0803  0.2137  0.1437
25835OCT     C151669   3.757   4.367  10.308 -0.0193 -0.3513  0.0587
25835OCT     C251670   3.708   4.437  10.757  0.0784  0.1616  0.0082
25836OCT     C151671   9.193  20.170   5.295 -0.1090  0.1818  0.0616
25836OCT     C251672   9.057  20.508   4.950  0.0231  0.2847 -0.0772
25837OCT     C151673  15.519  11.201   7.638  0.0807 -0.0176  0.1946
25837OCT     C251674  15.646  11.210   7.209 -0.0759  0.0957 -0.1750
25838OCT     C151675  18.805   7.021   2.973 -0.0804 -0.1351 -0.0222
25838OCT     C251676  18.766   7.541   2.996 -0.1599 -0.1917  0.0103
25839OCT     C151677   5.188  12.028  19.365 -0.1592  0.4182  0.2269
25839OCT     C251678   4.755  12.274  19.418  0.5133 -0.1186 -0.2835
25840OCT     C151679  11.358   4.996  11.979 -0.0617 -0.2112  0.2782
25840OCT     C251680  11.607   5.169  12.284 -0.0318  0.3661  0.0535
25841OCT     C151681  19.333  18.738   5.433 -0.0695  0.0172 -0.2136
25841OCT     C251682  19.500  18.472   5.111  0.0404  0.2389  0.0913
25842OCT     C151683  21.709   1.910   2.994 -0.2115  0.0414 -0.1135
25842OCT     C251684  21.801   2.104   2.586 -0.0378 -0.0760  0.2901
25843OCT     C151685  23.384   6.089   1.493  0.0705 -0.3359  0.0273
25843OCT     C251686  23.054   5.840   1.737 -0.2294  0.1384 -0.0069
25844OCT     C151687  21.405   9.402   7.671  0.1071 -0.1694 -0.0903
25844OCT     C251688  21.765   9.614   7.384 -0.1870 -0.2002 -0.0742
25845OCT     C151689  18.596   3.761   2.510 -0.1334 -0.2387  0.2699
25845OCT     C251690  19.001   3.761   2.738  0.1675  0.0787  0.0294
25846OCT     C151691   5.345  16.261  15.423  0.2355 -0.1031  0.5281
25846OCT     C251692   4.995  15.887  15.383  0.1420  0.0455  0.1080
25847OCT     C151693  15.851   3.677  13.316 -0.2833 -0.4146 -0.2074
25847OCT     C251694  16.271   3.650  13.149  0.3403  0.1751 -0.1775
25848OCT     C151695  16.122  19.373   9.757 -0.0014 -0.1780  0.3207
25848OCT     C251696  15.928  19.343  10.196 -0.1078  0.6740  0.1640
25849OCT     C151697  22.235   5.890  15.550  0.1380 -0.2720 -0.1227
25849OCT     C251698  21.954   6.038  15.231  0.2603 -0.1142 -0.0026
25850OCT     C151699   8.001   1.160  21.746 -0.1526  0.3125  0.4460
25850OCT     C251700   7.552   1.249  21.869  0.1832  0.0841 -0.2168
25851OCT     C151701   9.901   2.893  14.695 -0.1094 -0.0596  0.2786
25851OCT     C251702   9.837   3.329  14.754  0.1981  0.2297  0.0368
25852OCT     C151703   3.471  14.487  15.885  0.2477 -0.0822  0.0543
25852OCT     C251704   3.520  14.842  15.618  0.1354 -0.2588 -0.1734
25853OCT     C151705  19.741   9.906  11.459  0.0925 -0.1846 -0.1396
25853OCT     C251706  19.615   9.612  11.119 -0.0298 -0.1157 -0.1393
25854OCT     C151707   8.559  21.698   7.036 -0.0130 -0.0545 -0.1511
25854OCT     C251708   8.564  21.792   6.570 -0.3092 -0.1877  0.2127
25855OCT     C151709   6.296   4.677  20.560 -0.1305  0.4294 -0.0893
25855OCT     C251710   6.158   5.054  20.323  0.0690  0.1646 -0.0168
25856OCT     C151711   6.683   0.487  13.417  0.2487  0.1200  0.0833
25856OCT     C251712   6.723   0.304  13.889 -0.3339  0.0105  0.1720
25857OCT     C151713  15.242  16.284   0.016  0.0485 -0.2501 -0.0656
25857OCT     C251714  14.866  16.212  23.489  0.0337 -0.0095  0.4721
25858OCT     C151715  11.914   6.248   8.547 -0.1081 -0.3353 -0.3245
25858OCT     C251716  11.920   5.973   8.154 -0.2311  0.0602  0.0427
25859OCT     C151717  10.729  18.027  13.874 -0.2266 -0.1344  0.0181
25859OCT     C251718  11.113  17.920  14.151  0.0932 -0.0943  0.0977
25860OCT     C151719   8.034  19.684   8.135 -0.3216 -0.0932 -0.4619
25860OCT     C251720   8.143  19.516   8.496 -0.2987 -0.0539 -0.0935
25861OCT     C151721  10.907   2.494  10.695 -0.3804 -0.5008 -0.0203
25861OCT     C251722  10.893   2.197  11.108  0.1908  0.3334  0.3675
25862OCT     C151723   7.989  16.308   8.980 -0.5746  0.1117 -0.0503
25862OCT     C251724   7.503  16.319   8.994 -0.0497 -0.2770 -0.1185
25863OCT     C151725   1.204   5.448  19.463  0.2238 -0.1759  0.0555
25863OCT     C251726   1.333   5.556  19.018 -0.1098 -0.2834 -0.0987
25864OCT     C151727  14.106   8.686  17.678  0.1340  0.4683 -0.1166
25864OCT     C251728  14.016   9.138  17.702 -0.0315 -0.2401  0.0970
25865OCT     C151729   8.669   3.792  23.347  0.3353 -0.0960  0.2339
25865OCT     C251730   8.303   3.522  23.093  0.0134  0.0522  0.2887
25866OCT     C151731  19.013  11.347   4.054 -0.2471 -0.1060 -0.2976
25866OCT     C251732  19.322  11.742   4.092  0.0327 -0.1484  0.2571
25867OCT     C151733  10.489  10.870   3.244  0.0294  0.0107  0.3367
25867OCT     C251734  10.409  10.502   2.919  0.0612 -0.0602  0.0352
25868OCT     C151735   9.438  16.334  13.236 -0.0009 -0.0472 -0.1070
25868OCT     C251736   9.420  15.896  13.081 -0.0524  0.5647  0.1152
25869OCT     C151737  19.329   5.786   9.793  0.3537 -0.1160 -0.2122
25869OCT     C251738  19.061   6.161   9.651 -0.2354  0.0591  0.0600
25870OCT     C151739  14.195  20.207  14.574  0.0199  0.2394 -0.0189
25870OCT     C251740  14.555  20.438  14.308  0.7308 -0.2026 -0.1966
25871OCT     C151741  15.086   9.922   2.849  0.1046  0.0368  0.0188
25871OCT     C251742  15.033   9.454   2.843 -0.1080  0.1651  0.0020
25872OCT     C151743  10.600  20.542  20.574 -0.2630  0.0855  0.1120
25872OCT     C251744  10.408  20.851  20.902  0.0603 -0.2954 -0.2912
25873OCT     C151745  15.036  19.266   8.315  0.2210  0.0918 -0.3012
25873OCT     C251746  14.889  19.615   8.584  0.1868 -0.1279 -0.1493
25874OCT     C151747  11.309  11.548  20.116  0.1177  0.0257 -0.0220
25874OCT     C251748  11.231  11.186  20.363  0.3274  0.0646  0.0068
25875OCT     C151749   6.584  20.698   7.156  0.3479 -0.5321 -0.1378
25875OCT     C251750   6.448  20.670   7.609 -0.3759 -0.0647 -0.0284
25876OCT     C151751  14.276   1.493  19.226 -0.0040 -0.1513  0.0773
25876OCT     C251752  14.195   1.623  19.684 -0.0836 -0.0825 -0.1153
25877OCT     C151753  19.147  15.677  17.145 -0.0404 -0.3277 -0.2690
25877OCT     C251754  19.551  15.854  17.256  0.0934 -0.1189  0.0673
25878OCT     C151755   1.765  11.078  18.349 -0.0888  0.0525  0.0457
25878OCT     C251756   1.681  11.386  17.962 -0.5079 -0.0115 -0.4357
25879OCT     C151757  12.768  14.048  21.460 -0.0648  0.0699 -0.2228
25879OCT     C251758  12.921  14.490  21.352 -0.0001  0.2241 -0.1014
25880OCT     C151759  17.106  15.353  13.378 -0.0214  0.0148 -0.0127
25880OCT     C251760  17.025  15.760  13.635 -0.0596  0.1749 -0.2923
25881OCT     C151761   4.113   6.849  12.961  0.1475 -0.3988 -0.2417
25881OCT     C251762   4.003   6.813  13.460 -0.1688 -0.2052  0.0960
25882OCT     C151763   0.878  18.383  11.157  0.0823  0.0138  0.0312
25882OCT     C251764   1.312  18.399  11.226 -0.4948  0.3302  0.1564
25883OCT     C151765  17.239   3.647   0.827 -0.0373  0.3006  0.2768
25883OCT     C251766  17.535   3.466   1.162 -0.4527 -0.0077 -0.0704
25884OCT     C151767   4.207   9.390   8.332 -0.1903  0.1023 -0.0094
25884OCT     C251768   4.400   8.988   8.469 -0.0436  0.2253  0.3960
25885OCT     C151769  11.072  13.940   6.293 -0.2055 -0.4222  0.2136
25885OCT     C251770  10.721  14.196   6.454  0.2233  0.1742 -0.2881
25886OCT     C151771   8.108   3.190  16.639 -0.4092 -0.1031 -0.0478
25886OCT     C251772   8.073   2.847  16.979  0.0888  0.3713  0.3415
25887OCT     C151773  15.871  17.847  15.193  0.1240 -0.2833 -0.1730
25887OCT     C251774  15.851  17.426  15.428 -0.0504  0.0100  0.3632
25888OCT     C151775  11.170  23.196   4.126  0.1563 -0.2467  0.0986
25888OCT     C251776  10.973  23.031   3.789  0.0635  0.0459  0.1714
25889OCT     C151777   2.365  14.750  12.019 -0.0179  0.0241  0.1546
25889OCT     C251778   2.525  14.337  12.177  0.0270  0.2554  0.0085
25890OCT     C151779  21.570   7.782  17.366  0.0143  0.3719 -0.1854
25890OCT     C251780  21.304   7.848  17.019  0.0842  0.1014  0.3223
25891OCT     C151781  19.231  19.033  14.897  0.0202 -0.0195 -0.2597
25891OCT     C251782  19.048  19.491  14.823  0.1620 -0.0118 -0.1303
25892OCT     C151783   9.049   2.406   5.255  0.0571  0.0654  0.0054
25892OCT     C251784   9.212   2.381   5.698 -0.0275  0.4037  0.0303
25893OCT     C151785   7.988  15.497  16.605 -0.1555  0.0646  0.1994
25893OCT     C251786   7.852  15.766  16.951  0.1385 -0.1900  0.2975
25894OCT     C151787  23.120  16.054   4.042 -0.0738  0.0689 -0.3783
25894OCT     C251788  23.409  16.342   3.817  0.1641  0.0047  0.0404
25895OCT     C151789  11.280   0.626  10.747  0.0095  0.2016  0.0136
25895OCT     C251790  10.991   0.571  11.124  0.1592 -0.1052 -0.2398
25896OCT     C151791   8.859   0.871  12.307 -0.1794  0.2098  0.2457
25896OCT     C251792   8.840   1.215  12.008 -0.1286  0.1296  0.0857
25897OCT     C151793   5.827  13.374   5.042  0.0383  0.2341  0.2076
25897OCT     C251794   6.137  13.325   4.659 -0.0718 -0.2970  0.0289
25898OCT     C151795   1.314   8.364  13.918 -0.0052  0.1921  0.0538
25898OCT     C251796   1.694   8.182  14.085 -0.1078  0.1199 -0.5941
25899OCT     C151797   1.991  23.374  10.940 -0.2430  0.0053  0.2291
25899OCT     C251798   1.957  23.735  10.606 -0.3695 -0.0764  0.3305
25900OCT     C151799   6.109  19.066  12.230 -0.0334 -0.0465  0.0552
25900OCT     C251800   5.919  18.804  11.899 -0.5592  0.0578  0.2096
25901OCT     C151801  18.599  21.298   3.686 -0.0907  0.1803  0.0890
25901OCT     C251802  18.229  21.280   3.309  0.1831 -0.1669  0.1192
25902OCT     C151803   3.360  15.043  14.615  0.2538  0.2809  0.2241
25902OCT     C251804   3.340  15.258  14.196 -0.1592 -0.1694 -0.1559
25903OCT     C151805  15.293   9.033   9.350 -0.2263  0.0539 -0.0025
25903OCT     C251806  15.698   9.259   9.290  0.0816  0.1857  0.7396
25904OCT     C151807   1.351   5.658  14.354  0.0854 -0.2250  0.3196
25904OCT     C251808   0.973   5.451  14.197 -0.0927  0.2957  0.0446
25905OCT     C151809  12.297   9.634  22.723 -0.2011  0.1695  0.1224
25905OCT     C251810  12.688   9.493  22.976 -0.1462  0.1048  0.3042
25906OCT     C151811  11.161  15.177   8.008  0.0129  0.2809  0.0424
25906OCT     C251812  11.129  15.497   8.364  0.1698  0.1910 -0.2237
25907OCT     C151813  13.598  22.053   2.486  0.0993 -0.1786 -0.1154
25907OCT     C251814  13.589  21.828   2.904 -0.1728 -0.1085 -0.4892
25908OCT     C151815   3.898   9.437   9.960  0.0862 -0.3601 -0.0315
25908OCT     C251816   3.611   9.677  10.306 -0.1295 -0.2191 -0.1228
25909OCT     C151817  18.877   3.734  20.569  0.2864  0.2410  0.2629
25909OCT     C251818  18.542   3.523  20.278 -0.1959 -0.2733  0.2436
25910OCT     C151819  22.936  13.195  23.512  0.0466 -0.3082 -0.3024
25910OCT     C251820  23.040  12.776  23.449  0.0575 -0.1125 -0.0847
25911OCT     C151821  17.767   3.527   3.532  0.1632 -0.1961 -0.0485
25911OCT     C251822  17.326   3.631   3.335  0.1564  0.0439 -0.3382
25912OCT     C151823  14.004  19.972  12.479  0.1179  0.2633 -0.3272
25912OCT     C251824  14.041  20.299  12.192 -0.0855 -0.0389 -0.0941
25913OCT     C151825   5.013  17.184  18.313  0.0953 -0.2657 -0.1251
25913OCT     C251826   5.263  17.234  18.694  0.0098 -0.3467 -0.1224
25914OCT     C151827   4.422   0.466   4.690  0.1004  0.2750  0.0837
25914OCT     C251828   4.745   0.782   4.795 -0.3998 -0.2044  0.1645
25915OCT     C151829  19.522   7.999  18.316 -0.2041 -0.4699  0.1014
25915OCT     C251830  19.773   7.631  18.374 -0.1140 -0.2211 -0.1837
25916OCT     C151831  17.113  17.939  19.192 -0.0085  0.4845  0.1598
25916OCT     C251832  16.733  17.774  19.389 -0.1034  0.0348 -0.1791
25917OCT     C151833  18.887   3.064   7.433 -0.2957 -0.3055  0.3385
25917OCT     C251834  19.142   3.407   7.544  0.3338  0.0098  0.6997
25918OCT     C151835  13.095   3.590   3.028  0.2910  0.0932 -0.1742
25918OCT     C251836  12.963   3.993   3.236  0.5054 -0.0331  0.3875
25919OCT     C151837  16.280  21.086  22.729 -0.4806 -0.3889 -0.0977
25919OCT     C251838  16.038  21.159  22.340  0.0313  0.0770  0.1661
25920OCT     C151839   1.938  18.649  19.415 -0.0418 -0.1569 -0.0455
25920OCT     C251840   1.990  18.602  18.922 -0.1103  0.1022  0.4360
25921OCT     C151841  14.704  14.212  19.119 -0.0161  0.0937 -0.0200
25921OCT     C251842  14.782  14.011  18.709 -0.2145  0.0035  0.0445
25922OCT     C151843  15.971  21.184   2.617  0.0706  0.2215 -0.0714
25922OCT     C251844  16.459  21.188   2.670  0.2697 -0.0919  0.2126
25923OCT     C151845  22.847  14.409  12.092  0.0364  0.0733 -0.0120
25923OCT     C251846  22.592  14.108  11.911  0.0018 -0.0143  0.1663
25924OCT     C151847   1.005   5.890   4.640 -0.0396 -0.6925 -0.2011
25924OCT     C251848   0.707   5.951   4.263 -0.1803 -0.0530 -0.2459
25925OCT     C151849  13.576  18.289  18.476  0.1010 -0.3173 -0.2928
25925OCT     C251850  13.169  18.604  18.520 -0.1210 -0.0453 -0.1411
25926OCT     C151851  16.291  13.844  11.092 -0.0602 -0.0845  0.1860
25926OCT     C251852  16.498  13.642  10.688  0.0776  0.2261 -0.3820
25927OCT     C151853  10.454   6.143  17.907 -0.0887 -0.0115 -0.0745
25927OCT     C251854  10.349   5.671  17.937 -0.2444  0.0928  0.0065
25928OCT     C151855   6.951  23.258   3.713 -0.0376  0.3301  0.0284
25928OCT     C251856   6.959  22.808   3.545  0.0411  0.4072  0.1118
25929OCT     C151857  15.103   8.567  19.983  0.0017 -0.1200 -0.2037
25929OCT     C251858  14.668   8.737  19.975 -0.4265  0.0908 -0.0989
25930OCT     C151859   9.320  20.084  15.745 -0.0170 -0.2298  0.2086
25930OCT     C251860   8.959  19.913  15.488  0.0760 -0.0926  0.3133
25931OCT     C151861  16.042  15.279   2.827  0.1381  0.1015 -0.2874
25931OCT     C251862  15.831  15.478   2.518 -0.0805  0.2552 -0.0156
25932OCT     C151863   5.687   1.279   3.449 -0.2475  0.2009 -0.2549
25932OCT     C251864   5.710   1.336   3.896  0.0228 -0.2628  0.0050
25933OCT     C151865  21.538  15.587  14.248  0.0994  0.0691  0.4712
25933OCT     C251866  21.603  15.979  14.025 -0.1106  0.2536 -0.1187
25934OCT     C151867  22.583   2.970  21.363  0.3731  0.4059 -0.4034
25934OCT     C251868  22.148   2.772  21.277 -0.1962 -0.1842 -0.1549
25935OCT     C151869  15.031  23.025  18.838 -0.1921 -0.0886 -0.2486
25935OCT     C251870  15.478  22.951  19.049  0.0635 -0.1421 -0.1476
25936OCT     C151871  23.090  18.488  23.491  0.0627  0.2961 -0.0685
25936OCT     C251872  22.799  18.335   0.093  0.0627 -0.0613 -0.0408
25937OCT     C151873   4.130  12.829  15.034  0.1314 -0.0625  0.2174
25937OCT     C251874   4.474  12.551  15.195 -0.1308 -0.2153  0.3513
25938OCT     C151875   9.477   0.565   7.811 -0.0525 -0.1222  0.0102
25938OCT     C251876   9.525   0.426   7.412 -0.1128 -0.0391 -0.1122
25939OCT     C151877   9.154  15.469   0.098 -0.1061 -0.0060 -0.3542
25939OCT     C251878   9.148  15.274   0.531  0.1039 -0.1596 -0.1046
25940OCT     C151879  15.875   3.666   7.857  0.1753 -0.2247  0.2453
25940OCT     C251880  15.842   3.337   7.533  0.1732 -0.1524  0.0668
25941OCT     C151881  23.460   2.325  12.832  0.0935 -0.2240  0.1263
25941OCT     C251882  23.616   1.931  13.039  0.3201 -0.0391  0.1294
25942OCT     C151883   6.127   6.281  20.736  0.1394 -0.0715  0.1774
25942OCT     C251884   5.933   5.893  20.660  0.2281 -0.1145 -0.2825
25943OCT     C151885  15.409   3.215   1.018 -0.1138 -0.1913 -0.3271
25943OCT     C251886  15.849   3.315   1.086 -0.0956  0.3375 -0.1534
25944OCT     C151887  10.647   9.283   2.150  0.2461 -0.3046  0.4545
25944OCT     C251888  10.523   9.748   2.001 -0.0745 -0.2600 -0.1240
25945OCT     C151889  19.834  23.393  12.621  0.3511 -0.0443 -0.3238
25945OCT     C251890  20.063   0.025  12.346  0.0117  0.0613  0.0872
25946OCT     C151891  13.991  23.596  11.955 -0.4936  0.0175  0.2993
25946OCT     C251892  13.650  23.691  11.627  0.0333 -0.1376 -0.0711
25947OCT     C151893   6.876   4.252   5.812  0.2068  0.4712  0.1830
25947OCT     C251894   7.012   4.207   5.367 -0.5558 -0.0399  0.2030
25948OCT     C151895   0.779  13.232  12.314  0.3551 -0.1155 -0.2883
25948OCT     C251896   0.703  13.677  12.235 -0.1291  0.0134 -0.1886
25949OCT     C151897  23.515  18.013   7.603 -0.2278  0.0025  0.2572
25949OCT     C251898  23.666  17.889   7.140  0.5291 -0.2943 -0.2236
25950OCT     C151899  22.277  12.792  15.566 -0.2514  0.0416  0.1047
25950OCT     C251900  22.742  12.740  15.605 -0.1908 -0.0301 -0.1020
25951OCT     C151901   4.747  15.171  10.597  0.1803 -0.1205  0.4524
25951OCT     C251902   4.326  15.348  10.829 -0.0881 -0.1840 -0.1518
25952OCT     C151903  13.828  14.339  16.432  0.3304 -0.0678  0.1572
25952OCT     C251904  13.718  13.973  16.195 -0.2003 -0.3118  0.1491
25953OCT     C151905  12.511  17.665  11.590 -0.2056 -0.2005 -0.2153
25953OCT     C251906  12.342  17.337  11.330  0.2061 -0.1624  0.4157
25954OCT     C151907   1.968   9.690   2.912  0.0922 -0.1807  0.1388
25954OCT     C251908   2.403   9.703   2.985  0.1381  0.0157  0.1704
25955OCT     C151909   7.297   6.595  11.777 -0.0753 -0.2681  0.1782
25955OCT     C251910   6.989   6.271  11.623  0.2460  0.0509 -0.2377
25956OCT     C151911  14.233   2.409   2.648  0.0180  0.1127 -0.0308
25956OCT     C251912  14.314   2.470   3.097  0.1903  0.2746 -0.1503
25957OCT     C151913  14.088   7.962  14.814 -0.0803 -0.0894  0.0005
25957OCT     C251914  14.101   7.702  14.446  0.1066  0.1208 -0.1689
25958OCT     C151915  19.741   7.961   2.570  0.2445  0.0109  0.0563
25958OCT     C251916  20.047   7.713   2.818 -0.0539  0.0042  0.2479
25959OCT     C151917   9.175   1.625  10.084  0.3129 -0.2690 -0.2943
25959OCT     C251918   8.884   1.738  10.419  0.0933 -0.1670 -0.2329
25960OCT     C151919  22.309  12.682  12.196 -0.0659  0.1433  0.1477
25960OCT     C251920  22.560  13.053  12.005  0.1661  0.0612 -0.2040
25961OCT     C151921  14.170  10.329  19.289 -0.0620 -0.1813  0.0371
25961OCT     C251922  14.440   9.967  19.205 -0.1576 -0.1211 -0.1604
25962OCT     C151923  23.537  11.723   7.520 -0.2785 -0.1162 -0.0409
25962OCT     C251924   0.192  11.588   7.842  0.4431  0.0820 -0.0867
25963OCT     C151925   2.943  22.028   7.790 -0.3773 -0.1925  0.1042
25963OCT     C251926   2.680  21.930   7.375  0.1716  0.0427  0.2431
25964OCT     C151927  11.341  20.957   4.054  0.1716 -0.1839  0.0185
25964OCT     C251928  11.147  21.108   3.603  0.0929 -0.0143 -0.0402
25965OCT     C151929  14.780   6.191   2.785 -0.0658 -0.4405 -0.0897
25965OCT     C251930  15.071   6.041   2.420  0.1305 -0.0417  0.0728
25966OCT     C151931   2.176  23.204  18.728  0.0602  0.0383 -0.3445
25966OCT     C251932   2.104  23.656  18.757  0.2001  0.2724 -0.1347
25967OCT     C151933   7.673  12.861  14.204  0.3010  0.0540  0.0562
25967OCT     C251934   7.309  12.967  14.505  0.3212  0.0642 -0.0170
25968OCT     C151935   4.314   1.350   6.275  0.2601  0.1325 -0.2867
25968OCT     C251936   4.595   1.043   6.591  0.2817  0.3372  0.1824
25969OCT     C151937  17.066   5.875  21.555 -0.1683  0.0042 -0.0283
25969OCT     C251938  16.873   6.217  21.321  0.1696  0.4795  0.2627
25970OCT     C151939  11.400  15.887   3.218 -0.1325 -0.2933 -0.0714
25970OCT     C251940  11.464  15.662   3.589 -0.1352  0.0083  0.4568
25971OCT     C151941  21.003   0.065  12.978 -0.0373 -0.0777  0.0504
25971OCT     C251942  20.595  23.590  12.954 -0.1022 -0.2189  0.2354
25972OCT     C151943   3.599  10.961  17.929 -0.1006 -0.0113 -0.0478
25972OCT     C251944   4.094  10.832  17.872 -0.0474 -0.1994  0.0319
25973OCT     C151945   3.114  19.219   1.908 -0.1804 -0.0110  0.0044
25973OCT     C251946   3.330  19.343   2.290 -0.1722  0.0479  0.1886
25974OCT     C151947  13.707  15.963   8.186  0.2435  0.5962 -0.1765
25974OCT     C251948  13.865  15.954   7.695 -0.2728 -0.2577 -0.1878
25975OCT     C151949  15.522  19.769   5.720  0.0921  0.2085  0.0637
25975OCT     C251950  15.703  19.336   5.794  0.4491 -0.3256 -0.4869
25976OCT     C151951   8.746  10.155  20.254 -0.0291 -0.1029  0.0100
25976OCT     C251952   8.720  10.612  20.338 -0.0115  0.3769 -0.0039
25977OCT     C151953   6.304   8.641  19.266 -0.0137  0.2060  0.0867
25977OCT     C251954   5.892   8.676  19.502  0.0873 -0.0578  0.1530
25978OCT     C151955   7.139   1.568   2.063 -0.2980 -0.1561  0.1290
25978OCT     C251956   7.228   1.277   2.419 -0.1144  0.0628 -0.1868
25979OCT     C151957   6.607  21.521  13.419 -0.0062  0.0221 -0.0722
25979OCT     C251958   6.790  21.899  13.188 -0.3244  0.1478  0.3186
25980OCT     C151959   2.612  12.670   7.881 -0.0303 -0.2909 -0.1134
25980OCT     C251960   2.190  12.545   7.818 -0.0361  0.0399 -0.0384
25981OCT     C151961   8.934  16.982  20.486  0.2217 -0.0690  0.1053
25981OCT     C251962   8.847  16.643  20.771 -0.0540 -0.1621  0.1347
25982OCT     C151963   2.031   3.503   5.738 -0.0632 -0.0479 -0.2343
25982OCT     C251964   1.937   3.093   5.948  0.1619  0.0975  0.2611
25983OCT     C151965  15.731   4.486  17.379 -0.0878  0.5917  0.1263
25983OCT     C251966  15.650   4.057  17.294 -0.0423  0.1465  0.1388
25984OCT     C151967  10.954  12.037  20.724  0.1131  0.4202 -0.2297
25984OCT     C251968  10.966  11.591  20.944 -0.4628 -0.2412 -0.0769
25985OCT     C151969   1.372  18.003  20.589  0.0074  0.1750  0.0971
25985OCT     C251970   1.696  18.076  20.985  0.2965 -0.1879 -0.0021
25986OCT     C151971  16.787  20.138   2.923 -0.2858 -0.3206 -0.1592
25986OCT     C251972  16.491  20.426   2.751  0.0756  0.1182 -0.0184
25987OCT     C151973  23.203  14.079   6.781  0.0477  0.0469 -0.1555
25987OCT     C251974  22.794  14.297   6.790  0.0162 -0.1050 -0.3018
25988OCT     C151975  11.420  17.073  15.523  0.4483 -0.1749  0.2097
25988OCT     C251976  11.281  16.938  15.917  0.0079  0.1627 -0.1928
25989OCT     C151977  20.904  14.077  17.754 -0.0660  0.0222 -0.4139
25989OCT     C251978  20.553  13.991  18.088 -0.1624 -0.0202  0.4332
25990OCT     C151979   0.552   3.607   9.925  0.4120  0.5081  0.0577
25990OCT     C251980   0.866   3.253   9.953 -0.3387 -0.0459 -0.1061
25991OCT     C151981   1.569  20.989  15.790 -0.0101 -0.0050  0.3360
25991OCT     C251982   1.404  20.495  15.722 -0.0133 -0.4602 -0.1235
25992OCT     C151983   9.511  11.683  21.591 -0.3031  0.1884 -0.1427
25992OCT     C251984   9.821  12.005  21.754 -0.2292  0.2778  0.1177
25993OCT     C151985   6.866  11.705  22.146  0.0899  0.1608 -0.2223
25993OCT     C251986   6.571  11.789  21.786 -0.0396 -0.0891  0.2661
25994OCT     C151987   4.061  12.095  13.108 -0.4067  0.1051  0.0593
25994OCT     C251988   3.801  11.893  12.803 -0.0055 -0.2560 -0.2398
25995OCT     C151989   0.614  16.893  22.519 -0.4342 -0.3012 -0.0571
25995OCT     C251990   0.974  16.611  22.424 -0.1379 -0.1046  0.2184
25996OCT     C151991   8.065   6.183  19.683  0.0622 -0.1564 -0.1695
25996OCT     C251992   7.932   6.224  20.158 -0.1981 -0.1488 -0.0307
25997OCT     C151993   8.510  20.380  10.887 -0.3842 -0.0058  0.2471
25997OCT     C251994   8.808  20.009  10.890 -0.2948 -0.0255  0.0886
25998OCT     C151995   9.103   0.873  18.136  0.1189 -0.0023 -0.0734
25998OCT     C251996   9.382   0.984  18.479  0.1856 -0.1737 -0.0594
25999OCT     C151997  11.924  13.990  13.623  0.0479  0.1870 -0.0431
25999OCT     C251998  11.927  13.916  14.101  0.1062  0.0526 -0.0486
26000OCT     C151999  21.349   0.334  21.560 -0.2103 -0.1136 -0.0948
26000OCT     C252000  21.116  23.722  21.734 -0.0620  0.1755  0.1551
26001OCT     C152001  17.022  20.188  19.359  0.1197 -0.0873  0.3402
26001OCT     C252002  16.636  20.529  19.417  0.3930 -0.0135 -0.1822
26002OCT     C152003   6.282  18.887  20.796  0.1315 -0.0427  0.3033
26002OCT     C252004   6.365  19.295  20.896 -0.0236  0.1605 -0.0963
26003OCT     C152005   1.695   3.161  17.625 -0.2872 -0.0379 -0.1147
26003OCT     C252006   1.439   2.920  17.993 -0.0301 -0.2574  0.2573
26004OCT     C152007   5.062   3.407   2.889 -0.1086 -0.2891 -0.2228
26004OCT     C252008   5.052   2.988   3.108 -0.0164  0.2025 -0.2000
26005OCT     C152009  13.802   3.615  17.286  0.1466 -0.0287  0.0914
26005OCT     C252010  13.647   3.198  17.450  0.2026  0.1038  0.4905
26006OCT     C152011   6.431   8.215   4.777 -0.1881 -0.1332 -0.0539
26006OCT     C252012   6.598   8.267   5.176  0.1045  0.3585 -0.0722
26007OCT     C152013  17.374  17.822  14.116  0.2545  0.0845  0.0397
26007OCT     C252014  17.494  17.386  14.218 -0.0395 -0.1169 -0.2728
26008OCT     C152015  19.103  21.927   4.458 -0.3533  0.1816  0.1588
26008OCT     C252016  18.954  21.577   4.746 -0.0444  0.1806 -0.0272
26009OCT     C152017  21.958  15.117  15.616 -0.1119 -0.2514  0.0233
26009OCT     C252018  22.037  15.035  16.107  0.0398  0.0101  0.0401
26010OCT     C152019  14.599   0.291   9.940 -0.0992 -0.2587  0.0048
26010OCT     C252020  14.766   0.681   9.710  0.2598  0.1054  0.2865
26011OCT     C152021  16.428  13.353   1.893  0.0358  0.4497  0.5903
26011OCT     C252022  16.117  13.618   1.641  0.1852 -0.2637  0.1009
26012OCT     C152023  21.557  10.804   6.524 -0.1833 -0.0342  0.1918
26012OCT     C252024  21.894  10.529   6.718  0.0364  0.1064 -0.0556
26013OCT     C152025  10.935  21.166   2.010  0.4150 -0.1879  0.2085
26013OCT     C252026  10.955  21.562   2.236 -0.0992 -0.1894 -0.2907
26014OCT     C152027  18.603   6.684  22.366  0.1307 -0.1039 -0.2451
26014OCT     C252028  18.685   6.863  21.978  0.2703  0.0716  0.2020
26015OCT     C152029   8.142  21.424  23.503 -0.1517 -0.1798  0.3448
26015OCT     C252030   8.480  21.721  23.598  0.3594  0.0073  0.1961
26016OCT     C152031   5.707  22.555   0.116 -0.1092  0.0310  0.1410
26016OCT     C252032   5.347  22.650  23.525  0.2040  0.2706 -0.2017
26017OCT     C152033  20.879  18.231  17.793 -0.4245  0.2360 -0.1584
26017OCT     C252034  21.175  18.570  17.776 -0.1118  0.0976  0.0526
26018OCT     C152035   2.371  14.462  17.089 -0.0741  0.1897  0.1271
26018OCT     C252036   2.429  14.249  16.667 -0.3703 -0.1055 -0.2254
26019OCT     C152037  21.299  12.965  22.228  0.2305 -0.2204  0.0438
26019OCT     C252038  21.628  12.929  21.923 -0.0964 -0.0972  0.2856
26020OCT     C152039   0.255   3.393  16.146  0.0088 -0.1075 -0.4269
26020OCT     C252040   0.269   3.533  15.666 -0.0472 -0.1671 -0.0183
26021OCT     C152041  11.919  23.335  12.801  0.0995 -0.0683  0.3958
26021OCT     C252042  11.852  23.654  13.158  0.1144  0.0083 -0.0835
26022OCT     C152043  21.245   3.366  13.348  0.0828 -0.0359 -0.1854
26022OCT     C252044  21.538   3.097  13.601  0.0786  0.0859  0.0319
26023OCT     C152045   6.746   6.146   8.553  0.2665  0.0998  0.0347
26023OCT     C252046   6.330   6.067   8.737  0.2206 -0.1380 -0.1444
26024OCT     C152047   3.675  14.128  14.876  0.1971 -0.0448  0.4483
26024OCT     C252048   3.752  13.844  15.239 -0.0992  0.0022 -0.4764
26025OCT     C152049  16.040  17.974  17.349 -0.3753 -0.0636 -0.2897
26025OCT     C252050  16.472  18.129  17.419  0.1601  0.2063 -0.1952
26026OCT     C152051  20.525  17.650   9.893  0.2663 -0.2069  0.0419
26026OCT     C252052  20.305  17.992   9.597  0.0309 -0.1233  0.0889
26027OCT     C152053  23.326  16.487  23.073 -0.2079 -0.0169  0.4822
26027OCT     C252054  23.430  16.715  22.685  0.4243  0.0818 -0.3220
26028OCT     C152055  14.050   6.190  12.602  0.1667  0.1340  0.1198
26028OCT     C252056  14.112   5.832  12.946  0.0590 -0.4083  0.2981
26029OCT     C152057   7.178   4.551   5.048  0.1831 -0.0818 -0.1458
26029OCT     C252058   7.397   4.720   4.627  0.0621 -0.1628 -0.2764
26030OCT     C152059  17.514  15.461  19.676 -0.1222  0.1232  0.0905
26030OCT     C252060  17.668  15.805  19.945  0.2851 -0.0242  0.1260
26031OCT     C152061  10.870  22.642  19.254  0.1548  0.2197 -0.2709
26031OCT     C252062  10.637  22.928  19.480 -0.1446 -0.1183  0.1130
26032OCT     C152063  22.760   8.097   8.131 -0.0115  0.6439 -0.1652
26032OCT     C252064  22.897   8.296   8.543  0.0338  0.0183  0.0355
26033OCT     C152065   3.740   6.081  10.250 -0.0442 -0.1035 -0.0045
26033OCT     C252066   3.312   5.924  10.117  0.1511  0.1256 -0.0954
26034OCT     C152067  13.181   0.960  15.202 -0.2677  0.4349  0.1880
26034OCT     C252068  13.639   0.915  15.091 -0.5539  0.0111 -0.0203
26035OCT     C152069   1.028  18.991  23.191 -0.1279  0.2864  0.0617
26035OCT     C252070   1.233  18.629  22.994 -0.2075 -0.1577 -0.1271
26036OCT     C152071   6.250   3.421  11.641 -0.0176 -0.0546 -0.0314
26036OCT     C252072   5.875   3.424  11.904  0.2721 -0.2070  0.2656
26037OCT     C152073   3.241  18.916  20.186  0.0335 -0.1721  0.2040
26037OCT     C252074   3.188  18.614  20.540  0.2006  0.1161  0.2535
26038OCT     C152075   4.048   6.801  18.095  0.2195  0.0320 -0.2410
26038OCT     C252076   4.398   7.128  18.192 -0.1773  0.1310 -0.0338
26039OCT     C152077  23.239  13.095  16.395  0.0743 -0.2314  0.3329
26039OCT     C252078  23.470  12.999  15.971  0.1705  0.2982 -0.1471
26040OCT     C152079  11.932  22.237  15.487 -0.3175 -0.0054 -0.1802
26040OCT     C252080  11.754  22.435  15.832 -0.0591 -0.3527  0.0784
26041OCT     C152081  20.934  20.245   3.665  0.1713  0.0335 -0.0860
26041OCT     C252082  21.000  20.394   3.191 -0.1102 -0.1087  0.0403
26042OCT     C152083   8.607   3.731  22.330 -0.4668  0.1386  0.2506
26042OCT     C252084   8.784   4.171  22.527  0.0433 -0.1841 -0.0113
26043OCT     C152085   9.450  18.074  18.622  0.2292 -0.2296 -0.1469
26043OCT     C252086   9.023  17.980  18.830 -0.2703 -0.0353  0.1982
26044OCT     C152087  15.778  20.357  18.971  0.1109  0.3334 -0.0576
26044OCT     C252088  16.198  20.377  19.124  0.2826  0.1785 -0.1432
26045OCT     C152089  11.835   3.445   4.291 -0.4436  0.3116 -0.0420
26045OCT     C252090  12.269   3.549   4.068  0.2444 -0.4602 -0.4211
26046OCT     C152091  16.520   5.417  15.524 -0.0330 -0.2731 -0.3862
26046OCT     C252092  16.644   5.246  15.109 -0.1143 -0.1465 -0.2881
26047OCT     C152093  19.251  16.366   0.570 -0.0845 -0.1362 -0.1659
26047OCT     C252094  19.443  16.250   0.212  0.0545 -0.2073 -0.0412
26048OCT     C152095  18.753  16.235  16.861  0.2406 -0.0070 -0.4362
26048OCT     C252096  19.104  16.182  17.165  0.0192  0.0001 -0.2879
26049OCT     C152097   0.238  16.416  15.806  0.0033  0.0029  0.0709
26049OCT     C252098   0.038  16.280  16.146  0.0264 -0.1023 -0.0320
26050OCT     C152099  12.546   3.308   7.041  0.1502 -0.2059 -0.0111
26050OCT     C252100  12.304   3.106   6.637 -0.2311 -0.1926  0.1419
26051OCT     C152101   2.385  18.355   2.563  0.4088  0.0459  0.3871
26051OCT     C252102   1.958  18.317   2.405  0.0997 -0.0399  0.0989
26052OCT     C152103  17.340  17.609  21.000 -0.2599 -0.3353 -0.0143
26052OCT     C252104  17.089  17.580  20.617 -0.1848 -0.4939  0.1617
26053OCT     C152105  17.035  20.323  13.044  0.0973  0.0067 -0.0716
26053OCT     C252106  16.698  20.018  12.976  0.1567 -0.2816 -0.1397
26054OCT     C152107  19.928   2.716  23.225 -0.2605 -0.1114 -0.0281
26054OCT     C252108  19.787   3.192  23.263  0.0341  0.2322  0.1141
26055OCT     C152109  21.370   4.019   9.937  0.3438  0.2910 -0.1546
26055OCT     C252110  21.039   4.328  10.075  0.0329  0.0033 -0.0144
26056OCT     C152111  21.787  14.110  10.251 -0.1717  0.0176 -0.2408
26056OCT     C252112  21.769  14.423  10.599 -0.1749  0.0363 -0.4061
26057OCT     C152113  11.132  19.227   2.407 -0.1312 -0.3290  0.0696
26057OCT     C252114  11.117  19.363   1.930  0.1453 -0.0405  0.0775
26058OCT     C152115  12.869  10.849  16.431 -0.0545 -0.2586  0.1337
26058OCT     C252116  12.440  10.787  16.209 -0.2360  0.2577 -0.2240
26059OCT     C152117  21.311  10.106  19.608  0.0597  0.2574 -0.2853
26059OCT     C252118  21.362  10.474  19.257 -0.0078 -0.3386 -0.1784
26060OCT     C152119   8.881   7.976  21.170  0.3242 -0.0462  0.0867
26060OCT     C252120   9.032   8.001  20.695  0.1137 -0.1229 -0.1539
26061OCT     C152121  22.326   9.435  13.458 -0.0992  0.0041  0.0915
26061OCT     C252122  22.614   9.157  13.259 -0.0034  0.0338  0.1036
26062OCT     C152123  16.096   2.628   7.888  0.0781  0.0515 -0.0764
26062OCT     C252124  15.806   3.053   7.952  0.0014  0.2954  0.2529
26063OCT     C152125   9.413  22.115  13.679 -0.2079 -0.2002  0.2670
26063OCT     C252126   9.114  21.995  13.329  0.1816  0.0968  0.0042
26064OCT     C152127   2.637   1.424   2.013  0.2878  0.4087  0.4065
26064OCT     C252128   2.549   1.743   2.370  0.2443  0.1359 -0.0832
26065OCT     C152129   3.777   8.209  19.472 -0.0090  0.2729 -0.0924
26065OCT     C252130   3.991   7.992  19.840 -0.0132  0.0442  0.1484
26066OCT     C152131  12.117  15.642   4.255 -0.2364 -0.0215  0.0193
26066OCT     C252132  12.254  16.097   4.307 -0.2019  0.2520  0.2715
26067OCT     C152133  15.891  18.036   0.742 -0.0616  0.1065 -0.1243
26067OCT     C252134  16.040  17.964   0.293  0.0039  0.2141 -0.2364
26068OCT     C152135   8.809   5.749   2.738  0.2304  0.2320  0.1705
26068OCT     C252136   8.559   5.720   2.397  0.3956  0.0223  0.1803
26069OCT     C152137   8.091   5.332   9.161 -0.1086  0.1151  0.3192
26069OCT     C252138   8.341   5.216   8.828 -0.2359  0.0425  0.0550
26070OCT     C152139  14.462   3.112   5.669 -0.4618 -0.0345 -0.0015
26070OCT     C252140  14.338   3.034   6.086  0.3423 -0.2357 -0.2195
26071OCT     C152141  10.332   6.104  13.358 -0.0479 -0.1185  0.2284
26071OCT     C252142  10.685   5.898  13.159 -0.1444  0.0380  0.0673
26072OCT     C152143   3.409  14.309   5.157 -0.1288  0.1041  0.2530
26072OCT     C252144   3.676  14.304   5.540  0.0038 -0.2309  0.0336
26073OCT     C152145  15.445   9.522   6.256 -0.0846  0.1584  0.2873
26073OCT     C252146  15.103   9.727   6.446 -0.3023  0.2154  0.0835
26074OCT     C152147   5.545   6.783   2.221  0.1801  0.0269  0.0231
26074OCT     C252148   5.134   6.590   2.041  0.1716 -0.2007 -0.2036
26075OCT     C152149   1.888  21.652  14.909 -0.2532 -0.1166 -0.3315
26075OCT     C252150   1.840  21.297  14.563  0.1271  0.2640 -0.0868
26076OCT     C152151  12.372  11.931  12.946 -0.0918  0.0096 -0.0181
26076OCT     C252152  12.039  11.853  13.249  0.1830 -0.5048  0.3344
26077OCT     C152153   5.691   3.664   3.396 -0.1216 -0.0930  0.2946
26077OCT     C252154   5.382   3.376   3.275  0.1601  0.1993 -0.2013
26078OCT     C152155  14.124   8.921  15.766 -0.0617  0.0844  0.1008
26078OCT     C252156  14.463   8.637  15.543 -0.1634 -0.5233 -0.0565
26079OCT     C152157  15.909   3.201   9.319 -0.1436 -0.2876  0.1370
26079OCT     C252158  15.621   3.529   9.294  0.1369  0.2687  0.4521
26080OCT     C152159  19.975   1.250  18.026  0.1088  0.1133  0.0086
26080OCT     C252160  20.437   1.260  18.138 -0.1461 -0.1089  0.3313
26081OCT     C152161  21.900  13.145  17.322  0.2349 -0.4059  0.2653
26081OCT     C252162  21.715  12.710  17.264  0.0280 -0.2387 -0.0625
26082OCT     C152163   4.151  21.290  16.820  0.1171  0.2518  0.8380
26082OCT     C252164   4.552  21.131  16.962  0.0612  0.1906 -0.1365
26083OCT     C152165  19.584  16.252   7.769 -0.1707  0.0420  0.0219
26083OCT     C252166  19.696  15.774   7.630 -0.1599  0.1508  0.0624
26084OCT     C152167   7.071  13.221   1.589 -0.1610 -0.1285 -0.1069
26084OCT     C252168   6.948  13.223   1.148  0.4641  0.0082 -0.2056
26085OCT     C152169   6.323  21.979  13.162 -0.0060 -0.0830  0.1282
26085OCT     C252170   5.946  21.786  12.998  0.0359 -0.0213 -0.0365
26086OCT     C152171   5.331   5.517   1.202  0.0597  0.1593 -0.3100
26086OCT     C252172   5.574   5.631   1.590 -0.2644  0.1783  0.1089
26087OCT     C152173  13.392  10.700   2.079 -0.0333  0.1514  0.0595
26087OCT     C252174  13.399  10.614   1.634  0.0273 -0.2305  0.0625
26088OCT     C152175  12.196  11.506   0.450 -0.0591  0.5241 -0.0739
26088OCT     C252176  12.229  11.862   0.667 -0.1581  0.1973 -0.1427
26089OCT     C152177   7.425  14.423  17.463  0.0171  0.0835 -0.1151
26089OCT     C252178   7.838  14.374  17.356 -0.0012 -0.0490  0.2775
26090OCT     C152179   3.868  17.580  12.763 -0.0103  0.0498 -0.0284
26090OCT     C252180   4.052  17.956  12.949  0.0923  0.1526  0.2743
26091OCT     C152181  12.886  12.035   9.947 -0.0651 -0.2113 -0.2243
26091OCT     C252182  12.402  12.026   9.845 -0.4461 -0.1728  0.1778
26092OCT     C152183   0.249  17.207   8.171 -0.0838  0.4614  0.1076
26092OCT     C252184   0.587  16.949   7.959  0.0673 -0.2745 -0.0902
26093OCT     C152185  21.687  17.347   6.950  0.2512  0.0686  0.0656
26093OCT     C252186  22.079  17.246   7.219  0.1860 -0.5590  0.1201
26094OCT     C152187   3.206  22.055  19.732 -0.2155  0.0809  0.0290
26094OCT     C252188   2.788  22.084  19.977 -0.3191  0.2776  0.2558
26095OCT     C152189  10.453   2.321   0.357 -0.0660  0.1030 -0.2936
26095OCT     C252190  10.309   2.589  23.715  0.1770  0.0933  0.1945
26096OCT     C152191  18.637   1.549   4.654  0.3145 -0.0602  0.2175
26096OCT     C252192  18.216   1.744   4.506  0.2558 -0.3946  0.1055
26097OCT     C152193  20.784  10.826   9.859 -0.1862 -0.1893  0.0946
26097OCT     C252194  20.569  10.652   9.528 -0.0176 -0.0651  0.1658
26098OCT     C152195  10.086   5.191  21.875 -0.0331 -0.1073 -0.3566
26098OCT     C252196  10.428   5.436  22.035 -0.2535 -0.5576  0.1232
26099OCT     C152197  23.496  14.134  11.595  0.0741  0.1427  0.0908
26099OCT     C252198   0.049  13.794  11.594 -0.3988  0.1838 -0.1673
26100OCT     C152199   0.032   9.254  19.645  0.0616 -0.1213 -0.1048
26100OCT     C252200   0.383   8.976  19.687 -0.0337  0.0447 -0.1989
26101OCT     C152201   5.657   0.839   2.513  0.0688 -0.1271  0.0850
26101OCT     C252202   5.765   0.675   2.047  0.0774  0.0285 -0.0492
26102OCT     C152203   1.127  11.142   8.415  0.1425  0.0829  0.1109
26102OCT     C252204   0.796  10.964   8.268 -0.0618  0.0800  0.1497
26103OCT     C152205   5.474   7.990   9.768  0.2497  0.3295  0.0391
26103OCT     C252206   5.260   8.395   9.759  0.4322 -0.1369  0.3292
26104OCT     C152207  19.841  13.851  21.501  0.3075  0.1589  0.1868
26104OCT     C252208  19.858  14.259  21.275  0.0159 -0.1077 -0.0647
26105OCT     C152209   2.840  23.721   3.020 -0.1801  0.0268  0.0441
26105OCT     C252210   3.152   0.155   3.369  0.0890 -0.3624 -0.1601
26106OCT     C152211   5.334   6.959   3.617  0.1532 -0.1472 -0.0681
26106OCT     C252212   5.747   6.820   3.843  0.0293 -0.1233 -0.0116
26107OCT     C152213  16.113  11.697  10.598 -0.2794 -0.0950 -0.3583
26107OCT     C252214  16.381  11.705  10.958  0.1171 -0.1481 -0.2248
26108OCT     C152215  13.769  16.386  16.631 -0.1164 -0.2492  0.0791
26108OCT     C252216  14.084  16.101  16.454 -0.1549  0.0076 -0.0738
26109OCT     C152217   9.082   1.881   7.928 -0.1520  0.0137  0.0456
26109OCT     C252218   9.117   1.997   7.498  0.2032  0.0171 -0.2183
26110OCT     C152219  21.151  10.703  15.451  0.0853  0.3984  0.2897
26110OCT     C252220  20.827  10.789  15.114  0.1462 -0.0474 -0.0245
26111OCT     C152221  22.944   4.450  20.253 -0.1161  0.3044  0.1972
26111OCT     C252222  23.366   4.255  20.415 -0.1251  0.3267 -0.1321
26112OCT     C152223  14.436   5.908   0.912 -0.1641  0.0024  0.0216
26112OCT     C252224  14.115   5.756   1.156  0.1216  0.2374  0.0177
26113OCT     C152225  18.886  13.224  10.240  0.1963  0.2018 -0.0822
26113OCT     C252226  18.640  12.916   9.969  0.1253  0.2489  0.2141
26114OCT     C152227  16.568  22.575   1.542 -0.0886  0.0499  0.1528
26114OCT     C252228  16.468  22.970   1.606 -0.0848 -0.3510 -0.1063
26115OCT     C152229  22.127   0.753  12.335  0.0691 -0.1147  0.0297
26115OCT     C252230  21.739   1.000  12.318 -0.0419  0.0150  0.3229
26116OCT     C152231  16.004  15.843  12.028 -0.1113  0.4160  0.1202
26116OCT     C252232  16.055  15.521  11.649  0.0696 -0.2450  0.1625
26117OCT     C152233  10.577   0.868  13.801  0.2468 -0.1377  0.1450
26117OCT     C252234  10.226   0.693  13.500  0.1713  0.4271 -0.0624
26118OCT     C152235  22.426  15.794  16.678 -0.2476 -0.2893 -0.3898
26118OCT     C252236  22.725  15.395  16.821  0.5193  0.1206  0.0484
26119OCT     C152237   2.996  15.715  11.911  0.1001  0.0854  0.0433
26119OCT     C252238   2.661  15.797  11.670  0.0413 -0.1564 -0.1277
26120OCT     C152239  10.365   2.421  23.220 -0.0460  0.2553 -0.0409
26120OCT     C252240  10.637   2.051  23.285 -0.0257  0.4070  0.1587
26121OCT     C152241  12.376  22.720   2.856 -0.0147 -0.0990  0.1297
26121OCT     C252242  12.195  23.033   2.539  0.0719 -0.0222  0.0170
26122OCT     C152243  12.119  16.475   6.702 -0.1597 -0.1746 -0.0400
26122OCT     C252244  11.784  16.819   6.735 -0.1405  0.0836  0.2953
26123OCT     C152245  16.383   5.692   3.108  0.3698  0.2699  0.0939
26123OCT     C252246  16.409   5.716   3.580 -0.1334  0.0835 -0.2482
26124OCT     C152247  20.996  14.106   5.439  0.2201 -0.0323 -0.0213
26124OCT     C252248  20.789  13.760   5.655  0.1955 -0.0957 -0.1891
26125OCT     C152249   6.067  12.420  16.891 -0.0916 -0.1652 -0.1279
26125OCT     C252250   6.253  12.080  16.626 -0.1023 -0.0690  0.4148
26126OCT     C152251  18.543   9.130  19.985  0.0099 -0.0458 -0.1284
26126OCT     C252252  18.076   9.087  20.071 -0.1613  0.2949  0.2162
26127OCT     C152253  14.234  17.629  18.679 -0.0840 -0.1746 -0.1859
26127OCT     C252254  14.305  17.655  19.094 -0.0556 -0.1986  0.1475
26128OCT     C152255  20.010  22.912  11.460 -0.3532  0.4016  0.0766
26128OCT     C252256  19.800  23.240  11.076 -0.2995 -0.0400 -0.2316
26129OCT     C152257  12.805  22.214   9.676  0.2668  0.2379  0.0541
26129OCT     C252258  12.599  21.912   9.324 -0.1637 -0.2339 -0.1711
26130OCT     C152259   9.314  21.830   0.394  0.0839 -0.2228  0.3885
26130OCT     C252260   9.537  22.087   0.747 -0.1103  0.1697  0.2629
26131OCT     C152261   4.345  22.382  19.248 -0.2512  0.0271  0.0772
26131OCT     C252262   3.979  22.607  19.274  0.0676  0.0936 -0.1322
26132OCT     C152263  14.404  19.688  19.482  0.0122 -0.4269  0.0489
26132OCT     C252264  14.494  20.150  19.331 -0.1802 -0.2047 -0.0975
26133OCT     C152265  15.348   2.486  18.379 -0.0294  0.2606 -0.1656
26133OCT     C252266  15.619   2.585  17.965 -0.1128  0.1408 -0.1480
26134OCT     C152267   9.702   5.336   8.996  0.2327  0.3010  0.2382
26134OCT     C252268   9.368   5.441   9.286 -0.1863  0.1073  0.1775
26135OCT     C152269  14.270   7.113   9.775 -0.1779  0.3829  0.0384
26135OCT     C252270  13.945   6.969   9.431  0.0697  0.2035  0.1699
26136OCT     C152271  17.844  22.224  18.810 -0.0205 -0.1725  0.0331
26136OCT     C252272  17.553  21.979  19.048  0.1666 -0.2430 -0.0618
26137OCT     C152273  10.118  13.080  20.340  0.2699 -0.0113 -0.1398
26137OCT     C252274   9.598  13.090  20.383 -0.4789  0.1190  0.0230
26138OCT     C152275  12.082  20.432   9.600  0.4066 -0.0890 -0.0237
26138OCT     C252276  11.872  20.608   9.273  0.2910 -0.2352  0.0553
26139OCT     C152277  18.661  15.968  18.613 -0.0485  0.0137 -0.2593
26139OCT     C252278  18.855  16.247  18.956 -0.3009 -0.1791 -0.4215
26140OCT     C152279  12.161   4.211  18.285 -0.4145 -0.0351  0.1282
26140OCT     C252280  11.884   4.369  18.654 -0.0616 -0.2602  0.7655
26141OCT     C152281  23.594   9.842   4.552 -0.1470  0.3096 -0.2243
26141OCT     C252282  23.236   9.829   4.302 -0.0083  0.1054 -0.0160
26142OCT     C152283  19.996   2.417  15.380 -0.3918  0.4655  0.1549
26142OCT     C252284  19.642   2.603  15.174  0.0276 -0.2010  0.2038
26143OCT     C152285   5.862  12.274   6.080  0.2503  0.0852 -0.2094
26143OCT     C252286   5.767  12.717   6.137 -0.3250  0.0276 -0.1731
26144OCT     C152287   4.184  20.708  15.229  0.1860 -0.1179  0.0919
26144OCT     C252288   4.331  20.573  15.677 -0.0036 -0.1975  0.5085
26145OCT     C152289  17.788   4.317   2.160  0.2030  0.1410  0.3704
26145OCT     C252290  17.358   4.215   1.905  0.0604  0.0886 -0.1321
26146OCT     C152291   2.144  19.308  12.210  0.3083  0.4134  0.3935
26146OCT     C252292   2.415  19.428  12.539  0.2591 -0.2447  0.1317
26147OCT     C152293   2.933   1.403   3.222 -0.3092 -0.0632  0.2146
26147OCT     C252294   2.809   1.452   3.675  0.2555 -0.4071 -0.1784
26148OCT     C152295  16.730  20.173  23.180  0.3383  0.2182 -0.1449
26148OCT     C252296  16.990  20.542  22.912 -0.0877 -0.1822  0.3761
26149OCT     C152297   8.041  23.193   6.304  0.0740 -0.0855  0.2618
26149OCT     C252298   7.886  23.395   5.905 -0.4332  0.3403  0.0076
26150OCT     C152299   1.173  16.365  21.440 -0.2194  0.6721 -0.0773
26150OCT     C252300   1.421  16.085  21.717 -0.1000  0.2468 -0.0042
26151OCT     C152301   8.776   2.485  15.879 -0.0274  0.2046  0.0135
26151OCT     C252302   8.916   2.734  16.228 -0.3088  0.0545 -0.1727
26152OCT     C152303  12.653   2.789   6.998 -0.0334  0.1296  0.1225
26152OCT     C252304  12.652   2.490   6.680  0.1563  0.0682 -0.0284
26153OCT     C152305   4.753   6.461   2.401 -0.0569 -0.1678 -0.0076
26153OCT     C252306   5.119   6.749   2.488  0.0136 -0.0401 -0.1649
26154OCT     C152307  15.841   0.381   9.779  0.1989 -0.1326  0.2646
26154OCT     C252308  15.564   0.110  10.027  0.1839  0.0428  0.3639
26155OCT     C152309  21.527  21.415  22.858  0.0890 -0.0646  0.1011
26155OCT     C252310  21.818  21.020  22.984 -0.0177 -0.3098  0.0942
26156OCT     C152311  22.273  21.851  16.902 -0.0205 -0.4656  0.1884
26156OCT     C252312  22.556  21.626  16.615 -0.0621  0.1908  0.0892
26157OCT     C152313  18.552   0.133  11.989  0.1387 -0.1900 -0.0897
26157OCT     C252314  18.574   0.570  12.192  0.1209 -0.1841 -0.2793
26158OCT     C152315  18.398  21.668   8.046 -0.1390  0.3204  0.0924
26158OCT     C252316  18.174  21.308   7.773 -0.1598 -0.0579 -0.0473
26159OCT     C152317   8.986  11.944  18.858  0.0546  0.0283 -0.2201
26159OCT     C252318   9.384  12.004  19.084 -0.0635 -0.1164  0.1313
26160OCT     C152319   8.018  13.161   5.590  0.3269 -0.2336  0.1212
26160OCT     C252320   8.080  13.249   5.079 -0.3658 -0.0708  0.2831
26161OCT     C152321   8.513   5.361  16.217 -0.1379 -0.2262 -0.3707
26161OCT     C252322   8.111   5.620  16.250 -0.0038  0.3415  0.1021
26162OCT     C152323   0.415  10.405  22.507 -0.2240 -0.3194  0.0494
26162OCT     C252324  23.685  10.365  22.583 -0.2144 -0.0426  0.1098
26163OCT     C152325   1.956   1.556  10.998  0.1724 -0.0304 -0.1356
26163OCT     C252326   1.500   1.574  10.979  0.1448  0.0857  0.0752
26164OCT     C152327  16.650  14.989  19.005 -0.3320 -0.1420 -0.1982
26164OCT     C252328  16.468  15.377  18.861  0.1152 -0.2116 -0.0361
26165OCT     C152329   0.073  13.330  13.696  0.3973  0.1557  0.2262
26165OCT     C252330   0.330  13.672  13.513  0.3427  0.2646 -0.0384
26166OCT     C152331  10.235  17.268   2.022  0.0913  0.2161  0.0623
26166OCT     C252332  10.163  17.140   1.582 -0.0078 -0.0827 -0.0285
26167OCT     C152333  23.345   1.246   9.592 -0.1048  0.1216 -0.2277
26167OCT     C252334   0.003   1.010   9.462 -0.0281 -0.2665  0.2341
26168OCT     C152335   9.592  17.898   4.077  0.0457  0.0776  0.1931
26168OCT     C252336   9.863  17.889   3.697  0.1229 -0.0169 -0.1146
26169OCT     C152337   5.941  21.312   6.116  0.2236  0.1023  0.1301
26169OCT     C252338   6.008  21.730   5.990 -0.0687  0.1745  0.0170
26170OCT     C152339   0.298  20.413  17.409 -0.0237 -0.3106  0.2111
26170OCT     C252340  23.718  20.258  17.082 -0.0685 -0.2367 -0.0104
26171OCT     C152341   5.020  17.822  13.111  0.1711  0.0844  0.2270
26171OCT     C252342   4.840  17.747  12.667  0.1904 -0.1181 -0.2815
26172OCT     C152343  16.201  11.743  14.652 -0.0608  0.0343 -0.1564
26172OCT     C252344  16.615  11.488  14.627 -0.0001  0.0213  0.1072
26173OCT     C152345  23.516  15.628  20.472 -0.1665 -0.0478 -0.4907
26173OCT     C252346  23.634  16.094  20.599 -0.1335 -0.4485  0.0162
26174OCT     C152347   3.950  12.192   1.832  0.1969  0.2384  0.1379
26174OCT     C252348   4.330  12.050   2.058 -0.1348  0.3546 -0.2215
26175OCT     C152349  16.471   9.053   8.957  0.0612 -0.0378 -0.2322
26175OCT     C252350  16.707   9.366   9.295 -0.0043  0.1208 -0.1135
26176OCT     C152351   1.561   3.189  13.190  0.0206  0.1720  0.0851
26176OCT     C252352   2.020   3.227  13.190  0.2725  0.2928 -0.0229
26177OCT     C152353  19.129   0.250   4.108  0.1487  0.0673 -0.0892
26177OCT     C252354  19.281   0.658   4.045  0.0302  0.2315 -0.0636
26178OCT     C152355   5.235  21.391  23.740 -0.0297 -0.5194  0.2508
26178OCT     C252356   5.354  21.109  23.362  0.1841  0.2357  0.0642
26179OCT     C152357  15.734   9.416   1.802  0.1070  0.3570  0.1985
26179OCT     C252358  15.801   9.045   2.072 -0.0212  0.2928  0.1135
26180OCT     C152359  13.512   3.025  22.849 -0.0124 -0.2999  0.0208
26180OCT     C252360  13.873   3.228  22.579  0.1816 -0.1914 -0.1907
26181OCT     C152361   4.629  19.210  20.558 -0.2037  0.1792 -0.4429
26181OCT     C252362   4.511  19.646  20.582 -0.4629 -0.0118 -0.2585
26182OCT     C152363  17.126  11.846   6.299 -0.1157  0.0841 -0.2250
26182OCT     C252364  17.533  11.945   6.441  0.0144  0.3053 -0.1126
26183OCT     C152365  21.454   6.276   6.937 -0.0477 -0.2430  0.2064
26183OCT     C252366  21.770   6.532   7.171 -0.0801  0.2420  0.0842
26184OCT     C152367  10.279  11.684  16.091 -0.1053 -0.0515  0.1737
26184OCT     C252368  10.547  11.680  15.693 -0.5069  0.0367 -0.1464
26185OCT     C152369   5.656  17.585  12.181  0.0189  0.1542 -0.2578
26185OCT     C252370   5.399  17.914  11.966  0.3337  0.3066  0.0810
26186OCT     C152371  19.053  11.663   5.618 -0.4418 -0.2805 -0.1958
26186OCT     C252372  19.044  12.123   5.531  0.1461 -0.0957 -0.0040
26187OCT     C152373  16.228   9.873   4.607 -0.0470  0.1391 -0.0884
26187OCT     C252374  15.905   9.509   4.729  0.2394  0.3322  0.0986
26188OCT     C152375   1.862   1.128   1.250  0.1632 -0.3491 -0.1269
26188OCT     C252376   1.855   1.111   0.775 -0.2273  0.1158 -0.0434
26189OCT     C152377   7.702   9.022  12.680  0.1519 -0.0325 -0.2184
26189OCT     C252378   7.356   9.246  12.916 -0.1556  0.0038  0.2883
26190OCT     C152379  18.436   5.892  15.044 -0.0507 -0.1763  0.0688
26190OCT     C252380  18.080   5.668  15.254 -0.3266 -0.0146 -0.1772
26191OCT     C152381   2.714  23.697  12.634 -0.1275  0.0303  0.2894
26191OCT     C252382   2.559   0.344  12.976 -0.0678  0.0333  0.1849
26192OCT     C152383   3.010  11.675  17.803  0.1777 -0.2549  0.1520
26192OCT     C252384   2.642  11.462  17.994  0.0433 -0.0661 -0.0039
26193OCT     C152385  17.438   8.881   9.134 -0.1826 -0.0086 -0.1399
26193OCT     C252386  17.118   9.222   9.048  0.0304  0.1193  0.1349
26194OCT     C152387   0.585  15.594  17.163  0.1999 -0.0939  0.4350
26194OCT     C252388   0.438  16.030  17.060 -0.5932  0.1261 -0.2132
26195OCT     C152389   6.223   0.334  21.287 -0.1448  0.1292 -0.2515
26195OCT     C252390   6.529   0.558  21.503 -0.2372  0.4299 -0.0111
26196OCT     C152391   2.981   5.386  13.003  0.0957  0.3695 -0.1163
26196OCT     C252392   2.603   5.168  12.807 -0.1896  0.2024 -0.3325
26197OCT     C152393   3.438   8.940  20.537 -0.0259 -0.0378  0.1772
26197OCT     C252394   3.661   8.566  20.647 -0.3209 -0.1697  0.1870
26198OCT     C152395   6.348   2.895   4.355  0.0363 -0.0232 -0.0266
26198OCT     C252396   6.534   3.161   4.716  0.3892 -0.4014  0.1393
26199OCT     C152397   9.271  20.309  21.362  0.0653  0.0040  0.1041
26199OCT     C252398   8.858  20.201  21.189  0.0476  0.1673 -0.1290
26200OCT     C152399   8.681  14.047   6.768 -0.1339 -0.0760 -0.0492
26200OCT     C252400   8.734  13.626   6.670  0.0356 -0.0928  0.0963
26201OCT     C152401   1.864  22.620  23.173  0.1285 -0.1632 -0.0275
26201OCT     C252402   1.486  22.350  23.282  0.1470  0.2867 -0.3024
26202OCT     C152403  19.231  12.225   6.186 -0.3483  0.0349  0.1254
26202OCT     C252404  19.666  12.150   6.201 -0.0664  0.3561  0.0814
26203OCT     C152405   6.435  18.805  11.656  0.0814  0.3777  0.0793
26203OCT     C252406   6.542  19.078  12.003  0.2454 -0.3925  0.0471
26204OCT     C152407   3.145  20.736   9.021 -0.0467 -0.1234 -0.2704
26204OCT     C252408   3.114  21.074   8.623  0.0792  0.2648 -0.3807
26205OCT     C152409   4.208  10.573  17.364 -0.3299  0.0106 -0.0708
26205OCT     C252410   4.542  10.693  17.648  0.2226 -0.2546 -0.0145
26206OCT     C152411   2.478   2.937   3.643  0.0090 -0.0996 -0.2224
26206OCT     C252412   2.064   3.164   3.619 -0.0263  0.3866 -0.0472
26207OCT     C152413  22.875   6.186  19.896  0.4092 -0.3489  0.1993
26207OCT     C252414  22.383   6.332  19.904 -0.0745 -0.1314  0.3233
26208OCT     C152415  12.581  13.943  23.199 -0.2933 -0.2610  0.1308
26208OCT     C252416  12.752  13.684  23.507 -0.0116  0.0007  0.3788
26209OCT     C152417  14.744  15.011   5.813 -0.2663  0.1625  0.1120
26209OCT     C252418  14.702  15.085   6.287  0.0579 -0.1223  0.1214
26210OCT     C152419  21.085  15.993   1.865  0.1552  0.1959  0.1223
26210OCT     C252420  20.628  16.124   1.918 -0.2770 -0.1057 -0.4588
26211OCT     C152421   7.066  10.608  11.909 -0.0063  0.2688 -0.0815
26211OCT     C252422   7.457  10.564  12.216  0.1972 -0.2665  0.1525
26212OCT     C152423   6.013   3.932   3.721  0.2120 -0.5037  0.2580
26212OCT     C252424   6.116   4.404   3.890  0.3806  0.2383 -0.0818
26213OCT     C152425  15.016  17.811  15.338 -0.1339 -0.2632  0.4523
26213OCT     C252426  15.026  17.433  15.596 -0.0151 -0.1107 -0.0021
26214OCT     C152427   6.059   1.965   0.752  0.0341 -0.0622  0.3859
26214OCT     C252428   6.397   2.032   1.072  0.3212  0.1525 -0.0581
26215OCT     C152429  19.362   2.873  20.681  0.0503 -0.2783 -0.1666
26215OCT     C252430  19.464   2.687  21.103 -0.2061 -0.0943  0.0114
26216OCT     C152431  15.136   5.914  23.312  0.1141  0.1247 -0.4476
26216OCT     C252432  15.563   5.667  23.240 -0.1065 -0.0998  0.0117
26217OCT     C152433  10.197  15.304   3.874  0.0500 -0.3193  0.1965
26217OCT     C252434   9.890  15.678   3.694  0.0161  0.1897  0.0053
26218OCT     C152435  12.301   6.003  22.763  0.0712  0.2717  0.2045
26218OCT     C252436  12.200   5.865  22.333 -0.0809 -0.0170  0.0572
26219OCT     C152437   8.842  17.362  15.727 -0.3221  0.0118  0.0597
26219OCT     C252438   8.772  16.864  15.729  0.2807 -0.0236  0.0874
26220OCT     C152439  18.374  14.228   2.178  0.2050 -0.1833 -0.0003
26220OCT     C252440  18.521  14.153   1.735 -0.1782 -0.2913 -0.1021
26221OCT     C152441   8.113  19.158  20.696  0.0324 -0.2978  0.3042
26221OCT     C252442   8.233  18.935  21.099  0.1328  0.1682 -0.1986
26222OCT     C152443   3.579   8.551   1.047  0.1202 -0.1970 -0.2269
26222OCT     C252444   3.593   8.971   0.963  0.1675  0.0822 -0.1314
26223OCT     C152445   1.716   8.218  22.420 -0.1056  0.0554 -0.1802
26223OCT     C252446   1.600   8.121  22.850 -0.1752  0.3636  0.0193
26224OCT     C152447  21.020  17.737   1.084 -0.2838 -0.3520  0.0304
26224OCT     C252448  20.817  17.774   0.655  0.1661  0.0567 -0.0877
26225OCT     C152449   3.251   6.869  13.181  0.0214 -0.0351 -0.1195
26225OCT     C252450   3.676   6.672  13.088 -0.2344  0.0102 -0.1245
26226OCT     C152451  14.264  17.285   5.492 -0.1933 -0.4834  0.0620
26226OCT     C252452  14.250  17.563   5.858  0.3060  0.0971 -0.1074
26227OCT     C152453   4.671   0.014  12.750  0.3175  0.1431 -0.0050
26227OCT     C252454   4.333   0.192  13.072 -0.2986  0.2964  0.0805
26228OCT     C152455  23.630   6.570   7.263  0.1302 -0.0906  0.0637
26228OCT     C252456  23.548   7.067   7.430  0.5100  0.0261  0.4250
26229OCT     C152457   7.907  13.505   3.562  0.4946  0.0270  0.2266
26229OCT     C252458   8.203  13.423   3.817  0.0006  0.3037  0.1217
26230OCT     C152459   0.466  10.384  15.633 -0.1561  0.1260 -0.1880
26230OCT     C252460   0.349   9.955  15.809  0.2244 -0.3350  0.0869
26231OCT     C152461   3.805  16.222  17.664 -0.1344  0.1175 -0.5825
26231OCT     C252462   3.815  16.331  18.169  0.0264  0.2577  0.1800
26232OCT     C152463   6.693  19.273  23.453 -0.3594 -0.2151 -0.2808
26232OCT     C252464   6.718  19.082  23.050 -0.1238  0.0791 -0.3054
26233OCT     C152465   9.153  16.323  19.959  0.2748  0.4774 -0.2992
26233OCT     C252466   8.984  16.248  19.491 -0.1674  0.0817  0.1258
26234OCT     C152467   6.950   0.916  10.413 -0.0333 -0.0667  0.3884
26234OCT     C252468   7.376   0.670  10.463 -0.0079 -0.0075  0.1778
26235OCT     C152469   1.333  16.263  20.939 -0.1735 -0.1205 -0.3744
26235OCT     C252470   1.386  16.229  20.479 -0.0333 -0.0349 -0.0774
26236OCT     C152471  17.430  20.619  13.271  0.0538 -0.0602  0.2034
26236OCT     C252472  17.622  21.012  13.437 -0.2684  0.0320 -0.1519
26237OCT     C152473  19.283   6.079  16.610  0.1556 -0.0360 -0.1262
26237OCT     C252474  19.126   6.145  17.093 -0.0251 -0.2154  0.1488
26238OCT     C152475   5.869  18.105  22.919 -0.2076  0.1031  0.1338
26238OCT     C252476   5.868  18.594  22.816  0.1623 -0.0073 -0.1224
26239OCT     C152477  13.497  16.489   6.089 -0.3608 -0.1263  0.2521
26239OCT     C252478  13.557  16.572   6.560  0.3097 -0.2854  0.3727
26240OCT     C152479   2.794  14.360   3.348 -0.1116  0.1837  0.0366
26240OCT     C252480   2.783  14.020   2.995  0.3920 -0.0938 -0.0940
26241OCT     C152481   8.625   0.175   9.485  0.3339 -0.0130  0.0804
26241OCT     C252482   8.411  23.623   9.750  0.0223 -0.1975  0.0327
26242OCT     C152483  21.384   2.420   2.768  0.0782  0.3671 -0.0136
26242OCT     C252484  21.272   2.755   2.462 -0.3650  0.0645  0.1789
26243OCT     C152485  15.539  19.713  21.385 -0.3622 -0.0443  0.2017
26243OCT     C252486  15.315  19.509  21.708  0.0228 -0.2078 -0.3619
26244OCT     C152487   1.555  11.989  16.449  0.1316  0.2135  0.2587
26244OCT     C252488   1.577  11.592  16.212 -0.0752 -0.1292 -0.0621
26245OCT     C152489  10.163   0.792   8.927 -0.1702 -0.1280  0.1953
26245OCT     C252490  10.194   0.412   8.684  0.0533 -0.0364  0.0055
26246OCT     C152491  18.575   5.956   5.730  0.0370  0.0461  0.0242
26246OCT     C252492  18.673   5.629   5.436 -0.3614 -0.3397 -0.2227
26247OCT     C152493   8.032   2.381  13.888 -0.2948  0.0920  0.1032
26247OCT     C252494   8.420   2.512  14.197  0.5523  0.3361 -0.0999
26248OCT     C152495   5.147  11.462   6.953  0.2049 -0.7378 -0.0485
26248OCT     C252496   5.064  11.908   7.188  0.0565 -0.1961  0.2294
26249OCT     C152497  15.576  22.133  23.443  0.1764  0.1449  0.1008
26249OCT     C252498  15.484  22.607  23.285 -0.2319  0.1430  0.0137
26250OCT     C152499  15.834   8.779   3.773  0.1330 -0.0074 -0.0194
26250OCT     C252500  15.610   8.565   3.412  0.1832 -0.0552 -0.2549
26251OCT     C152501  13.647  10.987  22.110  0.1891 -0.0634 -0.2121
26251OCT     C252502  13.235  11.019  21.887 -0.2309 -0.0021  0.2144
26252OCT     C152503  15.218   3.159  15.954 -0.1695  0.3662 -0.0231
26252OCT     C252504  15.536   2.864  16.194  0.0896  0.1952  0.1124
26253OCT     C152505  19.980   6.659   2.689 -0.2157  0.0034 -0.3012
26253OCT     C252506  20.182   6.395   2.461 -0.4780  0.2487  0.2387
26254OCT     C152507  15.465  16.185  19.961  0.2806  0.1914  0.1290
26254OCT     C252508  15.272  16.150  20.337 -0.0565  0.0734 -0.2155
26255OCT     C152509  17.008   2.742  10.700  0.0892  0.3516 -0.0821
26255OCT     C252510  17.135   2.493  11.058 -0.0506 -0.1845  0.0385
26256OCT     C152511   7.545   4.507  21.247 -0.0684  0.2166  0.1909
26256OCT     C252512   7.763   4.080  21.253 -0.2757  0.0492  0.0950
26257OCT     C152513  11.526   8.196   1.388  0.0486  0.2171  0.1496
26257OCT     C252514  11.955   8.254   1.264  0.0559 -0.4604 -0.0285
26258OCT     C152515  19.042  22.707  20.926  0.1215 -0.1761 -0.0252
26258OCT     C252516  18.750  22.621  21.252  0.0451 -0.1177  0.0853
26259OCT     C152517   5.801  12.299   8.164  0.1497 -0.0386  0.2039
26259OCT     C252518   5.412  12.592   8.216 -0.2555 -0.1899  0.6253
26260OCT     C152519  10.194  23.577   1.374  0.0481  0.3295  0.0028
26260OCT     C252520   9.887   0.197   1.271 -0.0398  0.2706  0.1968
26261OCT     C152521   9.636  18.545  12.603  0.0623  0.0158 -0.1482
26261OCT     C252522   9.880  18.544  12.242 -0.1128  0.0309  0.2097
26262OCT     C152523   7.501   5.914  20.148 -0.0894 -0.2441  0.0090
26262OCT     C252524   7.566   5.490  19.984 -0.2226 -0.1714  0.1168
26263OCT     C152525  12.089  17.612  15.889 -0.0712  0.5190 -0.3693
26263OCT     C252526  12.526  17.483  15.947  0.0908 -0.0983 -0.3354
26264OCT     C152527   4.830  19.254  16.615  0.1626  0.1400  0.2580
26264OCT     C252528   5.204  19.436  16.463  0.0501  0.0896 -0.2230
26265OCT     C152529   7.418  14.686  13.875 -0.0623 -0.1200 -0.2350
26265OCT     C252530   7.373  14.737  14.336  0.1386  0.2011 -0.1700
26266OCT     C152531  14.733  10.668  15.103 -0.2130 -0.5683  0.3008
26266OCT     C252532  15.143  10.502  15.159  0.2794  0.1795 -0.1467
26267OCT     C152533   3.074   0.416  12.769 -0.4691  0.2784 -0.3373
26267OCT     C252534   3.286  23.721  12.903  0.0615 -0.0641 -0.1527
26268OCT     C152535  20.029   1.984  14.964 -0.3592 -0.1890 -0.1105
26268OCT     C252536  20.072   1.548  15.071 -0.1636  0.1097  0.1062
26269OCT     C152537  12.990   3.333   0.267 -0.3345 -0.1036 -0.2574
26269OCT     C252538  12.668   3.026   0.290  0.0174  0.1418  0.1333
26270OCT     C152539  13.290   9.272   8.190 -0.1920  0.0453  0.1915
26270OCT     C252540  13.157   9.319   7.758 -0.0997 -0.0340  0.0667
26271OCT     C152541   1.587  13.312   2.414  0.1847 -0.1273  0.0031
26271OCT     C252542   1.883  12.929   2.586 -0.1522 -0.0988 -0.3701
26272OCT     C152543  21.182  14.096  14.063  0.0930  0.0756  0.5051
26272OCT     C252544  21.155  13.968  14.528  0.0724 -0.0356 -0.0617
26273OCT     C152545  10.839   9.206   6.135  0.0714 -0.0524 -0.1067
26273OCT     C252546  11.190   9.531   6.117 -0.2810 -0.2527  0.3199
26274OCT     C152547  20.013   8.137  17.409 -0.1224  0.2765  0.0088
26274OCT     C252548  19.672   7.975  17.244  0.0227 -0.0789 -0.1069
26275OCT     C152549   4.612   0.656  13.290 -0.0902 -0.1272 -0.1504
26275OCT     C252550   4.200   0.809  13.064 -0.1197 -0.5960  0.1111
26276OCT     C152551  18.929   1.744   5.066  0.0086  0.2040 -0.1646
26276OCT     C252552  18.532   1.631   5.334 -0.1014 -0.1255  0.0593
26277OCT     C152553  15.391   8.113  13.139  0.1053 -0.0414 -0.0260
26277OCT     C252554  14.988   7.915  13.069 -0.0353 -0.3982  0.1440
26278OCT     C152555   6.216   8.987  17.459 -0.0341  0.1530 -0.2945
26278OCT     C252556   5.798   9.123  17.659 -0.1804 -0.0735  0.1130
26279OCT     C152557   6.671   3.781  11.985 -0.2847 -0.4034 -0.1918
26279OCT     C252558   6.811   3.819  11.529  0.0031  0.2231  0.0139
26280OCT     C152559   6.553  13.580   5.242  0.2182  0.3283  0.3157
26280OCT     C252560   6.699  13.531   4.818 -0.2175  0.0119 -0.0864
26281OCT     C152561  15.345   9.891   4.803 -0.0971  0.0628  0.0951
26281OCT     C252562  15.406   9.462   4.739 -0.3397  0.3352 -0.2542
26282OCT     C152563   4.266   8.610   4.559 -0.0327 -0.0015 -0.2191
26282OCT     C252564   4.640   8.665   4.210  0.1484  0.0639 -0.1723
26283OCT     C152565   7.434   7.025   6.521  0.1179  0.0813  0.1277
26283OCT     C252566   7.575   6.692   6.743  0.1684 -0.0530  0.0499
26284OCT     C152567   0.104  14.012   9.738  0.1284  0.3851 -0.1153
26284OCT     C252568   0.322  13.841   9.402 -0.0255  0.2149 -0.1792
26285OCT     C152569  15.696   7.380  20.557  0.3721  0.2033  0.0693
26285OCT     C252570  15.827   7.778  20.676 -0.1810 -0.2405 -0.1516
26286OCT     C152571  16.141  19.271  15.894 -0.2035  0.0993 -0.0676
26286OCT     C252572  15.714  19.179  16.178  0.2243 -0.1728  0.2810
26287OCT     C152573  22.422   4.138   3.458 -0.3052 -0.2054  0.0165
26287OCT     C252574  22.293   4.216   3.036 -0.2385  0.0058 -0.0205
26288OCT     C152575  17.911  15.620  14.465 -0.2015 -0.0409  0.1004
26288OCT     C252576  17.516  15.349  14.572  0.1313  0.1876  0.1450
26289OCT     C152577  15.658   1.940  14.598 -0.1463 -0.0472  0.0429
26289OCT     C252578  15.686   2.259  14.233 -0.0287 -0.0804 -0.1362
26290OCT     C152579  22.968   8.226   6.794  0.3116 -0.2163  0.0533
26290OCT     C252580  22.839   8.475   7.187  0.1172  0.1209  0.2250
26291OCT     C152581  21.335  10.522   9.776  0.0868  0.2589 -0.1216
26291OCT     C252582  21.297  10.980   9.680 -0.4094  0.1421 -0.0977
26292OCT     C152583  23.276  11.338  20.427  0.3676 -0.1285 -0.1989
26292OCT     C252584  23.126  11.443  20.816 -0.1102  0.1503 -0.1796
26293OCT     C152585  13.656   9.656  22.629 -0.3545 -0.2777  0.2289
26293OCT     C252586  13.615   9.211  22.708  0.1325 -0.2105  0.2775
26294OCT     C152587  20.429  19.535  16.242  0.1443 -0.0238  0.3271
26294OCT     C252588  20.812  19.311  16.073 -0.4292  0.2482 -0.0838
26295OCT     C152589   0.524  13.548   5.883 -0.0537 -0.2350 -0.0173
26295OCT     C252590   0.221  13.816   6.122 -0.1946  0.2176 -0.0703
26296OCT     C152591  10.206   2.691  20.983  0.3172  0.0556 -0.0328
26296OCT     C252592   9.894   3.033  20.744  0.1007 -0.0304  0.0668
26297OCT     C152593   3.988   2.418  21.947  0.0935 -0.0823  0.0507
26297OCT     C252594   3.573   2.534  21.806  0.2557 -0.1742  0.0113
26298OCT     C152595  12.889   1.279   6.868 -0.3982  0.0789  0.0380
26298OCT     C252596  12.830   1.446   6.431 -0.0295  0.0254  0.1847
26299OCT     C152597   1.889   5.636  12.400 -0.1750 -0.1707 -0.1660
26299OCT     C252598   1.937   5.976  12.046  0.1011 -0.0383 -0.1016
26300OCT     C152599  19.589  14.590  10.388  0.0807  0.0536  0.1703
26300OCT     C252600  19.743  14.492  10.779  0.1515 -0.0985 -0.0847
26301OCT     C152601   2.910   2.607   2.564 -0.1659 -0.0941  0.1663
26301OCT     C252602   2.829   3.034   2.715 -0.2631 -0.1617  0.1744
26302OCT     C152603  12.266  20.549  17.088 -0.0500  0.2774 -0.0541
26302OCT     C252604  12.629  20.627  16.852 -0.2279 -0.2369 -0.1627
26303OCT     C152605  17.338   0.200   5.591  0.2482  0.0350  0.0754
26303OCT     C252606  16.950   0.517   5.689  0.0935  0.1272  0.0274
26304OCT     C152607  10.765   7.693  22.348  0.2405  0.0185 -0.3201
26304OCT     C252608  11.139   7.924  22.447  0.0428 -0.2036  0.0295
26305OCT     C152609   3.720  18.806   6.386  0.0476 -0.3242  0.1426
26305OCT     C252610   4.082  18.545   6.256 -0.3040 -0.3112 -0.0993
26306OCT     C152611  19.714  19.852  14.134 -0.0495  0.4166 -0.0940
26306OCT     C252612  19.513  19.730  14.546 -0.0270  0.0252 -0.3230
26307OCT     C152613  11.698   2.012   0.653 -0.4575  0.0000 -0.2357
26307OCT     C252614  11.534   1.861   1.124 -0.6537 -0.1145 -0.2961
26308OCT     C152615  19.674   7.902   1.128 -0.2199 -0.2209  0.2331
26308OCT     C252616  20.131   7.721   1.008 -0.0216 -0.2399  0.0972
26309OCT     C152617   6.180  13.131   5.311 -0.1060  0.1709 -0.2699
26309OCT     C252618   6.028  12.704   5.510 -0.1740 -0.3486 -0.2118
26310OCT     C152619  18.164  19.895  15.748 -0.0476  0.1739 -0.2477
26310OCT     C252620  18.243  19.406  15.774 -0.0058 -0.1521 -0.4860
26311OCT     C152621  12.961   0.190  21.636  0.3396 -0.0460  0.2852
26311OCT     C252622  12.580   0.131  21.859 -0.0988  0.1149  0.2176
26312OCT     C152623  14.574   6.021  13.211  0.0562  0.2524  0.0446
26312OCT     C252624  14.876   5.834  13.521 -0.0249 -0.0043 -0.1433
26313OCT     C152625  13.499  13.094  11.522 -0.2124  0.1966 -0.0538
26313OCT     C252626  13.975  13.144  11.437 -0.2271 -0.0092  0.2472
26314OCT     C152627  12.427  13.725  20.621 -0.3225 -0.3265  0.0705
26314OCT     C252628  12.100  13.989  20.814 -0.0372 -0.3729  0.0106
26315OCT     C152629  18.385   3.379  19.286  0.0389  0.0275 -0.1505
26315OCT     C252630  18.306   3.826  19.526 -0.1907  0.0524  0.1012
26316OCT     C152631   9.930  11.791   3.324 -0.0035 -0.0890 -0.0009
26316OCT     C252632   9.476  11.855   3.257 -0.1903  0.0157  0.1733
26317OCT     C152633  21.047  20.209  11.273 -0.1781 -0.3088  0.0005
26317OCT     C252634  21.399  20.079  10.986 -0.1133 -0.0896  0.0623
26318OCT     C152635  22.221  21.725  11.667  0.0722 -0.1255 -0.1613
26318OCT     C252636  21.831  21.762  12.006  0.0374 -0.0353 -0.0388
26319OCT     C152637  17.544  10.962   9.122  0.1091  0.1494  0.3716
26319OCT     C252638  17.472  10.499   9.154  0.0912  0.2014  0.0665
26320OCT     C152639  12.147   5.035   9.984  0.2787  0.0810  0.0953
26320OCT     C252640  12.247   5.333  10.283 -0.1291  0.0515  0.2902
26321OCT     C152641   0.522  11.504   2.021  0.0047  0.5203 -0.1853
26321OCT     C252642   0.387  11.413   2.430 -0.1087 -0.1603  0.0310
26322OCT     C152643   5.370  19.910   6.539 -0.0846 -0.2267  0.1711
26322OCT     C252644   5.561  19.513   6.382 -0.1214  0.2004  0.1220
26323OCT     C152645   1.830   1.772  11.449 -0.2230 -0.1661  0.3482
26323OCT     C252646   1.410   1.937  11.276  0.1710 -0.3214 -0.1651
26324OCT     C152647  14.473  19.375  21.141 -0.2779 -0.0034 -0.1988
26324OCT     C252648  13.980  19.523  21.135 -0.1780 -0.2601 -0.2131
26325OCT     C152649   2.975  23.604  21.249 -0.1484 -0.1882  0.0419
26325OCT     C252650   3.303  23.322  21.408 -0.1267  0.0027 -0.0412
26326OCT     C152651  13.848  18.649   6.300 -0.3361 -0.0698  0.1710
26326OCT     C252652  13.825  18.299   6.586  0.1822  0.1394 -0.0800
26327OCT     C152653  20.626   9.415   0.264  0.4959 -0.2033  0.2700
26327OCT     C252654  20.935   9.059   0.097  0.4103  0.4132  0.0965
26328OCT     C152655  11.610   2.086   8.767 -0.3349  0.0112  0.2542
26328OCT     C252656  11.753   1.658   8.684 -0.0291 -0.0250 -0.0100
26329OCT     C152657   3.356   3.469  22.032 -0.0147 -0.2717  0.2343
26329OCT     C252658   3.749   3.252  22.001  0.3512 -0.0141  0.0566
26330OCT     C152659  21.819   0.156  11.181 -0.2028  0.2070 -0.2392
26330OCT     C252660  21.745   0.271  11.635 -0.2639  0.0964 -0.0181
26331OCT     C152661  14.248  14.805   2.482  0.0654  0.1165  0.2290
26331OCT     C252662  14.221  14.449   2.157  0.1591 -0.3328 -0.1300
26332OCT     C152663  14.098  19.494  22.756 -0.1382  0.1961 -0.0739
26332OCT     C252664  14.561  19.448  22.597  0.0616  0.2449 -0.2120
26333OCT     C152665  13.790  16.242  12.227 -0.1834 -0.0852  0.1584
26333OCT     C252666  13.774  16.230  12.731  0.3308  0.1789  0.1539
26334OCT     C152667   8.230  11.205  10.031 -0.1616  0.0633 -0.3416
26334OCT     C252668   8.187  11.528  10.366 -0.4272  0.2917 -0.4864
26335OCT     C152669   4.015  22.458  21.878 -0.4969  0.4590 -0.1506
26335OCT     C252670   4.232  22.367  22.278 -0.3254 -0.0714 -0.1477
26336OCT     C152671   7.269   1.647  10.366  0.1981 -0.3809  0.0627
26336OCT     C252672   7.304   1.211  10.138  0.1031  0.1941  0.1857
26337OCT     C152673  23.605   8.851  15.193  0.1171 -0.0029  0.2323
26337OCT     C252674   0.154   8.723  15.467  0.0679  0.3751 -0.3554
26338OCT     C152675   9.411  11.354  13.272  0.0519  0.1216 -0.0326
26338OCT     C252676   9.848  11.525  13.158 -0.0441  0.2464 -0.0662
26339OCT     C152677   5.148   0.198   3.146  0.4807 -0.1058 -0.2907
26339OCT     C252678   5.420  23.618   3.321  0.1597 -0.1786 -0.0220
26340OCT     C152679  19.090   8.700  12.920 -0.1754 -0.0926  0.2031
26340OCT     C252680  19.503   8.738  13.143  0.1344 -0.2624 -0.2233
26341OCT     C152681   1.665   7.731  17.915 -0.1091  0.2133  0.0954
26341OCT     C252682   2.059   7.502  18.014  0.1069 -0.3519 -0.3052
26342OCT     C152683   8.665  18.514  15.479  0.0489  0.0044 -0.0812
26342OCT     C252684   8.818  18.321  15.913 -0.1006 -0.0508 -0.2881
26343OCT     C152685  18.076  14.345  11.077  0.2532  0.1805 -0.2916
26343OCT     C252686  17.814  14.052  11.319  0.1907  0.2176  0.1083
26344OCT     C152687  12.529   3.790  18.925  0.3787  0.1694 -0.1715
26344OCT     C252688  12.574   4.142  18.626  0.1466  0.1858  0.0147
26345OCT     C152689   9.010   2.464  19.189  0.2656 -0.1799 -0.1335
26345OCT     C252690   8.605   2.432  19.424  0.2476  0.2223  0.0869
26346OCT     C152691  10.573  11.187   8.694 -0.0088 -0.0142 -0.2860
26346OCT     C252692  11.058  11.057   8.743  0.0203 -0.0948  0.2253
26347OCT     C152693  23.469  14.852  23.261  0.0225 -0.2090 -0.0729
26347OCT     C252694   0.023  15.083  23.485 -0.5194  0.1597 -0.1356
26348OCT     C152695  19.785  11.121   0.464  0.1037  0.2811 -0.2544
26348OCT     C252696  20.203  11.339   0.724  0.1486  0.0873  0.1664
26349OCT     C152697  11.741   0.402  10.738  0.0722 -0.0596 -0.0857
26349OCT     C252698  11.610   0.583  10.331 -0.2003  0.0886  0.0645
26350OCT     C152699  19.107   9.492   2.149 -0.0670  0.0977 -0.1216
26350OCT     C252700  18.766   9.160   2.117 -0.2093 -0.1678 -0.2219
26351OCT     C152701  22.445  17.798  14.256  0.0862 -0.3421  0.1194
26351OCT     C252702  22.795  17.605  14.003  0.2100 -0.4560  0.0362
26352OCT     C152703   1.882  16.189  20.257 -0.0774  0.0376 -0.0084
26352OCT     C252704   2.384  16.151  20.245  0.1365  0.1190 -0.2795
26353OCT     C152705   1.045  12.857  12.647 -0.3342 -0.2625 -0.1935
26353OCT     C252706   1.308  12.956  13.018  0.5898  0.0082 -0.0097
26354OCT     C152707   8.439  13.565  11.921 -0.2715  0.0675  0.0937
26354OCT     C252708   8.239  13.854  12.162  0.3200  0.4034 -0.1562
26355OCT     C152709  20.791   6.709  19.185 -0.2344  0.6893 -0.1429
26355OCT     C252710  21.166   6.475  19.207 -0.0119  0.1664  0.2555
26356OCT     C152711   9.924  14.611  13.883  0.0432 -0.3713 -0.3343
26356OCT     C252712   9.846  14.664  13.332 -0.0450 -0.1565 -0.4092
26357OCT     C152713  21.911   2.250   0.393  0.0023  0.1001 -0.3104
26357OCT     C252714  21.492   2.297   0.513  0.1919 -0.2337 -0.3720
26358OCT     C152715  22.462  18.728  18.039 -0.0849 -0.1666 -0.3161
26358OCT     C252716  22.522  18.986  17.662 -0.0051  0.1679 -0.2172
26359OCT     C152717   4.451  20.268  20.757  0.1162 -0.1053 -0.1882
26359OCT     C252718   4.159  20.576  20.438 -0.0827  0.1408  0.0814
26360OCT     C152719  16.886   1.793  10.171 -0.0201  0.2390  0.2963
26360OCT     C252720  17.114   1.408  10.095  0.0569  0.2395 -0.2814
26361OCT     C152721   4.427   6.963  21.849  0.1085  0.3921  0.1845
26361OCT     C252722   4.445   6.733  22.269  0.0764  0.1093 -0.1110
26362OCT     C152723  20.348  12.654  22.871 -0.0105  0.1241  0.0361
26362OCT     C252724  20.419  12.601  22.405 -0.1171  0.1392 -0.2680
26363OCT     C152725   3.276  20.201  17.937 -0.0305 -0.0219  0.0033
26363OCT     C252726   3.446  20.493  18.237  0.0101 -0.4968  0.1806
26364OCT     C152727  15.654  16.286   6.391  0.0741  0.1644  0.2458
26364OCT     C252728  15.802  16.747   6.441  0.2800 -0.3383  0.0530
26365OCT     C152729  21.178   5.221   6.323  0.3048  0.2476 -0.1673
26365OCT     C252730  21.224   5.392   5.886  0.1078  0.0057  0.0650
26366OCT     C152731   3.543  22.966   9.965  0.2592  0.0002 -0.0515
26366OCT     C252732   3.587  23.277   9.610  0.0637 -0.2111 -0.0451
26367OCT     C152733   7.649  14.592   3.612  0.4585  0.2384 -0.1528
26367OCT     C252734   8.056  14.329   3.666  0.2204  0.1680 -0.5164
26368OCT     C152735   4.192  20.497  21.332 -0.0570 -0.2445 -0.0306
26368OCT     C252736   3.973  20.057  21.336 -0.0226  0.0404 -0.0131
26369OCT     C152737  12.721   0.034   2.987  0.0466 -0.5580 -0.1043
26369OCT     C252738  13.135   0.148   3.218  0.1293 -0.1160  0.4640
26370OCT     C152739  14.393  21.057   7.385 -0.0186 -0.2219  0.0479
26370OCT     C252740  14.068  21.079   7.669  0.1443  0.0735 -0.3791
26371OCT     C152741  11.382   8.502   3.396  0.0991 -0.0579 -0.0139
26371OCT     C252742  10.935   8.579   3.371  0.1900  0.0014  0.1844
26372OCT     C152743   3.020  18.526   9.225 -0.2409  0.1934 -0.0384
26372OCT     C252744   3.292  18.211   9.405  0.1421 -0.1117  0.3089
26373OCT     C152745   1.595  21.501  15.881 -0.0665  0.0054  0.0183
26373OCT     C252746   1.973  21.218  15.857 -0.1060  0.2036  0.0136
26374OCT     C152747  23.081  20.653  21.134 -0.4126  0.1954 -0.3469
26374OCT     C252748  23.139  20.183  20.989  0.0700 -0.1788  0.3719
26375OCT     C152749  18.512   9.822   9.539 -0.1906  0.2465 -0.4507
26375OCT     C252750  18.743   9.599   9.924  0.2572  0.1884  0.1754
26376OCT     C152751   8.745  14.545   0.172 -0.4136  0.3970  0.2604
26376OCT     C252752   8.343  14.719   0.110  0.3206  0.0456 -0.0806
26377OCT     C152753  18.029  20.208   9.756  0.0013 -0.2306  0.0949
26377OCT     C252754  18.123  20.477  10.160  0.1579  0.5811  0.0031
26378OCT     C152755  11.624   4.706   6.993 -0.0898 -0.0413  0.1106
26378OCT     C252756  11.494   5.083   6.750 -0.2107  0.3076 -0.2721
26379OCT     C152757   1.962  17.742  22.155  0.2415  0.0814  0.2084
26379OCT     C252758   1.763  17.349  22.343 -0.4689 -0.0730 -0.0583
26380OCT     C152759  18.749  15.178   5.986 -0.2690  0.1213 -0.1844
26380OCT     C252760  18.525  14.943   5.583  0.1719 -0.2513 -0.2186
26381OCT     C152761   0.848   2.673  20.117  0.4224 -0.0189  0.1751
26381OCT     C252762   1.039   3.036  19.987 -0.0445 -0.3625 -0.1051
26382OCT     C152763   1.227  22.856  23.233 -0.5686 -0.4278  0.0758
26382OCT     C252764   1.343  22.602  22.904  0.3351 -0.0401 -0.0008
26383OCT     C152765  13.480  11.926   5.086  0.3817  0.2672  0.0264
26383OCT     C252766  13.696  11.519   5.044  0.0707  0.0803 -0.2006
26384OCT     C152767  21.104  13.513  15.906  0.2190  0.1260  0.1597
26384OCT     C252768  20.932  13.666  16.325 -0.2335 -0.2787  0.0141
26385OCT     C152769  10.479   8.989   3.362  0.2295 -0.3192 -0.1075
26385OCT     C252770  10.478   9.334   3.708  0.0187 -0.2790 -0.0081
26386OCT     C152771  13.498   6.451  22.090 -0.2857 -0.0438  0.3596
26386OCT     C252772  13.546   6.398  21.674 -0.0960 -0.3111  0.0368
26387OCT     C152773  21.956   8.069   9.738  0.0632  0.1519 -0.2556
26387OCT     C252774  21.493   8.032   9.879  0.1757 -0.1372  0.0401
26388OCT     C152775  22.478   6.533  17.314 -0.5452 -0.0047  0.5543
26388OCT     C252776  22.300   6.416  16.879  0.1968  0.2121 -0.1118
26389OCT     C152777  19.014  11.138   0.982 -0.1398 -0.1807  0.0770
26389OCT     C252778  19.448  11.066   0.863  0.1427 -0.0829  0.1353
26390OCT     C152779  12.731  11.468   7.655 -0.0689 -0.1644 -0.0176
26390OCT     C252780  12.558  11.054   7.839 -0.1501  0.1405 -0.0542
26391OCT     C152781  12.500   7.217   8.281 -0.0383 -0.4439  0.1362
26391OCT     C252782  12.052   7.205   8.426 -0.0842 -0.4751 -0.0742
26392OCT     C152783  18.451  21.001   8.223  0.1784  0.1082  0.0801
26392OCT     C252784  18.726  20.879   8.583  0.0156 -0.3237  0.2957
26393OCT     C152785  21.934  22.959  11.465 -0.2384  0.0201  0.3393
26393OCT     C252786  21.696  23.081  11.889  0.1669  0.1067  0.1069
26394OCT     C152787  13.843   8.467  12.590 -0.1968  0.1974 -0.2681
26394OCT     C252788  14.258   8.655  12.693 -0.3326 -0.4106  0.0182
26395OCT     C152789  19.297  19.159   8.567 -0.0586  0.2529 -0.0676
26395OCT     C252790  19.679  19.287   8.761  0.1734 -0.0270  0.0927
26396OCT     C152791   1.020  21.967  14.200  0.4174  0.3295 -0.1527
26396OCT     C252792   1.026  21.697  13.832 -0.0841  0.1747 -0.0484
26397OCT     C152793  12.055   3.266   8.755  0.2695 -0.3067 -0.1202
26397OCT     C252794  12.487   3.145   8.673 -0.2532  0.0646  0.1133
26398OCT     C152795   9.696   9.212  17.708  0.1399 -0.1271  0.0770
26398OCT     C252796   9.373   9.198  17.386  0.4764 -0.2100 -0.2941
26399OCT     C152797  21.009  18.701   0.820 -0.4281  0.0375 -0.0910
26399OCT     C252798  20.980  18.303   1.130  0.1164 -0.0572  0.6598
26400OCT     C152799   8.090   9.365  12.522  0.1565 -0.2204  0.0839
26400OCT     C252800   8.149   9.623  12.921  0.4267  0.0541  0.1628
26401OCT     C152801  22.706   3.176   3.376  0.0084  0.5150 -0.2367
26401OCT     C252802  22.720   3.197   3.877 -0.0777  0.2774 -0.3761
26402OCT     C152803  13.012  19.240   5.727  0.2634  0.0459  0.3414
26402OCT     C252804  13.317  19.492   5.973 -0.0426  0.0269 -0.1136
26403OCT     C152805   7.823   8.135   1.361 -0.3356 -0.0038  0.4227
26403OCT     C252806   7.442   8.316   1.127 -0.1622 -0.1471 -0.1991
26404OCT     C152807  19.984  15.444  13.694  0.0443  0.1559  0.0403
26404OCT     C252808  20.268  15.402  14.080  0.0177 -0.1062  0.1745
26405OCT     C152809  13.143  23.719  10.973  0.2025 -0.3004  0.2457
26405OCT     C252810  13.236   0.248  11.327  0.1156  0.0111 -0.0782
26406OCT     C152811  22.502   6.973   2.086  0.0787  0.4405 -0.0757
26406OCT     C252812  22.049   6.966   2.151  0.0794  0.0406  0.2313
26407OCT     C152813   6.649  21.046  19.996  0.0352  0.0088 -0.3107
26407OCT     C252814   6.832  21.493  20.072  0.1224 -0.3689 -0.4413
26408OCT     C152815   0.062   9.040   9.487  0.0934  0.0434 -0.1370
26408OCT     C252816   0.426   8.770   9.342 -0.3160 -0.0430 -0.0618
26409OCT     C152817  14.064   0.565   4.745  0.0066 -0.1921 -0.0276
26409OCT     C252818  14.292   0.546   5.162  0.0501 -0.1208 -0.0156
26410OCT     C152819  20.814   3.516  13.554  0.2120 -0.1690 -0.0005
26410OCT     C252820  20.725   3.171  13.292 -0.1330 -0.1022 -0.3263
26411OCT     C152821  18.278  16.274  21.508  0.1643  0.1959  0.1747
26411OCT     C252822  17.993  16.063  21.236  0.1236  0.2761 -0.1003
26412OCT     C152823  14.430  16.652   6.640  0.1609  0.0921 -0.2287
26412OCT     C252824  14.727  16.598   6.327  0.1239  0.0448  0.0140
26413OCT     C152825  10.895   7.049   9.731 -0.1571 -0.4519 -0.0182
26413OCT     C252826  10.554   7.339   9.905  0.4750  0.2138  0.3265
26414OCT     C152827  14.082  14.487  20.730  0.0704 -0.1003 -0.1416
26414OCT     C252828  13.769  14.684  20.474 -0.1632  0.0255 -0.1176
26415OCT     C152829  20.142  19.531   8.630 -0.0245 -0.0184 -0.1974
26415OCT     C252830  20.271  19.066   8.491  0.2062  0.0288 -0.0139
26416OCT     C152831   2.589  14.139   3.779 -0.2420 -0.3767  0.0791
26416OCT     C252832   2.681  14.167   4.246  0.0250  0.0763  0.1504
26417OCT     C152833   9.926   0.930  19.242 -0.7161 -0.0478 -0.4828
26417OCT     C252834  10.083   0.479  19.149 -0.3676  0.1034 -0.2347
26418OCT     C152835  11.947   6.810  13.984 -0.0241  0.3022 -0.2497
26418OCT     C252836  11.963   7.213  14.246 -0.3281  0.1660  0.0497
26419OCT     C152837  10.377   0.771   7.702 -0.0384 -0.1803 -0.1707
26419OCT     C252838  10.415   0.729   7.243 -0.0814  0.0164 -0.0993
26420OCT     C152839   3.883  13.654   5.592 -0.2542 -0.2985 -0.0873
26420OCT     C252840   4.014  13.293   5.295 -0.0980  0.0836 -0.3309
26421OCT     C152841   4.238   9.885  21.819 -0.0230  0.1688 -0.0904
26421OCT     C252842   4.337  10.252  22.092  0.1417 -0.0483  0.0283
26422OCT     C152843  15.497  23.555   4.304 -0.2128  0.3476  0.2681
26422OCT     C252844  15.408   0.057   4.640  0.1024 -0.3634 -0.2123
26423OCT     C152845   0.310  21.454  18.567  0.2870 -0.0579 -0.1801
26423OCT     C252846   0.737  21.562  18.873  0.3041 -0.1543 -0.0138
26424OCT     C152847   3.534   6.140   5.026  0.0464  0.1817  0.0213
26424OCT     C252848   3.513   6.090   5.470 -0.2326 -0.0305 -0.0559
26425OCT     C152849   0.085  11.151  18.033 -0.2568  0.0812 -0.0441
26425OCT     C252850   0.150  11.361  17.612  0.0683 -0.4399 -0.2808
26426OCT     C152851  16.564  16.787   7.090  0.2893  0.1635  0.1777
26426OCT     C252852  16.982  16.540   7.168  0.1356  0.6838  0.0639
26427OCT     C152853   5.008   3.046   9.867 -0.2431 -0.2063 -0.2313
26427OCT     C252854   5.407   3.191  10.074 -0.0779 -0.0530  0.0886
26428OCT     C152855  16.501  22.670   0.075  0.0178  0.0680  0.2831
26428OCT     C252856  16.458  22.284   0.268 -0.1953 -0.0849 -0.2574
26429OCT     C152857  12.973  22.812  16.214 -0.0634  0.0230 -0.1719
26429OCT     C252858  12.665  22.519  15.999  0.1251 -0.2985  0.3954
26430OCT     C152859   0.141  16.472  22.867  0.1196 -0.2460 -0.0801
26430OCT     C252860   0.568  16.312  22.675 -0.1614  0.0099 -0.1959
26431OCT     C152861  12.344  17.428  14.746  0.2047  0.3426 -0.1286
26431OCT     C252862  12.253  17.728  15.036 -0.1632 -0.2142 -0.0893
26432OCT     C152863   7.087   8.213  22.725  0.0685  0.1310 -0.1855
26432OCT     C252864   7.401   8.466  22.945 -0.2033 -0.3460 -0.3017
26433OCT     C152865  13.343  16.649  17.490  0.2478 -0.1911 -0.1189
26433OCT     C252866  13.618  17.028  17.547  0.0428  0.1952 -0.2583
26434OCT     C152867  16.600   9.024   2.721  0.1158  0.2757  0.7308
26434OCT     C252868  16.627   8.815   3.159  0.0497  0.0999  0.0883
26435OCT     C152869  12.000   1.508  11.647 -0.1356  0.0185  0.1262
26435OCT     C252870  12.322   1.724  11.376 -0.1353  0.0497 -0.4714
26436OCT     C152871   9.685  10.419   7.712  0.1664 -0.0996 -0.0208
26436OCT     C252872   9.992  10.764   7.635 -0.0951 -0.1390 -0.0450
26437OCT     C152873   2.563   4.504   2.745  0.0791  0.3016  0.1029
26437OCT     C252874   2.599   4.732   3.126 -0.1014  0.0818  0.0675
26438OCT     C152875   7.593  15.672  19.890 -0.2654  0.1610 -0.0559
26438OCT     C252876   7.839  15.293  20.056 -0.2816  0.0372 -0.4385
26439OCT     C152877   3.467  23.045  11.870 -0.0501  0.0102 -0.4642
26439OCT     C252878   3.349  22.653  11.525  0.1426 -0.1246 -0.1099
26440OCT     C152879  17.980   8.824   7.918  0.4549  0.0736 -0.0486
26440OCT     C252880  18.164   8.852   8.335  0.5313 -0.1722 -0.0148
26441OCT     C152881  23.176  10.626   0.389 -0.2436 -0.1197 -0.3042
26441OCT     C252882  23.523  10.360   0.319  0.1863 -0.0495 -0.0213
26442OCT     C152883  18.413  21.254  15.418 -0.0081 -0.1094 -0.1403
26442OCT     C252884  17.985  21.416  15.513  0.0714 -0.1464 -0.0197
26443OCT     C152885   7.060  11.809   1.890 -0.0470 -0.0360  0.0680
26443OCT     C252886   7.322  11.918   1.554  0.3413 -0.2898  0.0577
26444OCT     C152887  11.005   0.352  19.149 -0.1966 -0.0615 -0.0599
26444OCT     C252888  11.352   0.002  19.251 -0.2174 -0.1536  0.0046
26445OCT     C152889  16.141  22.593  17.081  0.4677 -0.3141 -0.4463
26445OCT     C252890  15.993  22.906  16.740 -0.0774 -0.3606 -0.3335
26446OCT     C152891   4.742  13.820   3.262  0.1372 -0.1062 -0.0542
26446OCT     C252892   4.689  14.194   2.944 -0.0971  0.2557 -0.0445
26447OCT     C152893  16.115   2.442   9.172 -0.2971  0.0629  0.2062
26447OCT     C252894  16.326   2.208   8.857  0.0981  0.1331  0.0665
26448OCT     C152895   0.333   2.674   8.826  0.1696 -0.2594 -0.3078
26448OCT     C252896  23.682   2.410   8.695 -0.2273  0.1275  0.0942
26449OCT     C152897  16.503  18.784  23.537 -0.0363  0.0607  0.1982
26449OCT     C252898  16.620  18.335  23.491 -0.0779 -0.2126 -0.0715
26450OCT     C152899  16.305   2.787  22.756 -0.2783  0.1945 -0.1145
26450OCT     C252900  16.090   2.352  22.813 -0.2323 -0.2383  0.0506
26451OCT     C152901  23.185   9.359  13.869 -0.1876 -0.4554  0.0262
26451OCT     C252902  23.406   9.295  14.299  0.1793  0.0909 -0.1116
26452OCT     C152903   2.817  11.203   9.837 -0.1752  0.2844 -0.3573
26452OCT     C252904   2.680  11.599   9.665  0.0540  0.1598 -0.1781
26453OCT     C152905   5.579  18.418  19.240  0.3611 -0.1626 -0.1331
26453OCT     C252906   5.160  18.283  19.079 -0.2294  0.2442 -0.0168
26454OCT     C152907   2.404  20.278   1.276  0.1162  0.0546 -0.0667
26454OCT     C252908   2.750  20.173   1.521  0.0575  0.2305 -0.1318
26455OCT     C152909   1.226  11.803   0.514  0.1958 -0.0893  0.1387
26455OCT     C252910   1.649  11.644   0.350 -0.2872 -0.1588  0.3123
26456OCT     C152911   5.618   7.072  16.598 -0.0979 -0.3213 -0.1614
26456OCT     C252912   5.409   7.430  16.680  0.3250 -0.1748  0.1139
26457OCT     C152913  10.143  19.971  16.481 -0.2466 -0.2734 -0.1795
26457OCT     C252914  10.368  20.344  16.219 -0.3109  0.5813 -0.0732
26458OCT     C152915  22.715  20.926   1.453  0.0944 -0.0527  0.1337
26458OCT     C252916  22.741  20.919   1.902  0.6066 -0.1328 -0.0412
26459OCT     C152917  20.244  23.546   4.379  0.0982  0.3181  0.1279
26459OCT     C252918  19.943  23.251   4.467  0.1939 -0.0904  0.3039
26460OCT     C152919  14.199  20.121   2.722 -0.0352 -0.1838  0.1087
26460OCT     C252920  14.223  19.884   3.131 -0.2188  0.0456  0.3965
26461OCT     C152921  20.827   6.607   0.527 -0.0339  0.0454  0.2920
26461OCT     C252922  20.791   6.210   0.719 -0.2619 -0.1694 -0.1818
26462OCT     C152923   2.731  21.983  18.093  0.2006 -0.3212  0.1468
26462OCT     C252924   2.891  22.020  17.673  0.0040 -0.0890  0.2012
26463OCT     C152925   2.735   5.642  17.100 -0.2252 -0.0178  0.0882
26463OCT     C252926   2.732   5.476  17.558  0.0528  0.2234  0.0125
26464OCT     C152927   6.175   8.782  18.664 -0.0870 -0.0328  0.0204
26464OCT     C252928   6.565   8.837  18.865  0.1701  0.0647 -0.1809
26465OCT     C152929  15.704   2.201   9.030  0.0446 -0.3460  0.1914
26465OCT     C252930  15.423   2.077   9.341  0.2849 -0.3258  0.5937
26466OCT     C152931   1.047  11.449   8.011 -0.2403 -0.1911 -0.2045
26466OCT     C252932   0.953  11.905   7.898  0.1851 -0.0776  0.1431
26467OCT     C152933  21.487  23.475   5.558  0.0223 -0.3276  0.2413
26467OCT     C252934  21.501  23.391   6.005  0.0959 -0.0364  0.0296
26468OCT     C152935  16.618   2.408   5.026  0.1420  0.2295  0.1732
26468OCT     C252936  16.831   2.734   5.238 -0.2315 -0.1690  0.1701
26469OCT     C152937  14.151  18.473  15.199  0.3162  0.3315  0.0454
26469OCT     C252938  14.496  18.787  14.982  0.0715  0.2163  0.1475
26470OCT     C152939   2.232   6.011   0.500 -0.3979  0.1610 -0.1856
26470OCT     C252940   2.519   5.719   0.360 -0.0118  0.1219  0.0895
26471OCT     C152941  17.893  23.187  19.694 -0.1816 -0.4815 -0.0637
26471OCT     C252942  18.164  22.799  19.782  0.0825  0.2407 -0.3197
26472OCT     C152943  18.891   9.565  20.462  0.0855 -0.1779 -0.1287
26472OCT     C252944  19.095   9.948  20.712  0.0909 -0.3120 -0.4282
26473OCT     C152945   4.794  11.400   6.190  0.5241 -0.0355  0.2214
26473OCT     C252946   4.343  11.295   6.079  0.0374  0.1656 -0.1051
26474OCT     C152947  10.707  23.429   1.351 -0.0020 -0.1240  0.1272
26474OCT     C252948  10.393  23.116   1.338  0.1637  0.1727  0.0762
26475OCT     C152949  14.542   0.377   4.747 -0.1117 -0.1771 -0.2961
26475OCT     C252950  14.491   0.206   4.359  0.0363 -0.1713 -0.0062
26476OCT     C152951  14.083   1.520  22.838  0.0596  0.1957 -0.0128
26476OCT     C252952  14.343   1.855  22.687  0.0165 -0.2411 -0.1378
26477OCT     C152953   6.443  22.584   4.276  0.0296  0.0988 -0.1520
26477OCT     C252954   6.180  22.940   4.428  0.1898 -0.5671  0.2288
26478OCT     C152955   7.097  21.151   4.235 -0.0176  0.0785  0.1631
26478OCT     C252956   7.226  21.315   4.642  0.0577 -0.1456  0.0049
26479OCT     C152957   8.624  17.547   3.163 -0.0981  0.2158  0.0230
26479OCT     C252958   8.456  17.578   2.698  0.0953 -0.1004  0.2979
26480OCT     C152959   8.850   9.658   5.668  0.0467  0.2127  0.2960
26480OCT     C252960   9.195   9.327   5.551  0.1686 -0.0344  0.0961
26481OCT     C152961  16.100   1.707  12.091  0.1019  0.0535 -0.0495
26481OCT     C252962  15.710   1.897  12.171  0.1201  0.3783 -0.2600
26482OCT     C152963  17.824   2.341  23.312 -0.2948 -0.0896  0.0883
26482OCT     C252964  18.241   2.182  23.128  0.0186  0.2682  0.0992
26483OCT     C152965   6.229  14.257   5.428  0.2435 -0.2456  0.0001
26483OCT     C252966   6.362  14.619   5.139  0.1609 -0.3383 -0.1691
26484OCT     C152967  12.532  18.869  11.687 -0.0775  0.0671 -0.2217
26484OCT     C252968  12.588  19.170  12.020 -0.5108 -0.2984  0.2433
26485OCT     C152969  15.235   8.170   3.613 -0.0239  0.0897  0.0879
26485OCT     C252970  15.313   7.742   3.787 -0.0133  0.1337  0.6658
26486OCT     C152971  18.998  22.695  13.559 -0.1065  0.3138  0.0195
26486OCT     C252972  18.716  23.015  13.618  0.1976 -0.1807 -0.0277
26487OCT     C152973   0.567   1.474  13.041 -0.0636 -0.2878 -0.0904
26487OCT     C252974   0.498   1.751  12.669 -0.1482 -0.2148  0.1658
26488OCT     C152975  13.406  11.590  17.859  0.1537 -0.0738  0.0944
26488OCT     C252976  13.016  11.786  17.984  0.0398  0.3438 -0.2473
26489OCT     C152977   8.160  19.528   9.897 -0.0639  0.2021 -0.1992
26489OCT     C252978   7.913  19.245   9.571 -0.1728  0.0198 -0.1352
26490OCT     C152979  16.646  22.805  10.259 -0.1754 -0.0513 -0.0578
26490OCT     C252980  17.044  22.820   9.992  0.2674 -0.0822 -0.1592
26491OCT     C152981  10.405   9.035  12.483 -0.0580  0.1116 -0.2612
26491OCT     C252982  10.675   8.740  12.720  0.1141 -0.3787 -0.1399
26492OCT     C152983   8.599  22.399  15.593  0.2012  0.1259 -0.3935
26492OCT     C252984   8.444  22.785  15.384  0.1563  0.1896  0.0906
26493OCT     C152985  16.693   4.463   1.871 -0.1679  0.1205 -0.0118
26493OCT     C252986  16.929   4.069   1.675 -0.1251  0.0297 -0.0576
26494OCT     C152987  20.190   1.093  21.495  0.0600 -0.2738  0.1466
26494OCT     C252988  19.740   1.222  21.524 -0.4583  0.0247 -0.1085
26495OCT     C152989   8.732  14.045   5.708  0.2245  0.1055 -0.2589
26495OCT     C252990   8.550  13.923   5.318  0.0986 -0.0508 -0.0574
26496OCT     C152991  15.471  12.423   6.937  0.0731 -0.1983  0.2379
26496OCT     C252992  15.264  12.627   6.570 -0.1537  0.1674  0.2608
26497OCT     C152993  11.020   4.950  20.882 -0.1561 -0.0175  0.3207
26497OCT     C252994  11.086   5.393  21.039 -0.2464 -0.1410  0.3408
26498OCT     C152995  17.909   5.750  20.412 -0.1723 -0.3099 -0.1285
26498OCT     C252996  17.581   6.009  20.669  0.0184  0.0413 -0.1311
26499OCT     C152997  14.308  12.118  16.797 -0.6062 -0.1034  0.1504
26499OCT     C252998  14.664  12.258  16.474  0.2081 -0.0047  0.1809
26500OCT     C152999  17.850   8.780  13.681  0.0106  0.3073  0.4428
26500OCT     C253000  17.542   9.064  13.850 -0.1046  0.1032  0.2014
26501OCT     C153001   0.036  17.903  14.939  0.0569 -0.5060 -0.2007
26501OCT     C253002  23.427  18.159  14.586 -0.2206 -0.0881 -0.3772
26502OCT     C153003  22.454  14.831   3.464 -0.3302 -0.0466  0.2754
26502OCT     C253004  22.568  15.270   3.429  0.5584  0.2945  0.0142
26503OCT     C153005  14.767   8.647   3.736 -0.1801  0.0966  0.0110
26503OCT     C253006  14.443   8.925   3.904 -0.1885  0.4446  0.1140
26504OCT     C153007  11.057  14.179   2.223 -0.2386 -0.2447 -0.0974
26504OCT     C253008  11.220  14.200   1.820  0.1090 -0.5381  0.0486
26505OCT     C153009   5.003   0.036  11.217  0.2819  0.1898 -0.1461
26505OCT     C253010   4.806  23.683  10.805 -0.2275  0.0729  0.0151
26506OCT     C153011  23.179  19.678  21.175  0.3143 -0.3467  0.0856
26506OCT     C253012  23.366  19.929  21.520  0.0429  0.3499  0.2839
26507OCT     C153013  13.358  10.555  12.471  0.2232  0.2438 -0.1378
26507OCT     C253014  13.703  10.781  12.195  0.0111  0.0335  0.2513
26508OCT     C153015   4.566   9.533   7.887 -0.1705 -0.2451 -0.3040
26508OCT     C253016   4.632   9.088   7.896 -0.3478  0.1615 -0.0875
26509OCT     C153017  20.692   1.022   1.907  0.2579 -0.0190 -0.2760
26509OCT     C253018  20.673   0.936   1.413  0.1942  0.1296 -0.3514
26510OCT     C153019   5.379  21.298   1.382  0.2856  0.0116 -0.0506
26510OCT     C253020   4.970  21.239   1.666  0.2968  0.3828 -0.1152
26511OCT     C153021   1.000   9.156  13.803 -0.0168  0.5184  0.0661
26511OCT     C253022   1.276   9.527  13.777 -0.1210  0.1856  0.3522
26512OCT     C153023  15.187  11.602   1.811  0.0175  0.5094  0.0451
26512OCT     C253024  14.840  11.298   1.883 -0.1774 -0.1454 -0.0352
26513OCT     C153025   7.648  15.781   9.714  0.0254 -0.1289  0.0318
26513OCT     C253026   7.501  16.210   9.551 -0.0232 -0.5736  0.1261
26514OCT     C153027  18.080  18.780  13.452  0.5528  0.1198  0.1655
26514OCT     C253028  17.815  18.956  13.784  0.1792  0.1514  0.2818
26515OCT     C153029  18.445  20.881  13.787 -0.0483 -0.1975  0.2195
26515OCT     C253030  18.323  20.649  14.194 -0.1481 -0.3902 -0.1307
26516OCT     C153031   9.328  22.504  17.565  0.2109 -0.1623  0.2799
26516OCT     C253032   9.437  22.936  17.425 -0.0897  0.0096  0.0564
26517OCT     C153033   9.525  11.664   5.469  0.2129  0.2011  0.3201
26517OCT     C253034   9.440  12.080   5.705  0.4479 -0.0592 -0.0948
26518OCT     C153035   1.145   3.079  23.500  0.0114 -0.0150  0.0662
26518OCT     C253036   1.489   2.850   0.006 -0.0670  0.0460  0.3494
26519OCT     C153037   4.983   9.565   5.212  0.1198  0.1137  0.1067
26519OCT     C253038   5.371   9.291   5.178  0.1103 -0.1387 -0.0328
26520OCT     C153039  15.500   1.294  16.879  0.0583  0.2376  0.0623
26520OCT     C253040  15.927   1.494  16.807  0.0378 -0.1923 -0.7964
26521OCT     C153041  18.868  20.730   3.669  0.2058 -0.2164  0.1000
26521OCT     C253042  18.481  20.884   3.478 -0.0286  0.3072 -0.2724
26522OCT     C153043   4.593  11.362   7.827  0.0210 -0.0518  0.4460
26522OCT     C253044   4.384  11.246   7.483 -0.1104 -0.0355 -0.1613
26523OCT     C153045  14.209  11.026   0.093  0.0354  0.1039  0.1409
26523OCT     C253046  14.020  10.984   0.575 -0.2507  0.1049 -0.0850
26524OCT     C153047  17.985  16.148  19.709 -0.2336 -0.0198 -0.4917
26524OCT     C253048  17.809  15.766  19.493 -0.1226  0.2226  0.1653
26525OCT     C153049  18.551   4.649   5.788 -0.3325 -0.2097 -0.0866
26525OCT     C253050  18.432   4.798   6.189  0.2243  0.1128 -0.3449
26526OCT     C153051  16.289   0.782  19.545  0.0539  0.4041  0.2182
26526OCT     C253052  16.550   1.085  19.741  0.3781 -0.1233 -0.4533
26527OCT     C153053  11.898  15.437   3.563  0.0600 -0.0251  0.1520
26527OCT     C253054  11.879  15.596   3.134 -0.0488 -0.0904 -0.3369
26528OCT     C153055  15.640  12.949  15.444  0.0973  0.2271  0.4136
26528OCT     C253056  15.876  13.212  15.730  0.2884 -0.2113 -0.0831
26529OCT     C153057   2.019  18.102  17.443  0.3204 -0.4528 -0.1794
26529OCT     C253058   1.673  17.873  17.248  0.0494 -0.1059  0.1135
26530OCT     C153059   8.835  20.998  21.819 -0.0702 -0.0620 -0.0253
26530OCT     C253060   9.003  21.393  21.963  0.3027  0.0095 -0.1253
26531OCT     C153061  11.434  22.062  20.711 -0.1654  0.0606  0.0372
26531OCT     C253062  11.046  21.977  20.932 -0.0617  0.2665 -0.2605
26532OCT     C153063   7.224  10.912   3.829 -0.0252  0.1281  0.3443
26532OCT     C253064   7.176  10.964   3.388 -0.1089 -0.1331  0.0601
26533OCT     C153065  15.268   3.097   6.122  0.0861  0.0368  0.0663
26533OCT     C253066  15.704   3.279   6.122  0.0628  0.0808 -0.2847
26534OCT     C153067  18.190  14.951  20.337  0.3200  0.2506 -0.0930
26534OCT     C253068  18.147  15.383  20.207  0.1210  0.1542 -0.1847
26535OCT     C153069  20.597   2.219  14.566  0.1250 -0.2265 -0.1627
26535OCT     C253070  20.929   2.351  14.848 -0.4942  0.0234  0.0234
26536OCT     C153071  11.315   1.200  16.296 -0.0969 -0.3845 -0.1960
26536OCT     C253072  10.870   1.059  16.201 -0.1340  0.1222 -0.0586
26537OCT     C153073   9.084   5.592  10.797 -0.1890 -0.1189 -0.1440
26537OCT     C253074   8.852   5.691  11.234 -0.1982 -0.0966  0.5199
26538OCT     C153075   7.401   2.427   4.909  0.1071  0.1073 -0.2043
26538OCT     C253076   7.001   2.710   4.863  0.0887  0.1239 -0.1539
26539OCT     C153077  15.141   3.087  12.913 -0.2294 -0.0878 -0.0820
26539OCT     C253078  15.180   2.866  12.514  0.2461 -0.0246  0.0771
26540OCT     C153079   7.803   2.942  17.874  0.1812 -0.0383  0.3727
26540OCT     C253080   7.898   2.889  18.322  0.1904  0.0202  0.0458
26541OCT     C153081  18.129   1.092  17.136 -0.0954 -0.0931 -0.1970
26541OCT     C253082  18.051   1.194  16.745 -0.2557 -0.0024  0.1819
26542OCT     C153083   4.942  14.383   3.351 -0.2782 -0.1477 -0.3165
26542OCT     C253084   5.091  14.364   3.779 -0.0250  0.0815  0.0445
26543OCT     C153085  13.646  13.310  19.071 -0.0233 -0.1499 -0.3742
26543OCT     C253086  13.526  12.979  19.342 -0.1689  0.1338  0.2741
26544OCT     C153087  21.592  14.514  17.820  0.2803  0.2153 -0.0365
26544OCT     C253088  21.908  14.894  17.753 -0.1289  0.1654 -0.3513
26545OCT     C153089  21.727  22.719  20.228  0.0261  0.0287  0.1504
26545OCT     C253090  21.726  23.161  20.122  0.3585 -0.3164 -0.1123
26546OCT     C153091  22.445  13.321   9.210  0.3105  0.3084  0.2588
26546OCT     C253092  22.746  12.967   9.181 -0.2222 -0.0129 -0.2649
26547OCT     C153093  17.627  18.272  12.879 -0.2159 -0.0322  0.0834
26547OCT     C253094  17.700  18.638  13.131 -0.0067 -0.1347  0.1018
26548OCT     C153095  21.349  16.801   0.301  0.2537  0.1679  0.2148
26548OCT     C253096  20.985  16.676   0.052  0.3390 -0.1553  0.4115
26549OCT     C153097  21.171   9.286  19.180  0.1051 -0.1222  0.1879
26549OCT     C253098  21.551   9.544  19.113 -0.1417 -0.2692  0.2491
26550OCT     C153099  21.872   1.282  17.506  0.1325  0.0357 -0.2386
26550OCT     C253100  22.012   1.702  17.623  0.3187  0.1801  0.1460
26551OCT     C153101  17.057   2.231   0.109  0.1373 -0.0759  0.2996
26551OCT     C253102  16.909   2.552   0.430  0.3444 -0.0978  0.2298
26552OCT     C153103   0.480  20.063  19.797 -0.2251 -0.1665 -0.0419
26552OCT     C253104   0.322  20.227  20.210 -0.2306  0.1316  0.2193
26553OCT     C153105  15.756  12.182   2.572 -0.3408  0.2741 -0.0024
26553OCT     C253106  15.537  12.317   2.185  0.0349  0.2513 -0.0447
26554OCT     C153107  13.991  15.949  13.413  0.0085  0.3134  0.1428
26554OCT     C253108  14.463  15.816  13.401 -0.1849  0.3124 -0.0555
26555OCT     C153109   4.894  15.020   9.387  0.0128  0.2391  0.0460
26555OCT     C253110   4.619  14.595   9.491 -0.2645 -0.2989  0.0071
26556OCT     C153111  13.446  21.543   7.166  0.3314  0.4451  0.1110
26556OCT     C253112  13.729  21.413   7.481 -0.0002 -0.1011  0.2013
26557OCT     C153113   4.174   7.040  10.193  0.0347 -0.5096  0.2679
26557OCT     C253114   4.602   7.033  10.366 -0.2748  0.1643 -0.2252
26558OCT     C153115  22.671   2.406  22.684  0.2569 -0.0276  0.0095
26558OCT     C253116  22.860   2.840  22.744 -0.2576 -0.0313 -0.0041
26559OCT     C153117   1.493   8.743  12.100 -0.3393  0.0277 -0.2701
26559OCT     C253118   1.257   8.356  12.004 -0.2367 -0.6127 -0.2514
26560OCT     C153119   4.626   2.199   9.793 -0.0049 -0.3108 -0.3598
26560OCT     C253120   4.784   2.472  10.077 -0.2211 -0.0606 -0.1027
26561OCT     C153121  12.158  15.306   5.767 -0.0936 -0.3268  0.1448
26561OCT     C253122  12.202  14.918   6.154  0.0738 -0.3183 -0.1031
26562OCT     C153123  11.366   7.691  21.565  0.0775 -0.3566  0.2237
26562OCT     C253124  11.186   8.056  21.337 -0.2442  0.1994 -0.1621
26563OCT     C153125   9.789   8.002   3.289 -0.1781  0.0493  0.3011
26563OCT     C253126  10.181   8.135   3.455  0.2959  0.2246 -0.2044
26564OCT     C153127  19.321  14.051  15.117  0.2254  0.4133 -0.2977
26564OCT     C253128  19.113  13.632  15.162  0.2472 -0.0965  0.0692
26565OCT     C153129  15.308  15.441  16.358  0.1433  0.2178  0.0486
26565OCT     C253130  14.929  15.633  16.277  0.3120  0.1802 -0.2006
26566OCT     C153131  11.472   6.648  18.670 -0.0555  0.1119  0.1627
26566OCT     C253132  11.627   7.132  18.570 -0.0683 -0.3918 -0.1947
26567OCT     C153133  12.270   5.391  22.094  0.3791  0.0543 -0.3331
26567OCT     C253134  12.080   5.377  22.545  0.1110  0.4465  0.1779
26568OCT     C153135  10.474   9.748   8.498 -0.3745  0.2280  0.0319
26568OCT     C253136  10.640   9.348   8.262 -0.0349  0.0214  0.2196
26569OCT     C153137   9.777  18.397  10.278  0.0265  0.0693 -0.1213
26569OCT     C253138   9.476  18.053  10.468 -0.2237 -0.1165  0.0780
26570OCT     C153139   7.961  19.981   1.535 -0.1672 -0.0764  0.1335
26570OCT     C253140   7.927  19.778   1.091 -0.2729 -0.1111 -0.2364
26571OCT     C153141  13.170  23.304  13.239 -0.0298  0.0224 -0.0280
26571OCT     C253142  13.594  23.407  13.139 -0.3980  0.2706  0.3099
26572OCT     C153143   6.335  11.198  11.742 -0.0515  0.2687  0.0771
26572OCT     C253144   6.638  11.549  11.838 -0.1234  0.1790  0.0169
26573OCT     C153145  18.005   3.609  13.342  0.0067 -0.4450 -0.0295
26573OCT     C253146  17.672   3.317  13.578 -0.0667 -0.1588  0.0664
26574OCT     C153147   3.124   2.381   0.516  0.1263 -0.0570  0.1203
26574OCT     C253148   3.124   2.900   0.469  0.0866  0.1568  0.0173
26575OCT     C153149   0.517   3.785  14.578 -0.0466 -0.2136 -0.1174
26575OCT     C253150   0.030   3.732  14.460 -0.5581  0.0603  0.3381
26576OCT     C153151   8.742  20.665   8.542 -0.3289 -0.0867 -0.0842
26576OCT     C253152   8.894  20.242   8.392  0.1179 -0.1219 -0.3739
26577OCT     C153153  19.647   3.192  20.430 -0.3250  0.3748  0.1900
26577OCT     C253154  20.086   3.153  20.442  0.2647  0.1162  0.1569
26578OCT     C153155   3.809   3.605  13.991 -0.1177  0.1618 -0.2243
26578OCT     C253156   3.643   3.453  13.574 -0.2091 -0.3444  0.1654
26579OCT     C153157  18.658   7.291  21.777  0.0613  0.2355 -0.0364
26579OCT     C253158  18.476   7.667  21.896  0.2817 -0.0297 -0.2548
26580OCT     C153159  18.439  21.153   9.520 -0.0992  0.1838 -0.0885
26580OCT     C253160  18.795  20.924   9.461  0.0958 -0.1112 -0.0449
26581OCT     C153161  21.761  20.630  22.568 -0.4598 -0.3465 -0.3212
26581OCT     C253162  21.941  20.273  22.337  0.1608 -0.5218  0.0474
26582OCT     C153163   0.904  10.350  15.446  0.3910  0.0493  0.1177
26582OCT     C253164   1.287  10.223  15.641 -0.3595 -0.0131  0.0947
26583OCT     C153165  22.731  22.940  17.635 -0.1081  0.1831 -0.0853
26583OCT     C253166  22.572  23.290  17.823 -0.0936  0.2526  0.0618
26584OCT     C153167  21.132   8.330  19.717 -0.0072 -0.0594 -0.0090
26584OCT     C253168  21.087   8.326  19.217  0.1076  0.1021  0.1181
26585OCT     C153169   7.315   2.500  15.585 -0.1018  0.0173 -0.2169
26585OCT     C253170   7.205   2.820  15.321 -0.1001 -0.2257  0.2769
26586OCT     C153171  16.925  14.801  18.185  0.0362  0.1021  0.0106
26586OCT     C253172  16.528  14.962  18.461 -0.1135  0.1153 -0.2477
26587OCT     C153173  13.825  10.843  23.399 -0.2206 -0.1209  0.1879
26587OCT     C253174  14.109  10.556  23.677  0.0269 -0.3767  0.3142
26588OCT     C153175  18.379   8.952   0.646 -0.1264  0.0006 -0.3215
26588OCT     C253176  18.392   8.889   1.115 -0.0985  0.1444 -0.0411
26589OCT     C153177   4.447  19.617  18.935  0.3782 -0.6814  0.0078
26589OCT     C253178   4.147  19.364  18.613  0.2641  0.2593 -0.4438
26590OCT     C153179   3.351   5.733  18.704  0.3319 -0.0480  0.2252
26590OCT     C253180   3.600   5.306  18.684  0.4005 -0.0866  0.1967
26591OCT     C153181  18.062   1.376  13.734  0.1554 -0.1986 -0.1497
26591OCT     C253182  18.102   0.907  13.622  0.1286  0.0051 -0.2829
26592OCT     C153183  19.217  23.299   6.748 -0.0953 -0.2710 -0.1013
26592OCT     C253184  19.252  23.302   7.213 -0.3478  0.2863 -0.1462
26593OCT     C153185   2.430   6.683  14.822  0.0234 -0.0053  0.0090
26593OCT     C253186   2.312   6.934  15.195 -0.1291  0.1887  0.0020
26594OCT     C153187   1.279   5.592   9.021  0.0872  0.1396  0.0504
26594OCT     C253188   0.894   5.288   9.122 -0.4214  0.1173 -0.0592
26595OCT     C153189  10.995  10.017   5.155 -0.1953  0.0689  0.0632
26595OCT     C253190  10.832   9.759   4.764 -0.3342 -0.0262  0.2929
26596OCT     C153191  15.817  21.986   1.714  0.0279  0.1169 -0.3023
26596OCT     C253192  16.161  21.688   1.533 -0.1636 -0.3058 -0.2290
26597OCT     C153193  11.046  20.612  14.421  0.1587 -0.4161 -0.4868
26597OCT     C253194  11.045  20.978  14.783  0.4402  0.1799  0.1398
26598OCT     C153195   3.037  15.603   9.418  0.2246 -0.2304  0.0607
26598OCT     C253196   2.638  15.525   9.362 -0.0619 -0.0140  0.0001
26599OCT     C153197   9.244   9.685  22.991  0.0125  0.1331 -0.3096
26599OCT     C253198   9.226  10.020  22.604  0.2908 -0.0323  0.0408
26600OCT     C153199  10.444   8.397  16.424  0.1261 -0.1527 -0.4743
26600OCT     C253200  10.133   8.382  16.825  0.0011  0.2146 -0.0030
26601OCT     C153201   7.770   8.594  18.406  0.3299 -0.0967 -0.1649
26601OCT     C253202   7.845   8.134  18.479 -0.1105  0.0952 -0.0433
26602OCT     C153203  17.506   5.980  22.007  0.2673  0.0330 -0.1634
26602OCT     C253204  17.683   6.404  21.900  0.0769 -0.1502 -0.1641
26603OCT     C153205  20.014  12.260  22.456  0.0058  0.3136  0.1582
26603OCT     C253206  20.232  12.204  22.026  0.2706  0.2405  0.1292
26604OCT     C153207  17.503  11.902  16.662  0.0689 -0.2135  0.3740
26604OCT     C253208  17.824  12.184  16.441  0.2003 -0.2859  0.3177
26605OCT     C153209  11.090  11.438  19.412  0.3212  0.2491 -0.1091
26605OCT     C253210  11.168  11.469  18.923  0.0739  0.2401 -0.5276
26606OCT     C153211   5.078   0.009  10.376  0.1739  0.3599 -0.0578
26606OCT     C253212   4.630   0.165  10.371 -0.3611 -0.2415 -0.1106
26607OCT     C153213  19.076  16.595  20.270 -0.2441  0.0612 -0.0126
26607OCT     C253214  19.289  16.220  20.062 -0.3332  0.0284 -0.1980
26608OCT     C153215   2.430  19.926   3.938 -0.1079  0.3304  0.0301
26608OCT     C253216   2.115  19.734   3.668  0.2822 -0.0472 -0.2084
26609OCT     C153217  22.975  18.333  13.169  0.3091 -0.1749  0.0747
26609OCT     C253218  22.660  18.463  12.874  0.0293  0.4234  0.0260
26610OCT     C153219   3.529  13.140  22.574  0.2518 -0.0401 -0.1211
26610OCT     C253220   3.334  12.848  22.850 -0.0633 -0.0673 -0.0554
26611OCT     C153221  22.975   3.958   0.465 -0.3573  0.0127  0.0364
26611OCT     C253222  23.019   4.113   0.028 -0.0147 -0.0605  0.1687
26612OCT     C153223   4.572   1.298  16.026  0.3507  0.0805 -0.1903
26612OCT     C253224   4.545   1.054  16.430 -0.3173 -0.3458 -0.0326
26613OCT     C153225  23.399  12.795  20.359 -0.0444 -0.0846  0.0527
26613OCT     C253226  23.163  13.216  20.366  0.1324 -0.0673 -0.2539
26614OCT     C153227   1.878  16.150  13.361 -0.0190  0.0199  0.0466
26614OCT     C253228   1.519  15.927  13.162 -0.2828  0.1521 -0.2388
26615OCT     C153229   6.912  10.380   0.932 -0.1257 -0.1601  0.0778
26615OCT     C253230   7.184   9.974   0.818  0.2341 -0.1357 -0.1097
26616OCT     C153231   6.964   8.006  13.448  0.0033  0.0090 -0.0120
26616OCT     C253232   7.328   7.709  13.341  0.2976  0.2118  0.3739
26617OCT     C153233   5.630  10.631   3.682  0.2417  0.1185 -0.0081
26617OCT     C253234   5.500  10.987   3.981  0.2497  0.0842 -0.0941
26618OCT     C153235  14.342  11.487   1.396 -0.2836  0.0085  0.0421
26618OCT     C253236  14.536  11.562   0.947  0.0554  0.1155  0.3155
26619OCT     C153237  16.348  10.810  11.536 -0.0554 -0.2620  0.0047
26619OCT     C253238  16.733  10.611  11.666  0.3118  0.1420  0.0114
26620OCT     C153239  22.621  15.686   2.350 -0.3766 -0.4294  0.0760
26620OCT     C253240  23.031  15.835   2.147 -0.1689 -0.0307 -0.1084
26621OCT     C153241   2.394  15.663  13.543 -0.0250  0.2914 -0.1472
26621OCT     C253242   2.022  15.805  13.791  0.6357  0.2710 -0.2734
26622OCT     C153243  11.804  13.781   1.751  0.2355 -0.1844 -0.2022
26622OCT     C253244  11.983  13.314   1.683 -0.5467  0.1242 -0.2951
26623OCT     C153245   2.015   1.662  15.481  0.0063  0.1472 -0.0034
26623OCT     C253246   1.610   1.672  15.596 -0.1476  0.0926  0.1072
26624OCT     C153247   8.587  10.514  11.618  0.0798 -0.1530 -0.0404
26624OCT     C253248   8.416  10.806  11.915 -0.1480  0.2066  0.3649
26625OCT     C153249   4.703  19.096   6.090  0.1466 -0.0978 -0.5126
26625OCT     C253250   4.248  18.941   6.016  0.5530  0.1043  0.0991
26626OCT     C153251  16.392   5.359  20.835  0.1408  0.1003  0.0048
26626OCT     C253252  16.299   4.917  21.018  0.0354  0.0240 -0.1358
26627OCT     C153253   2.336  14.704  13.860  0.0873 -0.3555 -0.1087
26627OCT     C253254   2.201  15.110  14.001  0.2183 -0.4099  0.3744
26628OCT     C153255  12.334  22.450  14.736  0.0540 -0.0478  0.2360
26628OCT     C253256  12.524  22.614  15.101 -0.1084 -0.0721  0.0579
26629OCT     C153257   4.828  23.540   2.337 -0.1285  0.0225  0.0173
26629OCT     C253258   4.915  23.136   2.087 -0.0134  0.0108 -0.4333
26630OCT     C153259   5.776   6.292  12.168 -0.1164  0.1404  0.1627
26630OCT     C253260   5.912   6.237  12.582  0.0539  0.0818 -0.0336
26631OCT     C153261   4.212  18.530  11.375  0.0046 -0.0267 -0.5577
26631OCT     C253262   4.094  18.627  10.914  0.1262 -0.0386 -0.3265
26632OCT     C153263  18.139   7.112  23.554  0.1524  0.1785 -0.0640
26632OCT     C253264  18.125   7.079  23.086  0.1918  0.3050 -0.2389
26633OCT     C153265  22.382  20.709  18.084  0.1516 -0.2193 -0.2653
26633OCT     C253266  22.491  20.689  17.613 -0.2937  0.1109 -0.1699
26634OCT     C153267   1.674   1.988   2.769  0.0979 -0.3426 -0.1051
26634OCT     C253268   1.969   1.640   2.581 -0.2381 -0.0363  0.1127
26635OCT     C153269   5.090   0.193   1.463 -0.4598  0.2724 -0.0445
26635OCT     C253270   4.994   0.300   0.975  0.2412  0.2937 -0.5601
26636OCT     C153271  10.122   7.232   6.205 -0.1998  0.1536  0.0112
26636OCT     C253272   9.950   7.273   6.659 -0.1977 -0.1520 -0.0707
26637OCT     C153273   6.333   2.297  11.385 -0.3614 -0.1091 -0.0532
26637OCT     C253274   5.967   2.040  11.523  0.1336  0.0138 -0.0323
26638OCT     C153275  13.783   8.712   6.048  0.2721 -0.5589 -0.1928
26638OCT     C253276  13.558   8.938   6.444 -0.0425 -0.0043  0.0340
26639OCT     C153277  13.592   9.004  13.179 -0.0606  0.1498 -0.1806
26639OCT     C253278  13.745   8.942  12.749  0.2639  0.1009 -0.0951
26640OCT     C153279   4.270  17.585  22.697  0.1366 -0.1334 -0.0019
26640OCT     C253280   4.370  17.472  23.152  0.0726  0.0062  0.1791
26641OCT     C153281  23.364  11.090  15.541  0.0899 -0.0927  0.0146
26641OCT     C253282  23.059  11.188  15.923 -0.4130  0.0585  0.0825
26642OCT     C153283   2.286  17.125   9.830 -0.0736 -0.2368 -0.0947
26642OCT     C253284   2.165  16.846   9.526  0.2282 -0.0170  0.0308
26643OCT     C153285   3.428   1.865   2.590 -0.0017  0.2839  0.1756
26643OCT     C253286   3.054   1.551   2.503 -0.1140 -0.0422  0.2807
26644OCT     C153287   1.972  10.617  13.196 -0.1262  0.2920 -0.0065
26644OCT     C253288   2.105  10.981  12.903  0.0221 -0.0713 -0.1191
26645OCT     C153289  20.902   9.193  13.771  0.0317  0.4445 -0.2856
26645OCT     C253290  20.741   8.734  13.627 -0.1577  0.1083  0.3254
26646OCT     C153291   2.645  20.661   6.960  0.1913 -0.1667 -0.2151
26646OCT     C253292   2.983  20.535   6.641 -0.2665 -0.1339  0.2306
26647OCT     C153293   9.127   0.729  20.432  0.3221  0.2270  0.0661
26647OCT     C253294   9.272   1.131  20.464 -0.3266  0.3024 -0.0051
26648OCT     C153295  11.446  23.433   5.115  0.1236  0.2720 -0.1953
26648OCT     C253296  11.677  23.459   5.509 -0.2787 -0.4085  0.2195
26649OCT     C153297  13.822  22.125  16.226  0.3087  0.1346 -0.0837
26649OCT     C253298  14.164  21.773  16.096 -0.3075  0.2548  0.1022
26650OCT     C153299   0.379  15.630   6.171  0.1884  0.0040  0.1628
26650OCT     C253300   0.083  15.827   6.479 -0.3261 -0.0139  0.0360
26651OCT     C153301  13.476  11.613   2.352  0.0978  0.1921  0.1558
26651OCT     C253302  13.149  11.870   2.160  0.2466  0.0520 -0.1709
26652OCT     C153303  21.336  10.132  21.518  0.0361 -0.0071  0.1045
26652OCT     C253304  20.904  10.025  21.211 -0.0300 -0.2150 -0.1340
26653OCT     C153305   7.866   1.710   0.808 -0.1494 -0.0824  0.0692
26653OCT     C253306   8.046   1.443   1.160  0.5003  0.2737 -0.0395
26654OCT     C153307   1.743   5.995   9.753  0.0850  0.4320 -0.0105
26654OCT     C253308   1.437   5.928   9.390 -0.2169 -0.2009  0.1125
26655OCT     C153309   9.742  15.653   1.316 -0.4549  0.4368 -0.1402
26655OCT     C253310   9.533  15.876   1.658  0.0233 -0.4023 -0.1175
26656OCT     C153311   3.680  15.896  20.446  0.1503  0.2044  0.0401
26656OCT     C253312   3.686  15.760  19.999  0.2133 -0.2814  0.1844
26657OCT     C153313  17.285  17.654   5.174 -0.0338 -0.2118  0.0432
26657OCT     C253314  17.745  17.564   5.091  0.0287 -0.3452  0.2524
26658OCT     C153315   3.470  18.934  16.625  0.2048  0.4931 -0.2381
26658OCT     C253316   3.711  19.125  16.336 -0.0151 -0.3642  0.2701
26659OCT     C153317  17.984  22.499   7.181 -0.2748  0.1819 -0.1813
26659OCT     C253318  18.091  22.943   7.027 -0.0992 -0.1581  0.1937
26660OCT     C153319   6.862   6.893   1.631 -0.0332  0.2104  0.0994
26660OCT     C253320   6.471   7.115   1.852 -0.3461 -0.4868 -0.0592
26661OCT     C153321   1.873   2.765  22.522 -0.1169  0.1598  0.0926
26661OCT     C253322   1.653   2.788  22.102  0.2739 -0.1216  0.1660
26662OCT     C153323  20.694   4.896  14.845  0.0226  0.3944  0.0010
26662OCT     C253324  20.813   4.515  15.130  0.1715  0.0702 -0.0311
26663OCT     C153325   7.001   5.681  21.525 -0.4137  0.0526  0.0618
26663OCT     C253326   7.150   6.041  21.296 -0.4086  0.0192 -0.0482
26664OCT     C153327  13.268   4.437  22.835  0.2478 -0.0724 -0.3862
26664OCT     C253328  13.240   4.873  22.972  0.1838  0.1150  0.1506
26665OCT     C153329  21.758  20.492  20.491  0.4279  0.2907 -0.0915
26665OCT     C253330  22.207  20.607  20.616 -0.0743  0.4738  0.3981
26666OCT     C153331  17.094   9.724  13.363 -0.0104 -0.2682 -0.2154
26666OCT     C253332  17.130   9.357  12.999  0.0322  0.2653 -0.2087
26667OCT     C153333  21.565  10.512  12.071 -0.0434  0.1484  0.0396
26667OCT     C253334  21.728  10.871  12.329 -0.1104 -0.0143  0.2287
26668OCT     C153335   6.724   4.469   6.553  0.1354  0.2362  0.1819
26668OCT     C253336   7.049   4.591   6.238 -0.0730 -0.0820  0.0353
26669OCT     C153337  18.370   1.221  22.069  0.0279  0.2716 -0.3837
26669OCT     C253338  18.722   1.018  22.265  0.0297 -0.2323 -0.0456
26670OCT     C153339   1.095  12.998  10.317 -0.0607 -0.4047  0.3337
26670OCT     C253340   1.044  12.759  10.714 -0.1176 -0.0213 -0.4560
26671OCT     C153341   6.255   3.960  21.179 -0.2005 -0.1373 -0.1932
26671OCT     C253342   6.211   3.504  21.259  0.3707 -0.0726 -0.2343
26672OCT     C153343  20.346  18.606  13.004 -0.1980 -0.1182  0.1428
26672OCT     C253344  20.652  18.963  12.938  0.0766  0.0237  0.1162
26673OCT     C153345   3.250  17.116   5.652  0.0956  0.0158  0.1234
26673OCT     C253346   3.552  16.931   5.318  0.2504  0.3189 -0.0619
26674OCT     C153347  12.531  20.206   9.349  0.0099 -0.0285  0.0938
26674OCT     C253348  12.718  19.930   9.673 -0.0136  0.2204  0.3523
26675OCT     C153349  23.135   0.971   3.988  0.0345 -0.1303  0.1182
26675OCT     C253350  23.533   1.064   4.214 -0.1655  0.1559  0.0807
26676OCT     C153351  13.464  23.027  19.117  0.1654 -0.1967 -0.0379
26676OCT     C253352  13.415  22.695  18.817 -0.5261  0.0367 -0.1482
26677OCT     C153353  10.099  10.282  13.889  0.3184 -0.1244 -0.1267
26677OCT     C253354   9.765   9.943  13.943  0.1465  0.0651 -0.1726
26678OCT     C153355  19.674   4.710  17.326  0.1833  0.0972 -0.0009
26678OCT     C253356  20.093   5.013  17.254 -0.1624 -0.1369 -0.1825
26679OCT     C153357   9.617  17.451  21.917  0.0517  0.3003 -0.1210
26679OCT     C253358   9.641  17.883  22.072 -0.0417  0.0157  0.5003
26680OCT     C153359  13.602   0.046  14.353  0.1844  0.1373 -0.0710
26680OCT     C253360  13.702   0.067  14.816 -0.0405  0.4292  0.2098
26681OCT     C153361  20.665   8.136   6.277 -0.0614  0.1433  0.0158
26681OCT     C253362  20.250   8.324   6.154  0.0051 -0.0825  0.0008
26682OCT     C153363  23.653   3.258   1.379 -0.1337 -0.0735 -0.1085
26682OCT     C253364  23.455   3.708   1.538 -0.2410  0.0035  0.4710
26683OCT     C153365   2.259  11.211  22.328  0.1355  0.0519  0.1662
26683OCT     C253366   2.418  10.853  22.081 -0.2613 -0.2395 -0.0136
26684OCT     C153367   7.860   8.891  11.758 -0.0393  0.0276 -0.0562
26684OCT     C253368   8.259   8.693  11.710 -0.0600  0.4228 -0.4439
26685OCT     C153369  21.571  16.968  20.376  0.3808 -0.2503 -0.4125
26685OCT     C253370  21.218  16.616  20.429  0.0624  0.0315 -0.4039
26686OCT     C153371  17.217  12.537  12.696 -0.1341 -0.1481  0.1207
26686OCT     C253372  17.619  12.618  12.474  0.0776 -0.0548  0.1225
26687OCT     C153373   3.489  10.461  11.738  0.0361 -0.2159 -0.1263
26687OCT     C253374   3.404  10.101  12.018  0.0086 -0.1312  0.1057
26688OCT     C153375  11.010  19.331   6.824 -0.0902  0.2263 -0.1607
26688OCT     C253376  10.790  19.739   6.909 -0.0243  0.2803  0.2103
26689OCT     C153377   4.329  12.783  21.046  0.3748 -0.2053  0.2863
26689OCT     C253378   3.936  13.029  21.102 -0.2854 -0.1118 -0.1552
26690OCT     C153379   2.839  15.327   1.626  0.0008 -0.1979  0.2710
26690OCT     C253380   3.292  15.285   1.668 -0.2475 -0.0199 -0.1492
26691OCT     C153381  11.034  17.285   9.309 -0.3274  0.1158  0.1498
26691OCT     C253382  10.777  17.665   9.440 -0.0621  0.0614 -0.0574
26692OCT     C153383  15.333   0.924  13.125 -0.1338 -0.1033  0.0661
26692OCT     C253384  15.307   1.345  12.941  0.3240  0.0531 -0.1906
26693OCT     C153385   9.822   9.448   7.748  0.3023  0.0680 -0.0098
26693OCT     C253386   9.588   9.090   7.657  0.0994 -0.0078 -0.3772
26694OCT     C153387   1.706   9.341  18.332 -0.0652 -0.5124 -0.4654
26694OCT     C253388   1.939   9.464  18.733  0.3713  0.2092 -0.1008
26695OCT     C153389  11.412   0.759  13.068  0.2403 -0.0720 -0.2393
26695OCT     C253390  11.141   1.157  13.091 -0.0349 -0.2069 -0.2501
26696OCT     C153391  19.376  23.295  12.720 -0.1953  0.2688  0.0111
26696OCT     C253392  19.635  22.960  12.461 -0.0148 -0.3300  0.1870
26697OCT     C153393  18.850   1.434  23.207 -0.0392 -0.0540  0.0718
26697OCT     C253394  19.095   1.746  23.478  0.3250  0.3009  0.0981
26698OCT     C153395  20.532   0.158   2.079  0.1568  0.0778 -0.0495
26698OCT     C253396  20.373   0.418   2.440 -0.4736 -0.1661  0.0986
26699OCT     C153397  17.947   7.253   6.750  0.0387  0.0278 -0.0173
26699OCT     C253398  18.051   7.196   7.204 -0.0634  0.0690 -0.3760
26700OCT     C153399   6.211   2.283   8.192  0.0661  0.2184 -0.0450
26700OCT     C253400   6.541   2.599   8.002 -0.2023 -0.1101 -0.2894
26701OCT     C153401  19.407  16.287  18.967  0.3123  0.0851 -0.3957
26701OCT     C253402  19.213  16.317  19.385  0.1333 -0.2653 -0.1631
26702OCT     C153403   9.345  14.833   3.997 -0.0867 -0.0089  0.0156
26702OCT     C253404   9.270  14.480   3.698 -0.0122 -0.2276 -0.1544
26703OCT     C153405  17.357  12.046  13.467  0.2963 -0.0681 -0.1837
26703OCT     C253406  17.283  11.587  13.546 -0.0451 -0.3231  0.2946
26704OCT     C153407  19.222   0.767   9.472  0.1701 -0.3025 -0.4251
26704OCT     C253408  19.457   0.738   9.092  0.2195  0.2603  0.1463
26705OCT     C153409  21.922  15.813  18.994 -0.0836  0.1510 -0.5386
26705OCT     C253410  22.286  16.076  18.838 -0.1111  0.2963 -0.0965
26706OCT     C153411  13.524   6.823  12.987  0.5433  0.0669 -0.3436
26706OCT     C253412  13.332   7.268  12.879  0.0792  0.0815  0.1863
26707OCT     C153413   0.874   6.930  18.478  0.4082 -0.1279 -0.0797
26707OCT     C253414   0.833   7.052  17.988 -0.0806  0.1587 -0.0260
26708OCT     C153415  20.155   1.535   0.690  0.0586 -0.2630  0.3065
26708OCT     C253416  20.552   1.550   0.469  0.1478  0.2546 -0.2553
26709OCT     C153417  12.599  11.088   6.234  0.0848 -0.2226  0.1393
26709OCT     C253418  13.026  11.361   6.184  0.0190  0.0524  0.1410
26710OCT     C153419   6.510   5.714   8.429 -0.2543  0.2273  0.1713
26710OCT     C253420   6.945   5.654   8.246 -0.0074 -0.0819 -0.3250
26711OCT     C153421  16.522  21.462  10.316 -0.0091 -0.0456 -0.0586
26711OCT     C253422  16.831  21.413  10.658 -0.2454 -0.0379 -0.0398
26712OCT     C153423  19.215  11.446  15.491 -0.0225 -0.3215 -0.4736
26712OCT     C253424  19.571  11.213  15.305  0.4118  0.0132 -0.0538
26713OCT     C153425   9.622  17.910  19.693 -0.1629 -0.0351  0.0671
26713OCT     C253426   9.267  18.207  19.695  0.4053 -0.0859  0.2714
26714OCT     C153427  13.945   5.242   8.720  0.1414 -0.0505  0.1747
26714OCT     C253428  14.214   5.083   8.346 -0.2381 -0.0692  0.1796
26715OCT     C153429   6.008  19.970   7.445  0.2259 -0.3699 -0.1753
26715OCT     C253430   6.095  19.538   7.321 -0.1352  0.1162  0.1672
26716OCT     C153431  23.134  14.874  13.548  0.0506 -0.1839  0.1829
26716OCT     C253432  23.145  14.912  13.094  0.3863  0.2588  0.3517
26717OCT     C153433  22.560  15.665  21.672  0.0310 -0.1439  0.2221
26717OCT     C253434  22.195  15.865  21.918 -0.2153 -0.2603 -0.1214
26718OCT     C153435  10.644   5.758  11.234  0.4053 -0.3358  0.0265
26718OCT     C253436  10.624   6.138  11.571  0.0996  0.0747 -0.0162
26719OCT     C153437  23.086  14.617  14.503  0.0136  0.1889 -0.2098
26719OCT     C253438  22.985  14.200  14.364 -0.0288  0.3495 -0.3395
26720OCT     C153439  14.341   3.345   4.472 -0.1402  0.2044  0.1172
26720OCT     C253440  14.778   3.361   4.204 -0.0089 -0.3212  0.0566
26721OCT     C153441  15.405  22.716   5.756 -0.2335 -0.0979  0.0321
26721OCT     C253442  14.926  22.733   5.657  0.5613  0.3422 -0.4194
26722OCT     C153443   1.372   9.442   7.423 -0.0608 -0.0371  0.0520
26722OCT     C253444   1.091   9.403   7.766 -0.1861  0.2037 -0.1117
26723OCT     C153445  21.194  13.563   3.869  0.0584 -0.1114 -0.0455
26723OCT     C253446  21.606  13.713   4.071  0.3547  0.1353 -0.0408
26724OCT     C153447  22.761  19.389   2.004 -0.0478 -0.4513  0.2403
26724OCT     C253448  22.334  19.249   2.018 -0.0356  0.5519  0.0389
26725OCT     C153449   7.071  22.044  12.749  0.1218  0.1097  0.1540
26725OCT     C253450   7.399  21.855  12.971 -0.2224  0.1267 -0.2544
26726OCT     C153451  18.303  12.680  17.145  0.0197 -0.1487  0.0078
26726OCT     C253452  18.262  13.164  17.023 -0.1523 -0.0489 -0.0220
26727OCT     C153453   7.293   9.247   5.025 -0.0589  0.3570 -0.1084
26727OCT     C253454   7.375   9.461   5.395 -0.1327  0.1567 -0.0821
26728OCT     C153455  14.657  10.993  14.328  0.1534 -0.0307 -0.2929
26728OCT     C253456  14.442  10.829  13.960 -0.1465 -0.1074  0.0856
26729OCT     C153457   5.999   8.953  15.234 -0.1361  0.0003 -0.1524
26729OCT     C253458   5.607   8.769  15.532 -0.3184 -0.1813 -0.0996
26730OCT     C153459  13.199   9.227   4.890  0.2535  0.2906  0.0153
26730OCT     C253460  13.286   9.658   4.750  0.1109 -0.0418 -0.3266
26731OCT     C153461  20.754   6.925  14.512 -0.1018 -0.0916 -0.0766
26731OCT     C253462  20.486   6.958  14.827  0.1088 -0.1558  0.0895
26732OCT     C153463   3.469  17.479  10.655  0.1081  0.1312  0.2649
26732OCT     C253464   3.842  17.251  10.472 -0.0692  0.4748  0.0719
26733OCT     C153465   9.258  13.745  14.584 -0.2004  0.1295 -0.3494
26733OCT     C253466   9.511  13.587  14.933 -0.0736 -0.2909 -0.4207
26734OCT     C153467  17.674   5.216  23.251 -0.0439  0.2279  0.1722
26734OCT     C253468  17.498   5.305  23.673  0.0248  0.1428 -0.0501
26735OCT     C153469  17.988  11.218   9.956 -0.0373  0.0617 -0.1354
26735OCT     C253470  17.724  11.526   9.725 -0.1812 -0.2795  0.1852
26736OCT     C153471  22.066  21.389  16.761  0.1156 -0.4396 -0.3001
26736OCT     C253472  22.257  21.096  16.456  0.4732 -0.0020 -0.0310
26737OCT     C153473  18.756   4.708   1.580  0.1899  0.1669 -0.4951
26737OCT     C253474  19.199   4.841   1.804  0.4599 -0.3075  0.3668
26738OCT     C153475  13.993   7.592   6.057  0.3359 -0.2081 -0.2433
26738OCT     C253476  14.436   7.565   5.880 -0.0613  0.1751 -0.1150
26739OCT     C153477   7.392  17.607   8.625  0.6144 -0.0729  0.2233
26739OCT     C253478   7.469  17.959   8.371 -0.3842  0.0760  0.3111
26740OCT     C153479   3.622  14.666  18.306  0.0470 -0.1874 -0.1689
26740OCT     C253480   3.278  14.399  18.092  0.3659 -0.2005  0.4981
26741OCT     C153481  16.213  14.072  15.204 -0.0812  0.2634  0.4633
26741OCT     C253482  16.209  14.514  15.062  0.0848  0.0163 -0.3414
26742OCT     C153483  23.664  11.077  23.038  0.0718 -0.1802  0.0184
26742OCT     C253484  23.353  11.430  23.324  0.1334 -0.4653  0.1057
26743OCT     C153485   1.206  14.959  11.676  0.0739  0.0034 -0.3030
26743OCT     C253486   1.107  15.163  11.272  0.3341  0.0322  0.0219
26744OCT     C153487   3.620   8.301   8.605 -0.1183  0.0462 -0.0523
26744OCT     C253488   3.494   8.206   8.114  0.0844 -0.0012  0.0441
26745OCT     C153489  21.247  22.726   6.704  0.0474 -0.3142  0.2047
26745OCT     C253490  20.782  22.853   6.727  0.1526  0.1935 -0.4442
26746OCT     C153491  23.698   8.089   6.308 -0.0161 -0.0515 -0.0303
26746OCT     C253492   0.356   7.925   6.385  0.2534  0.0051  0.1287
26747OCT     C153493   6.357   2.501  15.117 -0.0169 -0.0865 -0.2140
26747OCT     C253494   6.727   2.813  15.134 -0.1041 -0.1424  0.0210
26748OCT     C153495  17.757   3.477  14.225 -0.1697 -0.2560 -0.0271
26748OCT     C253496  18.183   3.610  13.961 -0.1970 -0.0935  0.1588
26749OCT     C153497   3.624  12.523   3.124  0.0326  0.2951  0.2192
26749OCT     C253498   3.244  12.554   3.460  0.3122 -0.0107  0.3272
26750OCT     C153499  16.566  12.521  10.355  0.1325  0.0514  0.0195
26750OCT     C253500  16.794  12.283  10.715 -0.0264 -0.0148  0.1215
26751OCT     C153501  15.105   6.840  11.796 -0.0753 -0.3362 -0.1026
26751OCT     C253502  15.523   6.816  11.841  0.1596 -0.2764 -0.3178
26752OCT     C153503  10.133   3.309   8.108 -0.0282  0.0500  0.1526
26752OCT     C253504  10.246   3.056   8.441  0.0670  0.2140  0.0220
26753OCT     C153505  19.418  16.764  18.406  0.4976  0.2626  0.0348
26753OCT     C253506  19.856  16.955  18.309  0.3007 -0.1790  0.1071
26754OCT     C153507  17.984   8.081  17.533  0.2240  0.1023 -0.2582
26754OCT     C253508  17.688   8.305  17.854 -0.2025 -0.3932 -0.1599
26755OCT     C153509  19.822  23.159   0.958 -0.4822  0.3721  0.2554
26755OCT     C253510  20.128  23.336   0.562  0.0978  0.4116  0.0079
26756OCT     C153511   0.986   9.588  17.649  0.4719 -0.0174 -0.0294
26756OCT     C253512   0.730   9.993  17.629 -0.0751 -0.2051  0.0700
26757OCT     C153513   8.313  18.009  15.321 -0.1735 -0.5863  0.2079
26757OCT     C253514   7.946  18.091  15.570 -0.2924  0.1532  0.1773
26758OCT     C153515   2.958   6.168  18.632  0.1367 -0.3772  0.2580
26758OCT     C253516   2.574   6.397  18.763  0.0815 -0.1297  0.2027
26759OCT     C153517   1.857   0.705   6.112 -0.1575  0.3783 -0.3619
26759OCT     C253518   1.853   0.598   5.648  0.1582  0.3454 -0.3106
26760OCT     C153519   6.713  21.201   3.872  0.0113  0.0626  0.1851
26760OCT     C253520   7.117  21.304   3.674  0.1152  0.0289 -0.0326
26761OCT     C153521  12.360  19.814   7.270 -0.0271 -0.2042  0.1234
26761OCT     C253522  12.539  19.396   7.355 -0.2313 -0.0647 -0.0037
26762OCT     C153523   3.672  14.289   3.629  0.1569  0.3045  0.2786
26762OCT     C253524   3.607  14.653   3.357  0.5334  0.1247  0.0509
26763OCT     C153525   3.551  21.656  12.317 -0.2816 -0.1750  0.1015
26763OCT     C253526   3.374  21.553  12.716 -0.0173  0.0889  0.2284
26764OCT     C153527   0.170   1.345   1.410 -0.0147 -0.6066 -0.4403
26764OCT     C253528   0.051   1.641   1.114  0.0684 -0.1426  0.1397
26765OCT     C153529  17.034   5.235  20.294  0.1455 -0.4102  0.4188
26765OCT     C253530  17.067   4.827  20.440 -0.1394  0.1959  0.2492
26766OCT     C153531  10.204  23.542  16.238  0.5148  0.4159  0.0837
26766OCT     C253532  10.505  23.190  16.405 -0.0878  0.1950 -0.2633
26767OCT     C153533   7.866  11.947  15.779 -0.3111  0.4277 -0.1228
26767OCT     C253534   7.931  11.441  15.854  0.3283 -0.2021 -0.0397
26768OCT     C153535  12.955   3.237   8.815  0.2759  0.1267  0.1942
26768OCT     C253536  13.201   3.282   8.406  0.2203 -0.0978 -0.1473
26769OCT     C153537   1.631  16.015   5.556 -0.0723 -0.3430  0.1784
26769OCT     C253538   2.090  16.009   5.719  0.3675  0.2058 -0.3262
26770OCT     C153539   0.200  19.093  14.891  0.0136 -0.0353  0.1653
26770OCT     C253540   0.463  19.347  14.624  0.3675  0.0121  0.4433
26771OCT     C153541  22.028   8.809  18.926  0.0075  0.4613  0.1390
26771OCT     C253542  22.062   8.319  18.782  0.2123 -0.1408 -0.0455
26772OCT     C153543   3.510  21.466  15.933  0.1491 -0.2263 -0.0203
26772OCT     C253544   3.352  21.493  15.456 -0.2137  0.0481 -0.1016
26773OCT     C153545  15.302   0.388  18.462  0.2611  0.1069  0.5795
26773OCT     C253546  15.406   0.646  18.116  0.3253 -0.1167 -0.3397
26774OCT     C153547   0.110   2.755   2.550 -0.0526 -0.0378  0.1668
26774OCT     C253548   0.488   2.676   2.294 -0.0835 -0.1668  0.1280
26775OCT     C153549  20.692  17.770  13.825  0.0004  0.0867 -0.0008
26775OCT     C253550  20.239  17.547  13.892  0.1063 -0.3792 -0.3263
26776OCT     C153551   8.809  13.668   3.253 -0.0080  0.2463 -0.1041
26776OCT     C253552   9.161  13.797   3.590 -0.1160 -0.0734  0.2089
26777OCT     C153553  21.804  12.875  21.454  0.2789 -0.0263 -0.1105
26777OCT     C253554  21.877  12.661  21.002  0.1140 -0.0022 -0.2752
26778OCT     C153555  21.061   4.788   8.500  0.1135  0.0888 -0.0488
26778OCT     C253556  21.248   5.027   8.874 -0.1555 -0.3549  0.0354
26779OCT     C153557  22.441  21.529  19.038 -0.5807 -0.0870  0.0864
26779OCT     C253558  22.483  21.158  19.321  0.1462  0.0241 -0.2762
26780OCT     C153559   5.385   8.333  17.931  0.2720 -0.1060 -0.2857
26780OCT     C253560   5.352   7.850  18.141  0.0458 -0.1177  0.2019
26781OCT     C153561   6.647   7.251  13.678 -0.1937  0.2020 -0.0713
26781OCT     C253562   6.963   6.932  13.924 -0.1223 -0.0767  0.0347
26782OCT     C153563  23.028  23.103  10.044  0.2403  0.1433 -0.1441
26782OCT     C253564  22.943  23.373   9.677 -0.1479 -0.2681  0.3083
26783OCT     C153565  10.671  11.817   5.868 -0.1063 -0.0305 -0.0437
26783OCT     C253566  10.816  11.562   6.213 -0.0323 -0.0326 -0.0147
26784OCT     C153567  10.682  23.590   4.961 -0.1298 -0.1315  0.2209
26784OCT     C253568  10.231   0.030   4.982  0.1470  0.0203 -0.0504
26785OCT     C153569  18.715  22.462  15.345  0.1104 -0.0257 -0.2353
26785OCT     C253570  18.617  22.166  15.698  0.1399  0.0383  0.1059
26786OCT     C153571  14.670  19.284  14.554 -0.0603 -0.2114 -0.1338
26786OCT     C253572  14.669  19.251  15.046 -0.2007 -0.0731  0.1787
26787OCT     C153573  13.556   2.315  10.195 -0.4101 -0.2401 -0.5163
26787OCT     C253574  13.665   1.952   9.919 -0.1296 -0.3767  0.2883
26788OCT     C153575   9.978   5.986   6.203  0.0318  0.2437 -0.4467
26788OCT     C253576   9.617   5.769   6.081 -0.3150 -0.1826  0.0077
26789OCT     C153577   3.064  18.877   9.743  0.0400 -0.1971 -0.0789
26789OCT     C253578   3.169  19.056   9.307 -0.2401 -0.0118  0.1228
26790OCT     C153579   7.622  12.533  18.806  0.3386  0.2790  0.2400
26790OCT     C253580   7.870  12.352  18.476 -0.0187 -0.2023 -0.0176
26791OCT     C153581  17.709   1.806  15.743  0.0378 -0.1587 -0.4584
26791OCT     C253582  18.198   1.944  15.712 -0.1826 -0.0296  0.0580
26792OCT     C153583   7.157  15.247  19.262  0.0888 -0.0267 -0.1133
26792OCT     C253584   7.333  14.807  19.256  0.4337 -0.3536 -0.0659
26793OCT     C153585   6.308  16.793  20.773 -0.1181  0.0732  0.1633
26793OCT     C253586   5.864  16.660  20.903 -0.6091 -0.1014  0.4585
26794OCT     C153587   8.228   4.646   2.215 -0.2079  0.0399  0.1218
26794OCT     C253588   8.319   4.917   2.634 -0.5645 -0.0567  0.4138
26795OCT     C153589  21.896   2.632   9.234  0.0313 -0.0306 -0.1237
26795OCT     C253590  21.495   2.768   9.460  0.0565  0.2261  0.1967
26796OCT     C153591  21.552  21.189   2.575 -0.1845 -0.0317 -0.2542
26796OCT     C253592  21.621  20.800   2.338 -0.0579  0.0023 -0.0176
26797OCT     C153593   6.857   6.425   0.771 -0.2126  0.0401 -0.0070
26797OCT     C253594   7.256   6.577   0.756 -0.1461 -0.0730 -0.0861
26798OCT     C153595  12.680   8.868   2.715 -0.4183  0.1789 -0.0080
26798OCT     C253596  12.374   8.958   3.065 -0.3073  0.1076  0.1603
26799OCT     C153597   8.381  15.214  12.171  0.0592  0.0948 -0.1398
26799OCT     C253598   7.988  15.501  12.310  0.2794  0.2592 -0.0474
26800OCT     C153599   5.840  13.726   8.241 -0.1939 -0.2879 -0.1952
26800OCT     C253600   5.655  14.101   8.457  0.0522  0.0859 -0.1497
26801OCT     C153601   7.387  15.862  18.011  0.2047 -0.1861  0.4204
26801OCT     C253602   7.428  15.672  17.574  0.0608  0.1699  0.2364
26802OCT     C153603  18.455  23.513   9.373 -0.1106 -0.0321 -0.0988
26802OCT     C253604  18.289   0.202   9.462 -0.2080  0.3811  0.0821
26803OCT     C153605  16.607  21.865  21.722  0.2828 -0.0221 -0.1419
26803OCT     C253606  16.923  21.857  22.042  0.1607 -0.2846 -0.0692
26804OCT     C153607   6.371  15.855  16.449  0.0365  0.1961  0.3859
26804OCT     C253608   6.401  16.277  16.495  0.2179  0.3087 -0.2557
26805OCT     C153609  11.667  14.849  20.455 -0.0403  0.0482  0.4232
26805OCT     C253610  11.872  14.440  20.554 -0.1268 -0.0318  0.1036
26806OCT     C153611  15.217  11.198  11.984  0.1237 -0.1574  0.2432
26806OCT     C253612  15.547  11.321  12.297 -0.3494 -0.1945 -0.0523
26807OCT     C153613  18.637   6.696   6.702  0.1929 -0.2442 -0.3105
26807OCT     C253614  18.449   7.061   6.564  0.4300  0.1170  0.0800
26808OCT     C153615   5.299   5.841  11.515  0.0269 -0.2841  0.2705
26808OCT     C253616   5.703   6.008  11.677 -0.4808  0.1562 -0.1222
26809OCT     C153617  10.489  14.092  16.877 -0.0036 -0.2266  0.0328
26809OCT     C253618  10.126  14.218  17.099  0.1176  0.1030  0.3342
26810OCT     C153619  17.464   4.737  13.479 -0.2454 -0.1348  0.1946
26810OCT     C253620  17.589   5.184  13.646  0.1179 -0.1196  0.0061
26811OCT     C153621  12.410   4.535  19.752 -0.2851 -0.2132  0.2532
26811OCT     C253622  11.951   4.386  19.810 -0.1529 -0.0361 -0.2447
26812OCT     C153623   2.964  17.673  12.163  0.0318  0.1984 -0.4513
26812OCT     C253624   3.120  17.597  11.722  0.5827 -0.0767  0.3518
26813OCT     C153625   0.206  15.737   8.112 -0.0621 -0.1603  0.0416
26813OCT     C253626   0.625  15.836   8.326  0.0162  0.3274 -0.3630
26814OCT     C153627   2.894   3.760  19.556  0.2855  0.3292 -0.1193
26814OCT     C253628   2.591   3.959  19.280 -0.3431 -0.3433 -0.2501
26815OCT     C153629  14.665  11.845  15.475 -0.0517 -0.1051 -0.2132
26815OCT     C253630  14.831  12.244  15.459  0.1058 -0.0151 -0.0730
26816OCT     C153631   8.977   9.235  12.388 -0.5120  0.1917 -0.4521
26816OCT     C253632   9.297   9.171  12.064 -0.3585  0.2813  0.1366
26817OCT     C153633   0.455   8.975  22.220 -0.2143 -0.1572 -0.1327
26817OCT     C253634   0.743   8.640  22.247  0.0251 -0.1285 -0.2399
26818OCT     C153635  14.656   8.430  11.266  0.0333 -0.2893  0.1375
26818OCT     C253636  14.207   8.538  11.259  0.1117  0.1789 -0.1484
26819OCT     C153637   8.859   8.423  20.835  0.2784 -0.0658 -0.0948
26819OCT     C253638   8.441   8.683  20.871  0.2340 -0.3326  0.1478
26820OCT     C153639  11.048  13.293  19.225  0.2704 -0.1932 -0.1593
26820OCT     C253640  10.697  12.949  19.206  0.1913  0.1891  0.1550
26821OCT     C153641  13.096   2.828   6.636  0.1057 -0.2167  0.0920
26821OCT     C253642  13.303   3.262   6.740  0.0844 -0.1293 -0.3786
26822OCT     C153643  19.921  21.749  22.755 -0.1655  0.0944  0.1578
26822OCT     C253644  19.587  22.114  22.839  0.2919  0.0256 -0.0492
26823OCT     C153645  11.541  10.712  18.769 -0.2120  0.0798 -0.0893
26823OCT     C253646  11.435  11.136  18.667  0.0912 -0.0594  0.1076
26824OCT     C153647   1.189  18.128   4.829 -0.1411  0.0336 -0.2315
26824OCT     C253648   1.357  18.393   5.214  0.1271 -0.0201 -0.2067
26825OCT     C153649   9.598   9.757  14.417  0.1246 -0.0483 -0.0247
26825OCT     C253650   9.951   9.560  14.224 -0.0788 -0.0205 -0.0051
26826OCT     C153651   9.023  10.479  19.887  0.3202  0.1224  0.1692
26826OCT     C253652   9.227  10.115  20.080  0.0438  0.0902  0.0529
26827OCT     C153653  10.384   1.288   7.955 -0.0001  0.1344 -0.2289
26827OCT     C253654   9.960   1.411   7.780 -0.3310 -0.1279  0.1247
26828OCT     C153655  12.140  12.629   8.919  0.2561  0.0551  0.2064
26828OCT     C253656  11.800  12.274   8.932  0.1006  0.2100  0.1139
26829OCT     C153657  12.549   4.113  10.305 -0.3305 -0.4101 -0.2177
26829OCT     C253658  12.429   4.010   9.827  0.0939  0.3241 -0.1065
26830OCT     C153659   4.021   8.959  12.221 -0.1153  0.1893 -0.0209
26830OCT     C253660   4.474   9.054  12.223  0.2736  0.1421 -0.0173
26831OCT     C153661  12.074   2.441   2.022 -0.1979 -0.0554  0.0322
26831OCT     C253662  12.318   2.810   2.162  0.5368  0.2298 -0.1306
26832OCT     C153663   5.356   4.768  21.738  0.1595 -0.2054 -0.0852
26832OCT     C253664   4.973   4.791  21.486 -0.0393 -0.2683 -0.0730
26833OCT     C153665  12.351  19.615  18.739  0.0231  0.0879 -0.1174
26833OCT     C253666  11.891  19.662  18.862 -0.2439  0.0054  0.4102
26834OCT     C153667   2.457  16.383   4.067  0.2379  0.2590 -0.2942
26834OCT     C253668   2.667  16.221   4.515 -0.1604  0.0044 -0.0992
26835OCT     C153669   6.445  10.438   5.815 -0.2566 -0.1549 -0.2755
26835OCT     C253670   6.856  10.600   5.804 -0.0538  0.0399  0.0050
26836OCT     C153671   6.763  15.044  16.612 -0.1439  0.0769  0.0535
26836OCT     C253672   6.946  14.590  16.659 -0.2388 -0.4522  0.1617
26837OCT     C153673  13.099  22.241  12.059  0.1008  0.2851  0.0928
26837OCT     C253674  13.334  22.283  12.485  0.1217 -0.0273 -0.0120
26838OCT     C153675  19.713  19.177  10.397 -0.2265  0.1184  0.1066
26838OCT     C253676  19.271  19.156  10.194  0.0037  0.0545  0.2206
26839OCT     C153677   2.773   8.721  11.794 -0.0068 -0.3015 -0.3278
26839OCT     C253678   3.024   8.610  11.441 -0.1681 -0.1273 -0.4491
26840OCT     C153679   9.419  23.544  18.756  0.0302 -0.0251 -0.0623
26840OCT     C253680   9.505   0.166  18.458 -0.0253 -0.2061 -0.0635
26841OCT     C153681  23.206   1.194  20.384 -0.0070  0.0705 -0.0005
26841OCT     C253682  23.463   0.931  20.680  0.1165  0.0013  0.2395
26842OCT     C153683  15.642  21.624  20.481 -0.0693 -0.0057  0.0787
26842OCT     C253684  15.710  21.221  20.163 -0.0969 -0.1645 -0.1026
26843OCT     C153685  21.769  20.114  16.247 -0.1250 -0.0511 -0.1710
26843OCT     C253686  22.087  20.063  15.952  0.0127  0.1744 -0.3931
26844OCT     C153687  18.917  23.318  18.422  0.5258  0.1053  0.1914
26844OCT     C253688  18.964  23.488  18.021  0.0056  0.3416  0.0573
26845OCT     C153689  10.227  11.211   3.753  0.2269  0.1703  0.0490
26845OCT     C253690   9.816  10.921   3.667 -0.6207  0.3163 -0.2534
26846OCT     C153691   6.959   7.812  16.800  0.0473  0.2362 -0.5716
26846OCT     C253692   7.209   7.873  16.501 -0.2660  0.1381 -0.1202
26847OCT     C153693   3.440   0.385  22.000  0.1838  0.0425  0.1402
26847OCT     C253694   2.986   0.347  21.880 -0.0117  0.0051 -0.0300
26848OCT     C153695  10.836  23.575  22.583 -0.2737  0.2742  0.2360
26848OCT     C253696  11.049  23.286  22.312  0.2042 -0.0455  0.0469
26849OCT     C153697  20.014  14.629  14.828 -0.1661 -0.3496 -0.3543
26849OCT     C253698  19.649  14.927  14.827 -0.3100 -0.2557  0.1366
26850OCT     C153699  13.962  16.943  19.066  0.2036  0.0679  0.1580
26850OCT     C253700  14.145  16.560  19.300  0.0577  0.1490  0.2783
26851OCT     C153701  23.548   8.130  11.991  0.4031 -0.1596  0.2757
26851OCT     C253702  23.662   8.510  11.705 -0.3949  0.0399  0.0348
26852OCT     C153703   4.687   7.198   7.171 -0.1098 -0.1364 -0.1821
26852OCT     C253704   4.902   7.158   7.588  0.0819 -0.2612 -0.0577
26853OCT     C153705  14.728  17.331  22.415  0.1908  0.1742  0.0004
26853OCT     C253706  14.619  17.450  22.007  0.3025  0.1618  0.1460
26854OCT     C153707  21.765   6.581  10.321  0.0060  0.0576 -0.1794
26854OCT     C253708  21.729   6.354   9.910  0.0303 -0.3335  0.0006
26855OCT     C153709   4.624  15.540   0.717 -0.0619 -0.1294 -0.2939
26855OCT     C253710   4.913  15.200   0.509  0.0765 -0.0774 -0.0948
26856OCT     C153711   0.644  21.804  11.268 -0.0443  0.2320 -0.1143
26856OCT     C253712   0.912  21.982  10.903 -0.2249  0.3909 -0.1643
26857OCT     C153713  22.822   1.432  17.875  0.0666 -0.1878 -0.1427
26857OCT     C253714  23.121   1.100  18.147 -0.0789 -0.2643 -0.1641
26858OCT     C153715  13.049   4.235   2.806  0.1115  0.1967 -0.3318
26858OCT     C253716  13.035   4.092   2.388 -0.6145  0.0880  0.3001
26859OCT     C153717  16.376   2.544   0.087  0.2272  0.0598  0.0853
26859OCT     C253718  16.075   2.331  23.607  0.0054 -0.1748  0.2038
26860OCT     C153719  18.046  20.675  17.278  0.2611 -0.0120 -0.3084
26860OCT     C253720  17.913  20.834  16.898  0.1329  0.2128  0.1755
26861OCT     C153721  16.925   3.461   4.115 -0.2191  0.1151 -0.1508
26861OCT     C253722  16.754   3.345   4.555  0.0731 -0.1504  0.0340
26862OCT     C153723  18.737  13.146   8.122  0.1233 -0.2389  0.1536
26862OCT     C253724  18.327  13.349   8.266 -0.1430  0.0294  0.1819
26863OCT     C153725  11.681  14.799   5.804 -0.3637 -0.3682 -0.2662
26863OCT     C253726  11.601  14.776   6.250 -0.0261 -0.2358 -0.1079
26864OCT     C153727   8.734  17.447   9.475  0.0007 -0.0399  0.3261
26864OCT     C253728   8.577  17.349   9.034  0.1344 -0.1377  0.2864
26865OCT     C153729   9.548   4.423  11.751 -0.0477 -0.3617 -0.2213
26865OCT     C253730   9.713   4.767  11.681 -0.2111  0.0686 -0.0161
26866OCT     C153731   5.880  18.015   6.344 -0.0873  0.2461  0.3054
26866OCT     C253732   5.504  18.015   6.536 -0.0077  0.0314 -0.2437
26867OCT     C153733   8.293  12.837  12.625  0.0587  0.2127  0.1816
26867OCT     C253734   8.696  12.717  12.789 -0.0484 -0.0051  0.3721
26868OCT     C153735   8.378   8.038   3.696 -0.1565  0.0819  0.1047
26868OCT     C253736   8.007   7.700   3.835 -0.3972 -0.1672  0.0280
26869OCT     C153737   1.356  11.499  10.274 -0.0461 -0.0650 -0.4309
26869OCT     C253738   1.718  11.521  10.560 -0.2496  0.3825  0.1749
26870OCT     C153739   7.425  23.453  23.353 -0.0541  0.2072  0.4724
26870OCT     C253740   7.448  23.466  22.872 -0.0016  0.2829 -0.0094
26871OCT     C153741   4.189   2.715   8.220  0.1933  0.1489  0.0492
26871OCT     C253742   4.526   2.946   8.434 -0.6486  0.0999 -0.0822
26872OCT     C153743  18.899   8.171   6.874  0.3678 -0.5018 -0.0084
26872OCT     C253744  19.002   7.665   6.919 -0.2984  0.0601 -0.0465
26873OCT     C153745   5.039  15.216  13.939  0.2387  0.2060 -0.2120
26873OCT     C253746   5.388  15.088  14.210  0.0459  0.0434  0.1224
26874OCT     C153747  12.669  10.932  15.231  0.1651 -0.4261  0.2537
26874OCT     C253748  12.291  11.153  14.987 -0.1533  0.0035 -0.0506
26875OCT     C153749  20.534  22.119   7.230  0.2358  0.2519 -0.0379
26875OCT     C253750  20.757  21.690   7.157  0.0105  0.2333 -0.0710
26876OCT     C153751  11.344   1.926  20.248 -0.4297  0.1960  0.0476
26876OCT     C253752  11.529   1.581  20.050  0.0208  0.1080 -0.1910
26877OCT     C153753  21.998   0.073   5.568 -0.2758 -0.4288 -0.1988
26877OCT     C253754  21.921   0.150   6.033 -0.0923  0.0039  0.3339
26878OCT     C153755  23.516  16.720   5.516  0.1294 -0.2364  0.0782
26878OCT     C253756  23.701  16.576   5.145 -0.3454 -0.0067 -0.3239
26879OCT     C153757   9.121   0.809   8.090 -0.0005  0.2419 -0.1931
26879OCT     C253758   9.037   0.952   7.664  0.0998  0.0267 -0.2206
26880OCT     C153759   8.500   9.759  16.449 -0.2918 -0.0626 -0.2622
26880OCT     C253760   8.142   9.584  16.276 -0.0264  0.1237 -0.2278
26881OCT     C153761  11.904  16.983  18.073 -0.1583  0.1201  0.1310
26881OCT     C253762  11.849  17.254  18.500  0.1128  0.4395  0.0748
26882OCT     C153763  14.607   1.435  14.986 -0.1516 -0.0076  0.1806
26882OCT     C253764  14.147   1.340  15.130  0.4688  0.1390 -0.1527
26883OCT     C153765  15.950  16.495   6.853 -0.0639 -0.3760 -0.3493
26883OCT     C253766  15.764  16.123   7.009  0.1198  0.0305 -0.2963
26884OCT     C153767  10.575   2.932  10.653  0.1350 -0.1643  0.1932
26884OCT     C253768  10.710   3.325  10.447 -0.1285 -0.0999 -0.1194
26885OCT     C153769  17.935  22.919   9.606 -0.3230  0.2492 -0.0012
26885OCT     C253770  17.973  22.523   9.435 -0.0446  0.0802 -0.1510
26886OCT     C153771   3.691   0.452   2.327 -0.0884 -0.2704  0.1618
26886OCT     C253772   3.757   0.814   2.604 -0.0645  0.3816 -0.0997
26887OCT     C153773  22.748   9.201   0.698  0.1602 -0.0996 -0.0148
26887OCT     C253774  22.419   8.884   0.829  0.0423  0.2212  0.1195
26888OCT     C153775  17.195  16.614  14.570  0.1879 -0.1251 -0.2499
26888OCT     C253776  17.187  16.170  14.404  0.1730 -0.1311  0.0762
26889OCT     C153777   1.571  13.977  11.971  0.0171  0.0141  0.1515
26889OCT     C253778   1.536  14.004  11.523 -0.0027  0.2264  0.0758
26890OCT     C153779  16.268   7.423  20.766 -0.1486  0.1454  0.0907
26890OCT     C253780  16.256   6.979  20.819  0.0549 -0.1397  0.1299
26891OCT     C153781  18.856   3.196   9.040 -0.0585 -0.1135 -0.4205
26891OCT     C253782  18.392   3.098   9.111  0.0911 -0.0595  0.0713
26892OCT     C153783  16.130  12.034  15.457  0.1918  0.1920  0.2042
26892OCT     C253784  16.080  12.125  14.973 -0.2414 -0.1625 -0.1842
26893OCT     C153785  15.592   3.737  10.897  0.1444 -0.3150  0.1350
26893OCT     C253786  16.078   3.781  11.009  0.0747 -0.2223  0.2314
26894OCT     C153787   8.931   8.840  15.452  0.0174 -0.1174  0.0803
26894OCT     C253788   9.120   8.967  15.051 -0.3361 -0.2685  0.1905
26895OCT     C153789   8.324  14.333  18.046  0.0132  0.2213 -0.1112
26895OCT     C253790   8.358  14.604  17.718  0.4171  0.0240  0.0784
26896OCT     C153791  13.234  11.440  12.240 -0.0780 -0.1462  0.1459
26896OCT     C253792  13.708  11.455  12.373 -0.2182  0.1423  0.2678
26897OCT     C153793   2.781  21.018   1.897  0.2712 -0.1253  0.0641
26897OCT     C253794   2.287  21.098   1.789 -0.1449 -0.2285  0.2123
26898OCT     C153795  17.694   5.113   4.933  0.0115  0.2437 -0.3207
26898OCT     C253796  17.721   5.066   5.391 -0.1075 -0.1017 -0.0753
26899OCT     C153797  21.267  10.375  17.411 -0.1797  0.0583 -0.2126
26899OCT     C253798  21.571  10.657  17.541  0.3618 -0.1101 -0.3956
26900OCT     C153799   3.376   5.134  14.281 -0.0592  0.1102 -0.1013
26900OCT     C253800   3.107   5.527  14.312  0.0013 -0.1642  0.2569
26901OCT     C153801  19.106   5.964  21.981  0.0968  0.0198  0.3404
26901OCT     C253802  18.834   5.760  22.258 -0.6230  0.2485 -0.1549
26902OCT     C153803  10.142  20.162   9.767 -0.0313 -0.2820  0.2255
26902OCT     C253804   9.831  19.797   9.863  0.4365 -0.0528 -0.0968
26903OCT     C153805  15.111   7.298  10.288  0.1176 -0.1368 -0.0225
26903OCT     C253806  15.519   7.078  10.120 -0.0986  0.2486 -0.0442
26904OCT     C153807   4.402   7.909   8.346 -0.2997 -0.0480  0.2077
26904OCT     C253808   3.934   7.943   8.339  0.2438 -0.0358  0.0365
26905OCT     C153809   4.946   6.361  17.292  0.0095  0.2027 -0.2186
26905OCT     C253810   5.080   5.936  17.182 -0.1704 -0.1931 -0.1826
26906OCT     C153811   0.819   9.043  10.232  0.1224 -0.0032  0.0273
26906OCT     C253812   0.758   9.110   9.766  0.0705  0.0686 -0.0624
26907OCT     C153813  10.437   7.388  14.713 -0.1740  0.0731  0.0466
26907OCT     C253814  10.246   7.101  14.399 -0.2507  0.0024  0.0349
26908OCT     C153815   3.041   2.258  11.490  0.0882 -0.1001 -0.2245
26908OCT     C253816   2.934   2.542  11.864  0.1134  0.1886 -0.0597
26909OCT     C153817  21.590  20.572  13.960 -0.1860  0.1669 -0.0635
26909OCT     C253818  21.405  20.976  13.934  0.1213  0.0622  0.3458
26910OCT     C153819  22.674  18.009   1.928  0.4157  0.1067 -0.3380
26910OCT     C253820  22.939  17.666   2.072  0.3006 -0.0011  0.2092
26911OCT     C153821   2.389   3.079  13.997 -0.3515 -0.0849  0.1808
26911OCT     C253822   2.488   3.384  14.338 -0.0243 -0.0718  0.0566
26912OCT     C153823   3.098  18.054  13.789 -0.1979  0.1662 -0.1086
26912OCT     C253824   3.456  18.165  14.050 -0.1573  0.0712  0.1307
26913OCT     C153825   1.428   8.954  21.786 -0.2608 -0.1722 -0.1796
26913OCT     C253826   1.108   8.934  22.010 -0.3000  0.0112 -0.1408
26914OCT     C153827   8.385   2.434  14.708 -0.0220 -0.1673  0.1879
26914OCT     C253828   8.851   2.464  14.603 -0.1111  0.1832 -0.2712
26915OCT     C153829   9.881  22.615  13.626  0.0547 -0.1190 -0.0229
26915OCT     C253830   9.729  23.056  13.744 -0.2494  0.1014  0.2017
26916OCT     C153831  12.184   7.047   5.912  0.0887  0.2551 -0.1938
26916OCT     C253832  11.989   6.712   6.093 -0.0359  0.2071 -0.4625
26917OCT     C153833  13.739  13.557   7.893 -0.4685  0.1432  0.0688
26917OCT     C253834  13.426  13.888   7.797  0.1663  0.7599  0.3671
26918OCT     C153835   4.608  14.399   8.179 -0.1655 -0.1289  0.2309
26918OCT     C253836   5.008  14.498   8.056  0.1812 -0.0789  0.2284
26919OCT     C153837  12.530  15.706   0.528  0.1815  0.0304 -0.1599
26919OCT     C253838  12.222  16.005   0.484 -0.2649 -0.3375 -0.0080
26920OCT     C153839   9.475   6.215  11.938  0.0091  0.1167  0.1491
26920OCT     C253840   9.098   6.415  12.092  0.0236  0.2821  0.0560
26921OCT     C153841   6.442   8.585   5.503 -0.1764 -0.1831  0.1940
26921OCT     C253842   6.598   8.818   5.853 -0.2500  0.0781 -0.0301
26922OCT     C153843  13.011  22.677   2.009 -0.1242 -0.1153 -0.2702
26922OCT     C253844  13.251  23.062   1.810  0.0421 -0.0607  0.1052
26923OCT     C153845   2.555  12.800   5.985 -0.2591 -0.2115  0.0963
26923OCT     C253846   2.323  12.966   5.599 -0.0241 -0.0130 -0.0001
26924OCT     C153847   2.031   3.785  19.517  0.2582 -0.0953 -0.3176
26924OCT     C253848   2.144   4.128  19.265  0.0583  0.2716 -0.0115
26925OCT     C153849   9.544  22.915  16.707 -0.0295  0.2049  0.2275
26925OCT     C253850   9.255  22.751  16.991  0.2959 -0.3209 -0.2790
26926OCT     C153851  14.268  23.402  12.936  0.0555 -0.1187 -0.2825
26926OCT     C253852  14.055   0.076  13.021 -0.2974 -0.1487 -0.1284
26927OCT     C153853   0.265   0.305   6.038  0.2584  0.2076 -0.3140
26927OCT     C253854   0.065   0.300   6.406  0.1641  0.1337 -0.0106
26928OCT     C153855  19.509  21.375  13.324  0.0825  0.0910  0.2124
26928OCT     C253856  19.711  21.523  12.902 -0.0387 -0.5392 -0.2675
26929OCT     C153857  18.116   9.783  17.749  0.1250  0.3069  0.5306
26929OCT     C253858  18.463   9.740  18.065  0.0013  0.0138  0.0312
26930OCT     C153859  12.533   8.209   3.959 -0.0383 -0.0701  0.1982
26930OCT     C253860  12.078   8.179   4.059 -0.2952  0.1414  0.1428
26931OCT     C153861   3.973   5.610  21.577  0.3213 -0.0233 -0.0951
26931OCT     C253862   4.079   5.507  22.042 -0.0201 -0.2078  0.1546
26932OCT     C153863   6.494  20.776  14.155 -0.2576 -0.2494 -0.2523
26932OCT     C253864   6.520  21.090  13.808 -0.0545  0.1117 -0.0422
26933OCT     C153865  11.194  12.019  17.654 -0.0779 -0.0962 -0.6584
26933OCT     C253866  11.402  11.975  17.244 -0.0890 -0.0178 -0.3441
26934OCT     C153867  13.522  18.738   6.610  0.1532  0.1313 -0.1891
26934OCT     C253868  13.354  18.341   6.750 -0.1074 -0.4030  0.2874
26935OCT     C153869  20.142  10.534   8.358  0.1825  0.1924  0.1621
26935OCT     C253870  20.011  10.289   8.638 -0.0029  0.3216  0.0399
26936OCT     C153871   3.214   0.934  23.511  0.2721 -0.5355 -0.0988
26936OCT     C253872   2.894   0.711  23.393 -0.1348 -0.4748  0.1470
26937OCT     C153873  21.086  21.393  15.044  0.2805 -0.0682  0.0704
26937OCT     C253874  20.819  21.420  14.642 -0.1761 -0.0306  0.0936
26938OCT     C153875  13.179  13.282  14.303  0.1862 -0.2445 -0.2200
26938OCT     C253876  13.208  13.240  14.811 -0.1726  0.2676 -0.3661
26939OCT     C153877  23.143  20.885  20.612 -0.3500  0.2864 -0.0544
26939OCT     C253878  23.576  20.983  20.739 -0.1193  0.2499  0.2934
26940OCT     C153879   1.903   3.258   2.749  0.5119 -0.0052  0.0305
26940OCT     C253880   1.723   2.956   2.481 -0.2488 -0.3486  0.0966
26941OCT     C153881  18.010   4.265  14.815  0.0412  0.0501  0.1781
26941OCT     C253882  17.659   4.558  14.619  0.0224  0.1224  0.2236
26942OCT     C153883  13.025  17.676  15.952 -0.4770 -0.0038 -0.2090
26942OCT     C253884  12.823  17.737  16.373  0.1209 -0.0207 -0.2030
26943OCT     C153885  11.287  15.280  13.848  0.0100  0.2012  0.1196
26943OCT     C253886  11.733  15.260  13.735 -0.0077 -0.2637 -0.1614
26944OCT     C153887   3.930   7.440  10.053  0.1052  0.1478  0.2025
26944OCT     C253888   3.757   7.844  10.149 -0.1893 -0.4100  0.0419
26945OCT     C153889   2.301   5.356  17.217 -0.0579  0.0902 -0.3961
26945OCT     C253890   2.457   5.011  17.511  0.1638  0.1380 -0.0257
26946OCT     C153891  21.268  12.056  15.563  0.0212 -0.1767  0.3533
26946OCT     C253892  21.450  11.663  15.794 -0.1279 -0.0777  0.1991
26947OCT     C153893  19.629  12.537  19.093  0.1692 -0.2126 -0.0677
26947OCT     C253894  19.818  12.185  18.867 -0.0803  0.1722  0.2831
26948OCT     C153895   0.620  22.008   4.332 -0.0306  0.0791  0.0740
26948OCT     C253896   0.545  22.122   3.885 -0.2071 -0.0982  0.1138
26949OCT     C153897  16.585  14.357  15.376  0.3471 -0.2706  0.0124
26949OCT     C253898  16.745  14.189  14.975 -0.2172 -0.0167 -0.1544
26950OCT     C153899  17.050  20.600   1.767 -0.2187 -0.0943 -0.1013
26950OCT     C253900  16.931  20.276   2.102  0.1512  0.1867  0.2113
26951OCT     C153901   7.353  21.227   0.299  0.2586 -0.1539 -0.2768
26951OCT     C253902   7.272  21.704   0.289  0.1551 -0.4105  0.1405
26952OCT     C153903  23.684  21.047  21.797  0.0701  0.2789 -0.0928
26952OCT     C253904  23.317  21.293  21.831 -0.0514 -0.1492  0.0766
26953OCT     C153905   5.993   7.332  22.135 -0.2053 -0.0936  0.2558
26953OCT     C253906   6.193   7.195  22.488 -0.2199 -0.2547  0.0140
26954OCT     C153907  22.250  20.424   6.260  0.3390  0.0719 -0.2797
26954OCT     C253908  22.523  20.786   6.356  0.1662 -0.1724 -0.2138
26955OCT     C153909  12.510  17.280  16.526 -0.0672  0.3489 -0.1131
26955OCT     C253910  12.655  16.854  16.699 -0.0765  0.1863 -0.1202
26956OCT     C153911   3.158  11.603  12.068  0.4913  0.1126  0.0002
26956OCT     C253912   3.299  11.559  12.499  0.1919  0.0708  0.1049
26957OCT     C153913  21.673  12.941   7.801 -0.2647 -0.1442  0.2301
26957OCT     C253914  21.479  12.963   7.391 -0.1082 -0.1467  0.0319
26958OCT     C153915   6.271   3.302   8.055  0.1719 -0.0114 -0.0872
26958OCT     C253916   6.248   2.876   8.305 -0.2072  0.0995  0.1875
26959OCT     C153917  19.171  20.709  15.840 -0.1750 -0.2308  0.0866
26959OCT     C253918  19.635  20.741  15.784  0.3843 -0.0979 -0.0787
26960OCT     C153919   2.764  11.385  22.111  0.0094 -0.1813  0.3262
26960OCT     C253920   2.880  11.824  22.221 -0.0363 -0.3178 -0.1205
26961OCT     C153921  12.882  22.405   2.849  0.4636  0.0297 -0.2903
26961OCT     C253922  12.465  22.213   2.916 -0.0110 -0.0244 -0.2926
26962OCT     C153923   3.066  22.016  19.153 -0.0241  0.0733 -0.0523
26962OCT     C253924   2.848  21.739  19.523 -0.0595 -0.1959  0.1141
26963OCT     C153925  16.037   0.794  20.462  0.1771 -0.0032  0.0927
26963OCT     C253926  16.041   0.646  20.873 -0.0776  0.0953 -0.0655
26964OCT     C153927  10.366  14.950   2.383  0.1011 -0.3637 -0.3771
26964OCT     C253928  10.141  15.370   2.389  0.2882  0.5170  0.4867
26965OCT     C153929  12.693  22.052   8.276  0.0966  0.1662  0.3310
26965OCT     C253930  12.331  22.312   8.340 -0.0332  0.1720 -0.1597
26966OCT     C153931  21.176   9.363   6.743  0.4090  0.1997  0.4531
26966OCT     C253932  21.183   8.898   6.606  0.2932  0.3089  0.2263
26967OCT     C153933   8.088  22.330  16.653 -0.1432  0.0199  0.0805
26967OCT     C253934   8.045  22.332  16.208 -0.0483  0.3066 -0.2649
26968OCT     C153935  10.120  15.529   0.135  0.2614 -0.3098 -0.0016
26968OCT     C253936  10.194  15.373   0.557 -0.2067 -0.1085 -0.0526
26969OCT     C153937  12.942  20.807  19.338  0.2020  0.1102  0.1895
26969OCT     C253938  13.260  21.129  19.273  0.2303 -0.2870  0.0939
26970OCT     C153939  23.327  15.107   6.180 -0.1026  0.3053 -0.1884
26970OCT     C253940  23.009  14.963   5.824  0.0051 -0.1137 -0.1143
26971OCT     C153941  19.101  18.035  19.798 -0.0204 -0.1975  0.0621
26971OCT     C253942  19.347  18.354  19.561 -0.0415 -0.2948  0.3127
26972OCT     C153943  10.537   9.901  22.978  0.1776 -0.6142  0.4404
26972OCT     C253944  10.256   9.589  23.085  0.2360 -0.1540 -0.3102
26973OCT     C153945  19.189  18.772   4.749 -0.0515  0.0064 -0.4599
26973OCT     C253946  18.872  18.579   4.526  0.0156 -0.1084  0.1088
26974OCT     C153947  18.677  13.041  22.846 -0.3206  0.2602 -0.0905
26974OCT     C253948  18.830  12.968  22.461 -0.1450  0.0569 -0.0847
26975OCT     C153949   4.988   8.590  23.449  0.6235  0.1662  0.0976
26975OCT     C253950   4.614   8.503   0.007 -0.4494  0.0429  0.3311
26976OCT     C153951  16.542   6.093   8.040 -0.0276 -0.2568 -0.1348
26976OCT     C253952  16.909   5.849   8.140  0.2633 -0.1252 -0.1417
26977OCT     C153953  11.530   7.160  10.304 -0.0568 -0.1460 -0.5005
26977OCT     C253954  11.900   7.076  10.569 -0.0907  0.3883 -0.0508
26978OCT     C153955  11.238  15.592  22.451  0.0855  0.0822 -0.1207
26978OCT     C253956  11.113  15.538  22.001 -0.2703  0.0977  0.2053
26979OCT     C153957  17.831  14.790  19.057  0.0328 -0.0120 -0.2588
26979OCT     C253958  18.193  14.534  18.952  0.0044 -0.1161 -0.1738
26980OCT     C153959  10.460   7.611   2.631 -0.0880  0.2487  0.2159
26980OCT     C253960  10.798   7.368   2.810 -0.2649  0.2166 -0.2795
26981OCT     C153961  20.448   3.357   7.529 -0.0743  0.2636 -0.2171
26981OCT     C253962  20.138   3.424   7.164 -0.0671 -0.0464  0.0023
26982OCT     C153963  13.697  22.720   1.270 -0.0368  0.2249  0.1638
26982OCT     C253964  13.934  22.825   1.650  0.1121 -0.1777 -0.3029
26983OCT     C153965  17.662  15.864   0.637 -0.1410 -0.2622 -0.1593
26983OCT     C253966  17.218  15.843   0.556 -0.2621 -0.0042 -0.1572
26984OCT     C153967  18.754   3.092  19.005 -0.0442  0.1007 -0.2959
26984OCT     C253968  18.552   2.824  18.727  0.5876 -0.0867 -0.1018
26985OCT     C153969  10.271   9.593   0.628  0.0007  0.3388  0.1123
26985OCT     C253970  10.226   9.224   0.915  0.0022 -0.1563  0.0190
26986OCT     C153971  16.013  14.258  18.805  0.1786  0.1124  0.1838
26986OCT     C253972  16.227  13.885  18.543  0.1296  0.3816  0.0057
26987OCT     C153973  21.385  14.076   1.576  0.2243 -0.1675  0.3264
26987OCT     C253974  21.541  13.677   1.503 -0.0961  0.3727  0.0725
26988OCT     C153975   0.453  15.190  16.460  0.3294 -0.2587 -0.2819
26988OCT     C253976   0.727  14.861  16.622 -0.1578  0.1265 -0.1630
26989OCT     C153977  12.971   2.743  15.951 -0.0076  0.2067  0.0110
26989OCT     C253978  13.388   2.453  16.049 -0.2396 -0.2941 -0.1648
26990OCT     C153979  22.738  17.956   6.068 -0.1663 -0.0422 -0.1587
26990OCT     C253980  22.747  17.923   6.506 -0.0982 -0.2371 -0.0731
26991OCT     C153981   7.456   6.740  17.440 -0.0939  0.0938  0.1149
26991OCT     C253982   7.261   7.143  17.428 -0.2109 -0.0174 -0.0715
26992OCT     C153983  17.119   3.119  22.378  0.3528 -0.1074 -0.0266
26992OCT     C253984  16.816   3.452  22.400  0.2199  0.0420 -0.1559
26993OCT     C153985  14.397   6.360   2.193  0.1097 -0.0487 -0.0406
26993OCT     C253986  14.559   6.688   2.516  0.0787 -0.0206 -0.0507
26994OCT     C153987  21.108  17.624   3.744  0.0573 -0.0674 -0.2564
26994OCT     C253988  21.520  17.620   3.925 -0.3613 -0.1643  0.0447
26995OCT     C153989  21.066   5.760  18.409  0.7069 -0.1052 -0.3008
26995OCT     C253990  21.326   5.779  17.979  0.4169 -0.3557  0.1959
26996OCT     C153991   6.768  13.195  15.631  0.0958  0.0540  0.0831
26996OCT     C253992   7.127  13.139  15.447  0.1239 -0.0213 -0.1636
26997OCT     C153993  10.640   0.450  12.738 -0.1130 -0.1558 -0.0705
26997OCT     C253994  10.768   0.836  12.933 -0.0024 -0.0838 -0.1355
26998OCT     C153995  19.339  16.501   3.626 -0.0177 -0.2545 -0.1754
26998OCT     C253996  19.115  16.134   3.555 -0.2551 -0.3618 -0.1041
26999OCT     C153997   4.953   0.773   3.519  0.1354  0.0982  0.3361
26999OCT     C253998   5.318   0.529   3.461  0.1466 -0.0646 -0.2363
27000OCT     C153999   1.631  17.630  19.310 -0.1465  0.0277  0.2306
27000OCT     C254000   2.085  17.642  19.400 -0.1296 -0.0801 -0.0451
27001OCT     C154001   0.990   0.535   9.244  0.1177 -0.0253  0.1427
27001OCT     C254002   0.666   0.212   9.125 -0.0033 -0.1603 -0.2796
27002OCT     C154003  19.440   8.752  13.664  0.4443  0.1238 -0.1696
27002OCT     C254004  19.776   8.680  13.974  0.0418  0.0795  0.0588
27003OCT     C154005   4.923  12.002   4.643 -0.0213 -0.0818  0.1335
27003OCT     C254006   4.556  11.705   4.435  0.0394  0.2169 -0.2211
27004OCT     C154007  10.786  20.350   4.406  0.0101 -0.0328 -0.2197
27004OCT     C254008  10.353  20.169   4.556 -0.1510  0.0275 -0.2448
27005OCT     C154009   5.498  15.778   6.550 -0.2466  0.1491 -0.1311
27005OCT     C254010   5.107  16.000   6.405 -0.0466  0.1221 -0.2814
27006OCT     C154011  22.878  19.493   9.494  0.1085  0.4714 -0.0813
27006OCT     C254012  23.043  19.028   9.524  0.1524 -0.0606 -0.3012
27007OCT     C154013  10.774  11.398  16.026 -0.4775 -0.0061  0.0784
27007OCT     C254014  10.881  11.617  16.409  0.1760 -0.1657 -0.2624
27008OCT     C154015   7.133  10.337  20.954 -0.2267  0.1369  0.4629
27008OCT     C254016   7.245  10.708  21.206 -0.1088 -0.1075  0.4597
27009OCT     C154017   6.594  10.074  21.600 -0.1928 -0.2475 -0.6699
27009OCT     C254018   6.197  10.036  21.845  0.0706  0.0775 -0.1041
27010OCT     C154019  16.648  13.582  18.653 -0.2868 -0.0704  0.0691
27010OCT     C254020  16.840  13.538  18.234  0.4659 -0.2684 -0.0323
27011OCT     C154021  16.470   0.840  11.978  0.0219  0.0397  0.0484
27011OCT     C254022  16.257   1.245  11.770 -0.2219  0.2886 -0.0212
27012OCT     C154023  12.959   8.373  18.554  0.1787  0.2646  0.2335
27012OCT     C254024  13.235   8.317  18.976  0.2460  0.0433 -0.3439
27013OCT     C154025  11.105  10.149   9.043 -0.1838 -0.2257  0.0678
27013OCT     C254026  11.361   9.839   8.970 -0.0965 -0.1085  0.0246
27014OCT     C154027  18.230   0.599  21.235 -0.0917  0.1925  0.1027
27014OCT     C254028  17.891   0.281  21.353 -0.2179  0.0365 -0.0601
27015OCT     C154029  18.615  20.608  19.471 -0.1238  0.1384 -0.1020
27015OCT     C254030  18.427  20.983  19.526 -0.0434  0.0923 -0.0020
27016OCT     C154031  17.403  21.890   9.193 -0.0776  0.0581 -0.1030
27016OCT     C254032  17.545  22.162   9.519 -0.0157 -0.4717 -0.3272
27017OCT     C154033   6.094  18.233  16.506  0.0847 -0.0902  0.3782
27017OCT     C254034   5.666  18.433  16.297 -0.1555 -0.1332 -0.1607
27018OCT     C154035  20.604  17.535  19.515  0.2509  0.0884  0.2016
27018OCT     C254036  20.266  17.824  19.630  0.2548  0.1372  0.3489
27019OCT     C154037  12.796  19.203   4.604  0.1470  0.0262  0.1905
27019OCT     C254038  12.637  18.841   4.346  0.1348 -0.2313  0.0329
27020OCT     C154039  15.678   3.421  22.559  0.3681  0.2968  0.1045
27020OCT     C254040  15.568   3.790  22.245 -0.0045 -0.2853  0.2607
27021OCT     C154041   9.657   9.862  10.118 -0.3625 -0.5944  0.0603
27021OCT     C254042   9.404  10.198   9.915  0.2033 -0.1647  0.0343
27022OCT     C154043  21.481  19.106  14.760  0.1309 -0.0819 -0.0739
27022OCT     C254044  21.257  19.237  15.159 -0.5154  0.2409 -0.1851
27023OCT     C154045  19.137   7.538   6.002 -0.1133  0.4735 -0.1507
27023OCT     C254046  19.067   7.307   5.617 -0.0505  0.0667  0.0280
27024OCT     C154047   7.510   2.612  16.106  0.2745 -0.0934  0.2128
27024OCT     C254048   7.091   2.676  16.292  0.0583  0.0677 -0.1581
27025OCT     C154049   3.157  18.840  19.684 -0.3185  0.1709 -0.1575
27025OCT     C254050   3.532  19.057  19.425 -0.3634 -0.1789 -0.1148
27026OCT     C154051  15.079  17.000  15.981  0.3852 -0.0165  0.2772
27026OCT     C254052  14.975  16.732  16.375 -0.2745 -0.0621  0.0678
27027OCT     C154053   1.090  14.794   3.199 -0.1534  0.1560 -0.2554
27027OCT     C254054   0.634  14.987   3.365  0.4130  0.4143 -0.2697
27028OCT     C154055  22.870  15.677   5.283 -0.0197 -0.0382  0.1089
27028OCT     C254056  22.681  15.362   5.003  0.2312 -0.0692 -0.2762
27029OCT     C154057   1.527  16.081  23.412  0.2104  0.1851 -0.1555
27029OCT     C254058   1.855  15.741  23.324 -0.0943  0.0119 -0.0718
27030OCT     C154059  11.198   7.323   1.562 -0.2707 -0.2279  0.0739
27030OCT     C254060  11.454   7.760   1.740 -0.3173  0.0861 -0.2700
27031OCT     C154061   6.051  16.286   2.030  0.3636 -0.1613 -0.0413
27031OCT     C254062   5.963  16.492   1.576 -0.0884 -0.2127  0.2878
27032OCT     C154063   3.254  15.469   1.194  0.1143  0.2387 -0.0236
27032OCT     C254064   2.776  15.587   1.198 -0.1607 -0.0610  0.2370
27033OCT     C154065  15.080  20.594  17.862 -0.1111 -0.0049 -0.0706
27033OCT     C254066  15.526  20.533  17.841  0.0600  0.2473  0.0230
27034OCT     C154067   9.262  14.671   5.383 -0.2548  0.1122  0.1402
27034OCT     C254068   8.885  14.899   5.517  0.0789 -0.0245  0.1596
27035OCT     C154069  20.527  10.472  10.787  0.2520  0.2199  0.2372
27035OCT     C254070  20.113  10.741  10.734 -0.1672 -0.0143  0.0635
27036OCT     C154071   3.118  13.914  19.443  0.0708  0.2348 -0.0383
27036OCT     C254072   3.154  13.507  19.661  0.4418  0.0356  0.1798
27037OCT     C154073  20.908  18.896  23.129 -0.0311 -0.1444  0.4158
27037OCT     C254074  21.206  19.210  23.184  0.3895 -0.1269 -0.2010
27038OCT     C154075  15.671  13.887  18.615 -0.1410 -0.2030 -0.1672
27038OCT     C254076  15.280  14.062  18.643  0.0618  0.1408  0.3668
27039OCT     C154077   3.932  11.242  11.984  0.0262  0.0475 -0.2821
27039OCT     C254078   3.527  11.297  12.145  0.0611 -0.2706 -0.0107
27040OCT     C154079  17.980  11.252   3.593  0.2116 -0.0138  0.1707
27040OCT     C254080  18.282  10.986   3.919 -0.2859 -0.0273 -0.0335
27041OCT     C154081  19.750  15.531  11.900 -0.1576  0.1582  0.0784
27041OCT     C254082  19.809  15.142  12.155  0.1800  0.2803  0.2899
27042OCT     C154083  13.877   6.187  18.846  0.2752 -0.0202  0.1161
27042OCT     C254084  14.284   6.199  18.748 -0.0996 -0.0180  0.2211
27043OCT     C154085   8.423   4.741  12.832  0.3475 -0.1035  0.3629
27043OCT     C254086   8.630   4.930  12.431  0.1634 -0.0164  0.2180
27044OCT     C154087  22.415   5.701  11.905 -0.1040 -0.1422  0.1112
27044OCT     C254088  22.289   5.328  11.629  0.5512 -0.3422 -0.2143
27045OCT     C154089   8.238  15.943  21.290  0.2007  0.2947  0.1958
27045OCT     C254090   8.463  16.249  21.004  0.3212 -0.2487 -0.1680
27046OCT     C154091   3.478   1.449  19.961  0.4351 -0.1499  0.0213
27046OCT     C254092   3.292   1.038  19.759  0.0927 -0.4296  0.0112
27047OCT     C154093  15.853  18.454   0.319  0.0290 -0.1304  0.0356
27047OCT     C254094  16.081  18.454  23.696 -0.2337  0.0822 -0.0070
27048OCT     C154095   4.010  14.589  11.317 -0.2309 -0.1590  0.2269
27048OCT     C254096   3.748  14.475  11.680  0.1468  0.1839 -0.0657
27049OCT     C154097   2.761  20.730   3.632 -0.1848 -0.2756 -0.2124
27049OCT     C254098   2.564  21.075   3.391 -0.1876 -0.3128 -0.1883
27050OCT     C154099   4.880   3.775  15.405 -0.1659  0.3586 -0.1521
27050OCT     C254100   4.694   3.654  15.815  0.1895 -0.2539 -0.0939
27051OCT     C154101  22.216   8.916   3.667  0.3042  0.2766  0.0415
27051OCT     C254102  21.966   8.591   3.877  0.0386  0.1081  0.2375
27052OCT     C154103  16.392   4.386   7.465  0.1390 -0.0823 -0.3350
27052OCT     C254104  16.782   4.633   7.553  0.1017  0.1496 -0.4066
27053OCT     C154105   8.175  15.359  13.451 -0.4416  0.1779 -0.4210
27053OCT     C254106   7.934  15.458  13.861 -0.0824  0.1961  0.3762
27054OCT     C154107   5.679   1.365   2.424  0.4007 -0.2339  0.1359
27054OCT     C254108   5.334   1.438   2.676  0.2654 -0.0760 -0.2838
27055OCT     C154109  14.366  18.713   9.498 -0.2667  0.3774  0.3328
27055OCT     C254110  14.006  18.505   9.253  0.1138  0.0560 -0.0464
27056OCT     C154111  14.185   7.672   2.389  0.1039  0.4181 -0.1421
27056OCT     C254112  14.287   8.106   2.403 -0.1433 -0.0585 -0.0186
27057OCT     C154113  12.763   1.603  15.756  0.0459  0.2254  0.2288
27057OCT     C254114  12.533   1.950  15.558  0.1166 -0.2061  0.1517
27058OCT     C154115   8.569  16.953  16.684 -0.1083  0.0980  0.1351
27058OCT     C254116   8.447  17.164  17.031  0.1567 -0.1556 -0.0682
27059OCT     C154117  17.598  18.735  21.572  0.1280  0.0108  0.0269
27059OCT     C254118  17.997  18.496  21.394 -0.1042  0.3363  0.0833
27060OCT     C154119  12.845  11.472   3.034 -0.1273  0.1438  0.1868
27060OCT     C254120  12.473  11.272   2.940 -0.0528  0.0108 -0.5092
27061OCT     C154121   0.433  16.399   0.146 -0.2794  0.4217 -0.2106
27061OCT     C254122   0.707  16.350  23.539  0.2728 -0.4334  0.0562
27062OCT     C154123   9.002  11.713  14.981  0.0503 -0.0856  0.0171
27062OCT     C254124   8.892  11.851  14.545 -0.1128  0.0694  0.1421
27063OCT     C154125  15.711  16.441   8.718 -0.0861  0.3538  0.1250
27063OCT     C254126  15.929  16.014   8.589  0.2881 -0.1820 -0.0148
27064OCT     C154127  17.847  12.160  10.854  0.1259  0.0697  0.1832
27064OCT     C254128  17.706  12.381  10.422  0.1049  0.0912  0.1677
27065OCT     C154129  16.060  19.133   2.961 -0.3946 -0.1530 -0.0081
27065OCT     C254130  15.622  19.191   3.040  0.2748 -0.2128 -0.0853
27066OCT     C154131  22.676  12.625   8.427 -0.3259 -0.0841 -0.2787
27066OCT     C254132  22.957  12.951   8.615 -0.4759  0.0602  0.3762
27067OCT     C154133  12.958  15.706   7.757  0.0545 -0.4272  0.1589
27067OCT     C254134  13.021  15.350   8.033 -0.1710 -0.0215 -0.2343
27068OCT     C154135  11.603  13.743  12.678  0.1143 -0.1357 -0.1837
27068OCT     C254136  11.216  13.912  12.467 -0.1516  0.2888  0.1234
27069OCT     C154137  17.498   1.643   3.523  0.1937  0.2544  0.5427
27069OCT     C254138  17.649   1.727   3.097 -0.0401 -0.0415 -0.3144
27070OCT     C154139   0.474   1.672   1.604  0.0147  0.2180  0.1608
27070OCT     C254140   0.369   2.028   1.927  0.2735 -0.1511  0.2966
27071OCT     C154141   9.476  23.209   4.266 -0.1517 -0.3085  0.3367
27071OCT     C254142   9.484  22.860   3.962 -0.0077 -0.2247  0.1532
27072OCT     C154143  13.870  14.322  10.238 -0.0246 -0.2421  0.0937
27072OCT     C254144  14.120  14.086  10.545  0.3723 -0.0214  0.1007
27073OCT     C154145   2.419  13.850  20.129 -0.1856 -0.0829 -0.2448
27073OCT     C254146   2.592  14.224  20.009  0.4788 -0.3612 -0.0173
27074OCT     C154147  21.894   0.675  11.326  0.1613 -0.2887 -0.1753
27074OCT     C254148  21.547   0.943  11.487 -0.2869  0.1569 -0.3554
27075OCT     C154149  15.484   2.026  19.816 -0.0017  0.2915  0.0477
27075OCT     C254150  15.994   2.070  19.910 -0.2418 -0.0374 -0.0205
27076OCT     C154151  12.633   4.110   8.907 -0.0205  0.2502  0.2135
27076OCT     C254152  12.956   4.347   8.673  0.0680 -0.0629 -0.0345
27077OCT     C154153  18.402   8.118   4.386 -0.0024  0.1420 -0.0598
27077OCT     C254154  18.837   8.346   4.489  0.1018 -0.0992 -0.1966
27078OCT     C154155  12.893   8.097  15.616 -0.1524 -0.0069 -0.2939
27078OCT     C254156  13.372   7.948  15.617  0.0963 -0.0927  0.2728
27079OCT     C154157   4.427  20.291  17.448  0.0558 -0.0541 -0.3628
27079OCT     C254158   4.756  20.477  17.633  0.0054  0.0168 -0.2090
27080OCT     C154159  11.440   5.185  16.078  0.0478 -0.1593  0.0548
27080OCT     C254160  11.299   5.473  15.717 -0.0416  0.0705 -0.1971
27081OCT     C154161  23.619   4.751  21.729 -0.1091  0.1461  0.0229
27081OCT     C254162  23.339   5.124  21.867 -0.0792 -0.1472 -0.0584
27082OCT     C154163  10.613  10.159   8.238 -0.1340  0.2079 -0.2701
27082OCT     C254164  10.935  10.002   8.595 -0.0799  0.0298  0.1356
27083OCT     C154165  17.453  15.824  22.135 -0.1947 -0.0389  0.1330
27083OCT     C254166  17.550  16.249  22.037  0.0284  0.0835 -0.4802
27084OCT     C154167   4.627  10.182   6.723 -0.1983  0.0221  0.1554
27084OCT     C254168   4.723  10.474   7.109  0.1010 -0.1412 -0.1175
27085OCT     C154169  23.608  22.844  10.084  0.2317  0.2246  0.0730
27085OCT     C254170  23.436  23.046   9.672 -0.2510  0.1816 -0.5820
27086OCT     C154171  15.179  16.084  10.190  0.2116 -0.3094 -0.0500
27086OCT     C254172  15.105  15.713  10.394 -0.0022  0.0442  0.1351
27087OCT     C154173   4.613   0.503   1.719  0.0031 -0.3110  0.1247
27087OCT     C254174   4.268   0.545   2.055  0.2907  0.0006  0.1067
27088OCT     C154175   2.335   1.723   9.862  0.0773  0.1749 -0.0543
27088OCT     C254176   2.525   1.606  10.237  0.0869 -0.1264  0.2182
27089OCT     C154177  18.728  10.920   2.903  0.1968  0.2576  0.0909
27089OCT     C254178  18.962  10.600   3.174  0.1746 -0.2257  0.1859
27090OCT     C154179   2.031  23.261  16.551  0.2064 -0.0179 -0.1043
27090OCT     C254180   2.211  22.816  16.674  0.0339  0.0544  0.6000
27091OCT     C154181   8.679   6.561   2.065  0.1871 -0.0164 -0.1177
27091OCT     C254182   8.954   6.195   1.990  0.2767 -0.3699 -0.3013
27092OCT     C154183  12.468  15.091  13.405 -0.2431 -0.4708  0.1421
27092OCT     C254184  12.215  15.025  13.790 -0.3133  0.2352 -0.0494
27093OCT     C154185   4.748   1.375   1.199 -0.1629  0.1833  0.0488
27093OCT     C254186   5.204   1.413   1.115 -0.0204  0.1619  0.2929
27094OCT     C154187   0.930   3.562   5.042 -0.1913 -0.1044 -0.2474
27094OCT     C254188   0.748   3.175   4.931 -0.0842 -0.1729 -0.0409
27095OCT     C154189  21.762  10.452  21.601 -0.1004 -0.1689 -0.0678
27095OCT     C254190  21.887  10.867  21.391  0.0284  0.2673  0.2473
27096OCT     C154191  14.202   2.121   7.100 -0.2351  0.1278 -0.0676
27096OCT     C254192  14.305   1.813   6.777 -0.0338 -0.1648  0.0964
27097OCT     C154193   9.009   0.363  17.466 -0.1163 -0.0303  0.0158
27097OCT     C254194   8.895   0.488  17.919 -0.1161 -0.1741  0.2280
27098OCT     C154195   3.431   0.807  11.171 -0.0895  0.1754  0.1957
27098OCT     C254196   3.310   0.726  11.573 -0.1275  0.3000 -0.2556
27099OCT     C154197   0.138   9.173  10.331 -0.3046  0.1752  0.1629
27099OCT     C254198   0.280   9.190   9.891  0.2442  0.1532  0.2970
27100OCT     C154199  16.811   0.769  14.828  0.0286 -0.0756 -0.2706
27100OCT     C254200  16.398   0.645  14.976 -0.0668  0.0026 -0.3199
27101OCT     C154201   8.134   0.442  22.791  0.4133 -0.0298  0.2087
27101OCT     C254202   8.560   0.703  22.809 -0.1072 -0.0011 -0.2817
27102OCT     C154203   4.594   1.601  17.344 -0.2994  0.1157  0.2088
27102OCT     C254204   4.647   1.770  16.905 -0.3424  0.1509 -0.0965
27103OCT     C154205  13.039   4.145  20.698 -0.3537  0.1966 -0.1340
27103OCT     C254206  12.884   3.929  20.286  0.2390 -0.1649  0.2876
27104OCT     C154207   7.503   2.358  22.658  0.1720 -0.1446  0.3698
27104OCT     C254208   7.405   2.130  23.010 -0.2901  0.1064 -0.0004
27105OCT     C154209  11.049  22.505   7.708  0.3431  0.1051  0.1480
27105OCT     C254210  11.256  22.950   7.558  0.0091  0.0281 -0.0529
27106OCT     C154211  18.859  20.686   7.260  0.1783 -0.1134 -0.0087
27106OCT     C254212  19.089  20.445   7.560 -0.2858 -0.1255 -0.2762
27107OCT     C154213   2.316  13.104  22.480  0.3324 -0.0734  0.2568
27107OCT     C254214   2.818  13.163  22.563 -0.1612 -0.1155  0.3246
27108OCT     C154215  14.839   8.923  13.390  0.1051 -0.0543  0.1595
27108OCT     C254216  15.038   9.238  13.664 -0.1479 -0.1465 -0.3109
27109OCT     C154217  10.298  20.820   0.730 -0.0080  0.6402  0.2386
27109OCT     C254218  10.491  20.417   0.687  0.0401 -0.0582  0.4417
27110OCT     C154219   8.037   0.372  12.296  0.2471  0.0543  0.1361
27110OCT     C254220   8.500   0.470  12.255  0.3078  0.1663  0.1040
27111OCT     C154221  17.983   4.663  13.635 -0.1652 -0.1943 -0.1154
27111OCT     C254222  17.700   4.831  13.958 -0.3268 -0.1322 -0.2233
27112OCT     C154223   4.342  12.598   2.144  0.0239  0.4126 -0.1762
27112OCT     C254224   4.219  12.778   2.559 -0.0543 -0.0653 -0.3024
27113OCT     C154225   9.043  12.639  22.592  0.3001  0.3520  0.3638
27113OCT     C254226   8.888  12.254  22.865 -0.5451  0.0334 -0.4804
27114OCT     C154227  19.040  20.890  19.067  0.2412  0.4405  0.0097
27114OCT     C254228  18.560  20.849  19.060 -0.3786 -0.0390  0.1738
27115OCT     C154229   1.484  19.331  12.216 -0.2249  0.4699  0.0157
27115OCT     C254230   1.762  19.639  12.055  0.0240 -0.2075 -0.0166
27116OCT     C154231  13.471   5.887   6.851  0.0640  0.4405 -0.5299
27116OCT     C254232  13.461   5.883   7.302 -0.0097  0.1832 -0.4473
27117OCT     C154233   1.294   9.207  17.323 -0.1218 -0.3102  0.0227
27117OCT     C254234   1.735   9.415  17.181  0.2737 -0.0128  0.0849
27118OCT     C154235   8.637   5.795   1.862 -0.3211 -0.1040  0.1308
27118OCT     C254236   8.381   6.214   1.718 -0.2782  0.0977 -0.3412
27119OCT     C154237   5.616  19.871  19.650 -0.2124 -0.1907  0.0416
27119OCT     C254238   6.079  19.893  19.701  0.4226 -0.1939  0.2843
27120OCT     C154239  10.943   7.921  11.204 -0.3108 -0.1670  0.0975
27120OCT     C254240  11.287   8.247  11.142  0.1733 -0.0904 -0.0453
27121OCT     C154241   5.663   3.761  18.697  0.0719  0.1183  0.0010
27121OCT     C254242   5.296   3.646  18.998  0.2310 -0.0688  0.3688
27122OCT     C154243  11.353   7.838  12.085  0.2398 -0.1799 -0.0376
27122OCT     C254244  11.494   7.410  11.923  0.1254  0.0903  0.0269
27123OCT     C154245  13.338   9.105  16.878 -0.0137  0.3533  0.0445
27123OCT     C254246  13.628   9.471  17.020 -0.0867 -0.0896 -0.1434
27124OCT     C154247   0.750  16.278  10.632  0.0770 -0.2637 -0.1431
27124OCT     C254248   0.734  16.362  10.145  0.0304  0.2407 -0.1492
27125OCT     C154249  12.826   9.764  22.615  0.0107 -0.0673  0.2268
27125OCT     C254250  13.046  10.182  22.659 -0.0379  0.1196  0.1145
27126OCT     C154251  21.674   2.992   1.064  0.0419 -0.0237  0.0311
27126OCT     C254252  21.679   2.499   1.084 -0.2183 -0.2873 -0.3337
27127OCT     C154253  13.901  10.559   6.521  0.0568  0.1047  0.2038
27127OCT     C254254  14.267  10.339   6.497 -0.0673 -0.0303 -0.1603
27128OCT     C154255  18.519  19.034  15.634  0.0178 -0.1374  0.1827
27128OCT     C254256  18.989  18.870  15.712  0.1218  0.1353 -0.0623
27129OCT     C154257   8.245   2.698  10.637  0.1762  0.2194  0.0679
27129OCT     C254258   7.828   2.891  10.467 -0.0745 -0.1266  0.3983
27130OCT     C154259  20.274   3.756   2.845  0.0092 -0.1065 -0.0931
27130OCT     C254260  20.270   3.530   3.322  0.1231  0.6025 -0.2985
27131OCT     C154261  21.000   9.624   3.376 -0.1727  0.4423  0.2452
27131OCT     C254262  21.009   9.143   3.504  0.2678 -0.0577 -0.1512
27132OCT     C154263  23.424   2.227  17.636  0.1380  0.0423  0.1710
27132OCT     C254264   0.067   2.365  17.819 -0.1176 -0.0719 -0.1152
27133OCT     C154265  15.744  19.912   1.846  0.2448 -0.1315 -0.3796
27133OCT     C254266  15.833  19.714   2.274 -0.3213 -0.0815 -0.1594
27134OCT     C154267  14.835   0.935  20.879 -0.2003  0.0482  0.1114
27134OCT     C254268  14.394   0.853  20.825  0.1668  0.0190  0.0706
27135OCT     C154269  13.645  20.111  13.917 -0.3485 -0.0923  0.1112
27135OCT     C254270  13.921  20.226  14.172 -0.2066  0.4608 -0.2620
27136OCT     C154271  21.149  21.002   3.746  0.1928  0.1017 -0.0850
27136OCT     C254272  20.978  21.199   3.352 -0.1662  0.1312  0.3204
27137OCT     C154273  10.596  12.982  16.902  0.0508 -0.2041 -0.1737
27137OCT     C254274  10.698  12.527  16.791 -0.0368 -0.0820  0.0872
27138OCT     C154275   4.813  21.769   4.076 -0.2245  0.0818  0.1473
27138OCT     C254276   4.931  21.469   3.758  0.0328  0.3466 -0.0983
27139OCT     C154277  16.354   5.234  19.423  0.0623 -0.1112 -0.2492
27139OCT     C254278  15.912   5.045  19.287 -0.2197  0.2885  0.0357
27140OCT     C154279   8.522   2.163   7.528 -0.0923  0.1107  0.2886
27140OCT     C254280   8.662   1.756   7.709  0.0129  0.0030 -0.2582
27141OCT     C154281   1.245   7.694   0.104  0.1235  0.2631  0.1800
27141OCT     C254282   0.939   7.596   0.451 -0.1118  0.1184 -0.1062
27142OCT     C154283  21.491   8.668  19.838  0.1069  0.1783 -0.2871
27142OCT     C254284  21.894   8.967  19.938 -0.0897 -0.3568 -0.2344
27143OCT     C154285  16.856  17.857  14.192 -0.1280 -0.1235  0.1769
27143OCT     C254286  16.550  17.724  13.877 -0.1067 -0.0609 -0.2886
27144OCT     C154287  12.084  19.254  13.323 -0.0590  0.0151 -0.0291
27144OCT     C254288  12.102  19.639  13.151 -0.1126  0.0399  0.0180
27145OCT     C154289   8.253  14.735   3.435  0.1053 -0.4319  0.0021
27145OCT     C254290   8.304  14.376   3.169  0.0523 -0.1611 -0.1679
27146OCT     C154291  17.202   8.747   9.950 -0.2634 -0.0016  0.2618
27146OCT     C254292  17.476   8.652   9.583 -0.2856  0.0720 -0.2360
27147OCT     C154293  18.980  16.596  14.284 -0.3328 -0.1802 -0.1236
27147OCT     C254294  18.686  16.282  14.452 -0.3284 -0.4350  0.0998
27148OCT     C154295   3.470  22.276  16.184 -0.3743 -0.0835 -0.0805
27148OCT     C254296   3.296  21.815  16.237 -0.0189  0.1004  0.0906
27149OCT     C154297   8.451  16.487  23.647 -0.2792  0.2155 -0.0740
27149OCT     C254298   8.619  16.353   0.322 -0.2492 -0.0309  0.2817
27150OCT     C154299   7.458  21.174  17.880  0.0569 -0.1058 -0.2715
27150OCT     C254300   7.830  21.009  17.775  0.3086  0.1506  0.0469
27151OCT     C154301  12.435  10.156  11.308 -0.2099  0.3084 -0.0224
27151OCT     C254302  12.269   9.729  11.322 -0.2116 -0.1197  0.2830
27152OCT     C154303  20.048  19.647  19.148 -0.1236  0.0943  0.1242
27152OCT     C254304  19.986  19.769  19.578  0.0508  0.0991  0.0761
27153OCT     C154305   6.816   2.097  11.028  0.0596 -0.2509  0.1679
27153OCT     C254306   6.418   1.855  11.116  0.2332 -0.0443 -0.2176
27154OCT     C154307   6.275   6.152  12.166 -0.3837  0.0568  0.0682
27154OCT     C254308   6.392   6.002  11.809 -0.0720 -0.3644  0.1478
27155OCT     C154309  10.168   3.367   3.706 -0.0210  0.1389  0.1990
27155OCT     C254310  10.437   3.767   3.656  0.1395 -0.0276  0.1892
27156OCT     C154311   5.772  17.819  22.106 -0.2618 -0.0814 -0.2003
27156OCT     C254312   6.081  17.549  21.960  0.2236  0.3229  0.3727
27157OCT     C154313   8.497   3.722  20.973 -0.1703  0.2245 -0.2711
27157OCT     C254314   8.454   3.297  21.091 -0.3657 -0.2714  0.0841
27158OCT     C154315  17.240  20.267  14.542  0.2359 -0.5268  0.0328
27158OCT     C254316  17.609  20.309  14.873  0.0525 -0.1885  0.2656
27159OCT     C154317  22.621  23.046  22.653 -0.1827  0.0718  0.0154
27159OCT     C254318  22.336  23.419  22.822  0.1716  0.3276  0.2743
27160OCT     C154319  17.682  17.760  17.932  0.1948 -0.2841  0.0068
27160OCT     C254320  17.578  18.052  18.226 -0.0375 -0.1037  0.4597
27161OCT     C154321   6.344  20.692   4.085  0.0763 -0.1016  0.2238
27161OCT     C254322   5.898  20.713   3.908  0.0815 -0.1070  0.1537
27162OCT     C154323  21.244   3.735  21.179  0.2447 -0.0037 -0.2654
27162OCT     C254324  20.880   3.503  21.237 -0.0242  0.1632  0.0898
27163OCT     C154325  16.473  16.644   3.847  0.1318 -0.0699 -0.0394
27163OCT     C254326  16.403  16.174   3.746  0.1570  0.1438  0.0321
27164OCT     C154327   0.160   2.310   2.295 -0.1039  0.0905 -0.1731
27164OCT     C254328  23.436   2.309   2.315  0.4304 -0.0932  0.1441
27165OCT     C154329  13.028  20.713   8.775  0.1018 -0.2951 -0.2802
27165OCT     C254330  13.061  21.057   9.049 -0.0968 -0.2158  0.0479
27166OCT     C154331   6.806   0.445  17.957  0.1656  0.1040 -0.1543
27166OCT     C254332   6.871   0.181  17.568  0.0211  0.3594  0.2583
27167OCT     C154333  12.465   0.003   8.196 -0.0364 -0.1864  0.0371
27167OCT     C254334  12.074   0.172   8.287  0.2308 -0.4214 -0.1524
27168OCT     C154335   8.397  17.384  10.982  0.0126 -0.0555 -0.2258
27168OCT     C254336   8.648  17.751  11.196 -0.0437 -0.1996 -0.1138
27169OCT     C154337  11.261  13.980   5.697  0.0078 -0.0696 -0.1564
27169OCT     C254338  10.809  13.860   5.561  0.3146  0.3441  0.2458
27170OCT     C154339  15.888   4.804   0.846  0.1373  0.1922  0.3074
27170OCT     C254340  15.563   4.677   1.145  0.0982  0.0068  0.0272
27171OCT     C154341  13.517  17.707   7.606 -0.3006 -0.0725  0.2572
27171OCT     C254342  13.915  17.935   7.402  0.0836 -0.2012 -0.0713
27172OCT     C154343   8.141  16.286   4.603 -0.2468  0.1685  0.0938
27172OCT     C254344   7.912  16.071   4.922  0.0032  0.2048 -0.0333
27173OCT     C154345  11.740  21.359  12.943 -0.1052  0.2446 -0.2245
27173OCT     C254346  11.675  20.911  13.128 -0.1319  0.1859 -0.0400
27174OCT     C154347   7.234   1.671   3.327  0.0328  0.1333  0.5865
27174OCT     C254348   6.974   1.757   3.710  0.3788  0.1846  0.0069
27175OCT     C154349   1.099   5.794  15.629 -0.2018  0.2770  0.4621
27175OCT     C254350   1.263   6.069  15.338 -0.0287 -0.4024  0.3406
27176OCT     C154351   9.376   7.562   9.753  0.3035  0.2852 -0.1395
27176OCT     C254352   9.245   7.893   9.450 -0.1724  0.0363 -0.2465
27177OCT     C154353  19.713   1.664   8.798 -0.1142  0.0328  0.3679
27177OCT     C254354  19.823   2.075   8.865 -0.2757  0.1163 -0.2295
27178OCT     C154355   9.677  13.670   0.048 -0.0171 -0.1377 -0.2141
27178OCT     C254356   9.276  13.858  23.692  0.1917  0.2303  0.3011
27179OCT     C154357  11.531  18.219  16.823 -0.2424 -0.0211  0.2575
27179OCT     C254358  11.361  18.383  16.442 -0.1031 -0.0008 -0.2235
27180OCT     C154359   9.909  12.793  23.120 -0.0731  0.0247 -0.1295
27180OCT     C254360   9.558  13.146  23.114 -0.3101  0.1683  0.2033
27181OCT     C154361  17.291   6.560   1.790  0.1457  0.1372 -0.0094
27181OCT     C254362  17.266   7.013   1.652 -0.0185  0.0743 -0.0743
27182OCT     C154363  11.798   1.686  19.188 -0.1054 -0.0483  0.0170
27182OCT     C254364  11.663   1.509  19.564  0.0605 -0.2179  0.2638
27183OCT     C154365   7.342   1.432   5.218  0.2269  0.3178 -0.5284
27183OCT     C254366   7.505   1.499   4.808 -0.2137  0.3547  0.0904
27184OCT     C154367  18.462   7.972  15.771  0.1322  0.2852 -0.1983
27184OCT     C254368  18.233   7.661  15.510 -0.0951  0.0441  0.1849
27185OCT     C154369   7.920   0.214  13.857 -0.0815 -0.0982  0.0531
27185OCT     C254370   8.123  23.605  13.778  0.1595 -0.2823  0.1178
27186OCT     C154371   6.873  23.626   2.856 -0.0414 -0.2519 -0.0820
27186OCT     C254372   6.516  23.542   3.147 -0.2060  0.4278 -0.0678
27187OCT     C154373  20.344   0.654  12.304  0.2511 -0.0586 -0.6465
27187OCT     C254374  19.928   0.575  12.206 -0.3282  0.4464  0.2262
27188OCT     C154375   7.537  12.278   2.761  0.2547  0.0325 -0.0348
27188OCT     C254376   7.821  12.045   3.124  0.0380  0.3145  0.0239
27189OCT     C154377  21.210   7.638  20.413 -0.0658  0.0908  0.2764
27189OCT     C254378  21.574   7.645  20.740 -0.2013  0.3100  0.1119
27190OCT     C154379  10.857   8.365  10.061 -0.0115  0.1434  0.0319
27190OCT     C254380  11.008   8.782   9.894  0.0611 -0.1259  0.0109
27191OCT     C154381  15.177   8.088   7.489  0.0020  0.0408  0.0642
27191OCT     C254382  15.157   8.448   7.866  0.3130 -0.2562 -0.0031
27192OCT     C154383   4.175  20.310  10.261  0.3202  0.0497 -0.5420
27192OCT     C254384   4.471  20.434   9.969 -0.0229 -0.0625  0.2253
27193OCT     C154385  23.204  20.322  20.514  0.1938 -0.0262  0.0194
27193OCT     C254386  23.631  20.112  20.470  0.1607 -0.4474 -0.0569
27194OCT     C154387  19.208  14.450  18.419  0.3383 -0.1567  0.2134
27194OCT     C254388  19.129  14.918  18.532 -0.1436 -0.2949  0.0310
27195OCT     C154389   8.446  17.849   2.212 -0.0231 -0.2600 -0.4493
27195OCT     C254390   8.210  17.542   2.228  0.1752  0.2444  0.1015
27196OCT     C154391  19.919   1.798  13.590  0.2411  0.3610 -0.1189
27196OCT     C254392  20.022   1.401  13.437  0.0936  0.0574  0.0612
27197OCT     C154393  14.100  13.760  23.051  0.0777 -0.1842 -0.0078
27197OCT     C254394  14.131  14.246  22.911 -0.1903 -0.0483 -0.1301
27198OCT     C154395  14.508   3.872  12.614 -0.2536  0.0680  0.0327
27198OCT     C254396  14.695   3.575  12.367  0.1575 -0.0454  0.0775
27199OCT     C154397   1.039  19.310  10.978  0.0557 -0.1640  0.1621
27199OCT     C254398   0.901  19.762  10.885  0.1363  0.0369 -0.1229
27200OCT     C154399   5.392  18.326   4.916 -0.1138  0.2535  0.1313
27200OCT     C254400   4.914  18.233   4.912  0.1323 -0.1151  0.1030
27201OCT     C154401  15.971  20.439   2.858  0.1414 -0.0270  0.1473
27201OCT     C254402  15.724  20.806   2.970  0.2269 -0.3718  0.1135
27202OCT     C154403  19.689  15.464  22.833 -0.0315  0.1114  0.2656
27202OCT     C254404  19.484  15.835  22.721  0.1664  0.0686  0.0661
27203OCT     C154405   3.924   0.942  11.027  0.1195  0.0038  0.1309
27203OCT     C254406   4.388   0.850  11.048  0.1087 -0.2946 -0.0352
27204OCT     C154407   0.387   7.336  19.230  0.0812  0.4607 -0.3630
27204OCT     C254408   0.397   6.879  19.178 -0.0769 -0.0570 -0.3249
27205OCT     C154409   9.299   8.840   4.169  0.0333  0.4585  0.0225
27205OCT     C254410   9.398   8.953   4.607  0.0820  0.1502  0.0665
27206OCT     C154411   3.968  22.266  15.285  0.2702 -0.1128  0.1012
27206OCT     C254412   4.088  22.300  14.836  0.2588 -0.0378  0.0949
27207OCT     C154413  23.500   3.342  15.297 -0.0381 -0.1657  0.1666
27207OCT     C254414  23.506   3.485  15.770 -0.0271 -0.1543 -0.3325
27208OCT     C154415   7.383   4.966  12.317 -0.4146  0.0012 -0.1556
27208OCT     C254416   6.984   5.056  12.144  0.1394  0.1693 -0.3986
27209OCT     C154417  23.351  18.272   6.661 -0.1047  0.0319  0.0132
27209OCT     C254418  23.714  18.260   6.802 -0.3858  0.0374 -0.4776
27210OCT     C154419  17.146  20.776   2.317 -0.2173 -0.0161  0.1698
27210OCT     C254420  17.032  20.398   2.564 -0.2146 -0.0664  0.0689
27211OCT     C154421  20.927   9.340  21.312  0.4129 -0.1258 -0.1031
27211OCT     C254422  20.504   9.111  21.358  0.1146  0.1603  0.0198
27212OCT     C154423  15.489  10.000   0.209  0.1134 -0.1943  0.0556
27212OCT     C254424  15.348   9.597   0.177  0.3839 -0.0593  0.0075
27213OCT     C154425  22.470   7.535   8.267  0.3651 -0.3252  0.1697
27213OCT     C254426  22.155   7.840   8.471  0.3421  0.2696  0.2123
27214OCT     C154427   5.387   3.300  17.862  0.0485 -0.0901  0.1281
27214OCT     C254428   4.948   3.286  18.023  0.3181 -0.0795  0.0905
27215OCT     C154429  19.796  17.792  16.590  0.0198  0.1758 -0.1623
27215OCT     C254430  19.503  17.606  16.933  0.4406  0.0936  0.1076
27216OCT     C154431  10.557   8.886  21.455 -0.1813 -0.2659  0.2231
27216OCT     C254432  10.915   8.628  21.289  0.2943 -0.0133  0.1687
27217OCT     C154433  18.917  11.820  22.285  0.0123  0.0374  0.1204
27217OCT     C254434  18.627  11.453  22.238  0.1089  0.1035 -0.0770
27218OCT     C154435   9.040   4.445  17.277 -0.5494  0.2185  0.2374
27218OCT     C254436   9.415   4.687  17.394 -0.2280  0.0566  0.2422
27219OCT     C154437  18.795   6.127  12.123  0.2151 -0.1302 -0.3838
27219OCT     C254438  19.252   6.210  12.179 -0.3109  0.2045 -0.0477
27220OCT     C154439  22.516   3.130  11.183  0.2065 -0.1152  0.0590
27220OCT     C254440  22.386   3.503  11.504  0.0707  0.1641  0.0974
27221OCT     C154441  22.204  13.340   4.997 -0.2373  0.2760  0.1267
27221OCT     C254442  22.173  13.827   5.184  0.0744 -0.1573  0.0579
27222OCT     C154443  12.871  17.555  19.970 -0.2247 -0.0029 -0.0910
27222OCT     C254444  13.039  17.613  19.553 -0.2091 -0.0278  0.0077
27223OCT     C154445  19.820   1.949   0.627 -0.0442  0.2366 -0.3678
27223OCT     C254446  19.540   2.017   1.044 -0.0467 -0.1205  0.1677
27224OCT     C154447   0.769   9.047  14.209  0.1431  0.3459 -0.3387
27224OCT     C254448   0.517   8.790  14.453  0.0605  0.1999 -0.0841
27225OCT     C154449  23.318  11.914   3.663  0.1615  0.4236 -0.0256
27225OCT     C254450  22.900  11.997   3.478 -0.1557 -0.1005  0.0573
27226OCT     C154451  13.535   0.688   4.719  0.0197  0.1145 -0.0020
27226OCT     C254452  13.694   1.093   4.821  0.0299  0.0757  0.1726
27227OCT     C154453  22.202  10.532  22.964 -0.0462  0.0291  0.0115
27227OCT     C254454  22.430  10.939  22.927 -0.6435  0.0758 -0.1304
27228OCT     C154455   4.735   2.598  11.557  0.0181  0.0629 -0.1640
27228OCT     C254456   4.797   2.399  11.146 -0.1755 -0.0021 -0.0279
27229OCT     C154457   5.565  17.059  23.168 -0.1703 -0.2829 -0.0829
27229OCT     C254458   5.251  17.334  23.135 -0.1158 -0.0484  0.5670
27230OCT     C154459  13.396   4.870  18.307 -0.1399  0.1177  0.0462
27230OCT     C254460  12.960   4.958  18.243  0.0834 -0.0045  0.1212
27231OCT     C154461   2.055  17.065   2.920 -0.1810 -0.2287  0.0400
27231OCT     C254462   1.634  17.166   2.715 -0.0783 -0.3947  0.0170
27232OCT     C154463  13.015   8.383   4.643 -0.1392  0.1170 -0.2098
27232OCT     C254464  12.941   8.157   4.198 -0.2647 -0.1597 -0.4687
27233OCT     C154465  22.149  10.082  17.309  0.0835 -0.3188  0.0557
27233OCT     C254466  21.698  10.177  17.246 -0.0466 -0.3317 -0.0762
27234OCT     C154467  22.787  12.335  14.488 -0.1756 -0.2643  0.2646
27234OCT     C254468  22.567  12.634  14.799  0.2923  0.0067 -0.1554
27235OCT     C154469  21.843  18.381  13.963 -0.2321 -0.2917  0.2088
27235OCT     C254470  21.754  18.310  14.471 -0.0586 -0.0697  0.1126
27236OCT     C154471   7.325   8.394  21.552  0.2493  0.1680 -0.2181
27236OCT     C254472   6.899   8.435  21.779  0.0204  0.0352 -0.1454
27237OCT     C154473   6.536  11.235  10.049  0.5562  0.5116  0.0183
27237OCT     C254474   6.757  11.579   9.923  0.3034 -0.1215 -0.3838
27238OCT     C154475  16.884  21.998  16.800 -0.1163  0.0035 -0.1366
27238OCT     C254476  16.560  22.011  17.141 -0.1454 -0.3298  0.1281
27239OCT     C154477  14.575  18.028  11.526 -0.0724  0.1126 -0.0458
27239OCT     C254478  14.946  18.309  11.727  0.1563  0.0071 -0.2203
27240OCT     C154479  12.588  14.749   0.156  0.4581  0.1276 -0.1854
27240OCT     C254480  12.282  14.983  23.568  0.0802 -0.1696  0.1293
27241OCT     C154481   3.290   4.103   6.884 -0.0470  0.0263  0.0698
27241OCT     C254482   2.932   4.048   6.680  0.4327  0.0177 -0.0684
27242OCT     C154483   9.903  13.056   3.692 -0.0373 -0.1906  0.0072
27242OCT     C254484  10.203  13.456   3.672  0.0414 -0.1129 -0.3979
27243OCT     C154485  17.684   6.219  12.820  0.1078  0.1418  0.4340
27243OCT     C254486  17.856   6.374  13.285 -0.0045 -0.0606  0.0867
27244OCT     C154487  22.608   9.099  22.061 -0.2423  0.2817  0.0332
27244OCT     C254488  22.800   9.191  21.670  0.0694 -0.1532 -0.0164
27245OCT     C154489   5.291   9.242  23.697 -0.3079  0.1212 -0.2208
27245OCT     C254490   5.529   9.645  23.566  0.4656 -0.0642  0.1537
27246OCT     C154491  22.032  15.609   9.839 -0.2983  0.0546 -0.2479
27246OCT     C254492  21.722  15.401  10.035  0.1049 -0.0968 -0.3899
27247OCT     C154493  14.891   9.652   4.914 -0.0703  0.4159  0.4195
27247OCT     C254494  14.863  10.120   4.729  0.1949  0.0263 -0.0651
27248OCT     C154495   9.209  16.937  15.513 -0.0305 -0.2676 -0.1063
27248OCT     C254496   9.364  16.713  15.129 -0.1976  0.2299 -0.2228
27249OCT     C154497  17.364   2.978  19.704  0.1328 -0.4333  0.1268
27249OCT     C254498  16.952   3.094  19.744  0.0707  0.0670 -0.0421
27250OCT     C154499  16.939   0.245  19.491  0.3564 -0.1265  0.1030
27250OCT     C254500  17.351   0.250  19.666 -0.0225 -0.2307  0.2904
27251OCT     C154501   8.697   2.716  22.736 -0.1640  0.0498 -0.0396
27251OCT     C254502   8.429   2.984  23.026 -0.1536 -0.1324  0.0800
27252OCT     C154503  14.121  17.958  13.958  0.0090  0.1318 -0.3594
27252OCT     C254504  14.019  17.527  14.160 -0.4629  0.1607 -0.2640
27253OCT     C154505  19.140  23.079  15.362 -0.0323 -0.1278  0.0213
27253OCT     C254506  18.894  23.033  14.976 -0.0288 -0.0151 -0.0962
27254OCT     C154507  15.501  15.572  17.005  0.2151  0.0213  0.2237
27254OCT     C254508  15.667  15.760  16.593  0.1310 -0.0910  0.3207
27255OCT     C154509   1.105   3.558   8.843 -0.0834 -0.1466 -0.1176
27255OCT     C254510   0.850   3.448   9.177 -0.1734 -0.1605 -0.2359
27256OCT     C154511   4.658   3.417   7.585 -0.4927  0.1804 -0.2232
27256OCT     C254512   4.660   3.716   8.006  0.2432 -0.0337 -0.2074
27257OCT     C154513  17.749   5.933  14.942 -0.1238 -0.1270  0.0138
27257OCT     C254514  17.321   6.083  15.019  0.2030  0.2100 -0.1422
27258OCT     C154515  11.663   5.153  14.358 -0.2709  0.1594 -0.0715
27258OCT     C254516  11.920   4.826  14.437 -0.2441 -0.0841 -0.2802
27259OCT     C154517   5.583  20.532  12.252  0.0319  0.0494 -0.1980
27259OCT     C254518   5.879  20.909  12.165 -0.3229  0.3851 -0.1498
27260OCT     C154519  12.236  21.190   3.833  0.1386  0.1383  0.1119
27260OCT     C254520  12.467  21.014   4.113 -0.2658  0.0253  0.2146
27261OCT     C154521  12.719   1.858  12.064 -0.1626  0.1219  0.0490
27261OCT     C254522  12.347   1.653  12.153  0.3021 -0.4245  0.1105
27262OCT     C154523   0.224   7.723  20.547  0.1832 -0.1192 -0.1952
27262OCT     C254524   0.628   7.577  20.666 -0.1234  0.2522 -0.1235
27263OCT     C154525  21.596  16.966  17.780  0.2022  0.2404 -0.0991
27263OCT     C254526  21.281  17.303  17.815  0.2342 -0.1346  0.0418
27264OCT     C154527   2.693   1.183  11.075  0.0634  0.1217  0.1082
27264OCT     C254528   2.822   1.491  10.763 -0.0752  0.0210 -0.0626
27265OCT     C154529   3.574   0.133   9.479 -0.0527  0.1197 -0.0422
27265OCT     C254530   3.174  23.626   9.463  0.1876  0.0633 -0.1372
27266OCT     C154531   8.349   8.097  22.373  0.1960 -0.0621  0.1616
27266OCT     C254532   8.696   7.829  22.111  0.4288 -0.0184  0.1293
27267OCT     C154533   7.624   5.136  22.189  0.1199 -0.0768  0.0570
27267OCT     C254534   7.716   5.575  22.051 -0.0915  0.0347  0.1139
27268OCT     C154535   4.392   7.107   6.656 -0.1879 -0.3991 -0.0884
27268OCT     C254536   4.695   7.095   6.301  0.2223 -0.2392 -0.1518
27269OCT     C154537  10.449  19.968  13.727 -0.0187  0.2042 -0.2771
27269OCT     C254538  10.153  20.313  13.860  0.3886 -0.0551  0.1204
27270OCT     C154539   7.698   2.133  11.544 -0.0674  0.0503 -0.0117
27270OCT     C254540   7.534   1.681  11.372  0.0441 -0.1070  0.0491
27271OCT     C154541  14.010  21.774   5.766  0.0842 -0.3206 -0.1722
27271OCT     C254542  14.082  22.193   5.773  0.0750 -0.3735 -0.1529
27272OCT     C154543  23.261  20.625   8.036  0.0070 -0.0947 -0.0985
27272OCT     C254544  23.681  20.567   8.064 -0.1457  0.4101  0.1164
27273OCT     C154545  22.724  17.580  17.443 -0.1452 -0.1496 -0.0710
27273OCT     C254546  22.974  17.887  17.215 -0.1821 -0.1848 -0.2307
27274OCT     C154547   0.151  17.139   7.652  0.1569  0.1875  0.0478
27274OCT     C254548   0.351  16.758   7.385  0.0907 -0.1177  0.1708
27275OCT     C154549  23.167   5.264  13.042  0.0813  0.0002 -0.0046
27275OCT     C254550  23.008   5.327  13.526  0.0162  0.0048 -0.0714
27276OCT     C154551   2.932  21.040  17.682 -0.1368  0.0529  0.3651
27276OCT     C254552   2.481  20.981  17.693 -0.1212 -0.1780 -0.3061
27277OCT     C154553  16.996  14.225  15.747  0.0234  0.2277  0.1300
27277OCT     C254554  16.925  14.648  15.615 -0.3237 -0.2398 -0.2886
27278OCT     C154555  23.368  19.538   9.508 -0.1808 -0.3372 -0.1938
27278OCT     C254556  23.402  19.221   9.847 -0.3179  0.1461  0.3124
27279OCT     C154557  19.220  20.596  13.070 -0.0613 -0.1645  0.3227
27279OCT     C254558  19.347  20.573  13.463  0.0546 -0.0977 -0.0919
27280OCT     C154559  16.298  15.658   3.036  0.0693  0.1856  0.0184
27280OCT     C254560  16.635  15.937   3.240  0.3350  0.0056  0.0221
27281OCT     C154561   4.168   2.729  15.514 -0.3902  0.0553 -0.0555
27281OCT     C254562   3.738   2.600  15.642 -0.0579  0.0277 -0.1296
27282OCT     C154563  12.151   6.362   2.887  0.2568 -0.0214 -0.1003
27282OCT     C254564  12.367   6.708   2.581 -0.2638  0.1592  0.3311
27283OCT     C154565  14.561  15.224   3.268 -0.0708 -0.1230  0.4122
27283OCT     C254566  14.237  15.013   3.041 -0.0250 -0.1451  0.4226
27284OCT     C154567  15.669   7.380  11.546  0.0827 -0.2552  0.0466
27284OCT     C254568  15.961   7.082  11.744 -0.0880 -0.2053 -0.0653
27285OCT     C154569  16.703  16.969   6.135 -0.0690 -0.2383  0.4622
27285OCT     C254570  16.958  16.741   5.814  0.0181 -0.1260  0.1665
27286OCT     C154571  10.469   4.835   3.063 -0.2590 -0.0418  0.0818
27286OCT     C254572  10.838   4.519   3.215 -0.1312  0.4076 -0.2531
27287OCT     C154573  22.434  13.743  15.558  0.2821  0.3353 -0.0969
27287OCT     C254574  22.565  13.511  15.136  0.1919 -0.0980  0.0260
27288OCT     C154575   7.296  20.602   5.387 -0.0394 -0.1304  0.3736
27288OCT     C254576   7.337  20.622   5.809 -0.1879 -0.1164  0.0689
27289OCT     C154577   3.150   3.792  16.194  0.1589 -0.3690 -0.0834
27289OCT     C254578   2.857   4.147  16.062  0.1133  0.2772 -0.0371
27290OCT     C154579  21.409   7.223   7.067  0.3938 -0.2271 -0.1061
27290OCT     C254580  21.358   7.728   7.119  0.0480  0.0620 -0.3607
27291OCT     C154581  20.626  22.064  11.172 -0.0164 -0.4316  0.0429
27291OCT     C254582  20.811  21.795  10.831 -0.1805 -0.2003  0.1599
27292OCT     C154583  17.467  15.795  11.327 -0.0658 -0.0993 -0.2553
27292OCT     C254584  17.566  15.329  11.458  0.0589  0.2004 -0.0356
27293OCT     C154585   9.025  15.940   4.019  0.0738  0.0608 -0.2379
27293OCT     C254586   8.706  15.616   3.935  0.1001  0.0069 -0.1168
27294OCT     C154587   0.159  12.469  22.748 -0.1480 -0.2347 -0.0421
27294OCT     C254588   0.559  12.595  22.464 -0.0872  0.5415 -0.0191
27295OCT     C154589  12.780   9.968  21.370 -0.0825  0.2289  0.2013
27295OCT     C254590  13.236   9.815  21.269 -0.2076 -0.0023  0.0376
27296OCT     C154591  20.205   0.086  13.835 -0.1096 -0.1684 -0.4425
27296OCT     C254592  20.535   0.235  14.187 -0.0686  0.1487  0.0123
27297OCT     C154593   2.907  18.447   6.847  0.0989  0.0978 -0.1188
27297OCT     C254594   3.066  18.124   6.551  0.0104 -0.1073 -0.2691
27298OCT     C154595  20.537   0.368   3.809 -0.1864 -0.1166  0.1428
27298OCT     C254596  20.433  23.677   3.901  0.4237 -0.2530  0.1249
27299OCT     C154597  18.664   1.395  12.527 -0.1516  0.2207 -0.1638
27299OCT     C254598  18.713   1.840  12.351 -0.1432 -0.2612 -0.1036
27300OCT     C154599  17.783   3.629   4.061  0.0565 -0.1775  0.0560
27300OCT     C254600  17.654   4.040   3.848  0.3515  0.1621  0.0606
27301OCT     C154601  17.540   2.915  10.129  0.1482 -0.0632  0.2753
27301OCT     C254602  17.765   3.214  10.360 -0.5188  0.0574 -0.1388
27302OCT     C154603  18.535  20.454  10.449 -0.0447 -0.1472 -0.0475
27302OCT     C254604  18.544  20.918  10.511 -0.1290 -0.0413  0.1927
27303OCT     C154605  11.902  21.445  11.783  0.0157 -0.1397  0.0493
27303OCT     C254606  11.994  21.645  12.181 -0.3276  0.1956  0.1620
27304OCT     C154607  13.030  19.332  10.662 -0.1727 -0.2694 -0.0352
27304OCT     C254608  12.654  19.644  10.660 -0.0999 -0.2584 -0.0787
27305OCT     C154609   3.250  10.979   0.998  0.4401  0.2696  0.1081
27305OCT     C254610   3.361  11.323   1.329 -0.0740  0.1137  0.0493
27306OCT     C154611   5.358   2.566  21.981 -0.1650 -0.1640  0.2672
27306OCT     C254612   4.941   2.605  22.152  0.1879 -0.0471 -0.1591
27307OCT     C154613  10.011  21.089  14.638 -0.1080  0.2725 -0.1435
27307OCT     C254614  10.112  20.851  15.002  0.1404 -0.1468  0.0113
27308OCT     C154615  21.914   2.669  18.138  0.4761 -0.0579 -0.0781
27308OCT     C254616  22.007   2.757  18.605  0.3532  0.0409  0.1881
27309OCT     C154617  10.688  17.796   4.652 -0.3925  0.0651  0.0632
27309OCT     C254618  10.290  17.772   4.892 -0.1417  0.2578 -0.0907
27310OCT     C154619  17.802  19.232   0.961 -0.3499 -0.0898  0.0116
27310OCT     C254620  17.525  19.559   1.114  0.3180  0.1027  0.0039
27311OCT     C154621  23.622  12.034  17.310 -0.1202 -0.1496 -0.0952
27311OCT     C254622   0.220  11.866  17.562 -0.3289  0.2915 -0.0464
27312OCT     C154623  14.674  20.282  23.221  0.3026  0.2277 -0.1633
27312OCT     C254624  15.095  20.282  23.383 -0.4127 -0.0948  0.1522
27313OCT     C154625  18.567  19.368  23.254  0.4874 -0.2763  0.0440
27313OCT     C254626  19.049  19.432  23.343 -0.2110  0.0564 -0.1446
27314OCT     C154627   1.947  13.989  17.930  0.2786  0.0485 -0.0857
27314OCT     C254628   1.738  13.851  18.328  0.0879  0.2309  0.2326
27315OCT     C154629  13.819  11.695   3.122  0.1543 -0.2915 -0.2326
27315OCT     C254630  13.344  11.785   3.030  0.0878 -0.1117 -0.2188
27316OCT     C154631  19.366  13.670  21.647  0.0102 -0.0025 -0.0722
27316OCT     C254632  19.366  13.338  21.926  0.0723  0.4846  0.1688
27317OCT     C154633   2.923   2.264  15.087  0.1540 -0.3180  0.0246
27317OCT     C254634   2.791   2.551  14.731  0.2961  0.0608  0.0899
27318OCT     C154635  11.269  15.333  15.288  0.3635  0.1044  0.0336
27318OCT     C254636  11.590  15.650  15.244 -0.3174  0.0980  0.0610
27319OCT     C154637   3.651  21.707   4.267 -0.1672  0.2002  0.3995
27319OCT     C254638   3.985  22.068   4.310 -0.3883 -0.2781 -0.0913
27320OCT     C154639  22.333  17.757  20.357 -0.2780 -0.1342 -0.1932
27320OCT     C254640  22.660  18.075  20.419 -0.4346 -0.0902  0.0592
27321OCT     C154641   2.139  19.968  16.248  0.2478  0.2086  0.5057
27321OCT     C254642   2.502  20.236  16.400  0.4409  0.3272 -0.0503
27322OCT     C154643  11.045   3.519  13.476 -0.2153 -0.2402 -0.3431
27322OCT     C254644  11.232   3.564  13.038  0.1018  0.3849  0.2131
27323OCT     C154645  20.428   5.757   2.964  0.0201  0.0636 -0.2006
27323OCT     C254646  20.694   6.107   2.940 -0.1112 -0.1163 -0.0311
27324OCT     C154647  19.867  11.263   3.498  0.2148  0.1204  0.0233
27324OCT     C254648  19.392  11.168   3.593  0.0306 -0.3208 -0.3705
27325OCT     C154649  20.374  22.758   2.992 -0.0872  0.0148 -0.0148
27325OCT     C254650  20.617  22.982   2.675 -0.0486 -0.1306  0.0236
27326OCT     C154651  22.740  10.771  13.741 -0.0472  0.1692  0.0130
27326OCT     C254652  22.321  10.666  13.883  0.0975 -0.0530  0.0047
27327OCT     C154653   5.036  20.848   9.345  0.1363 -0.2533 -0.2065
27327OCT     C254654   4.887  20.699   8.968 -0.2520  0.1352 -0.1494
27328OCT     C154655   4.538   5.668   7.699  0.0698  0.0776  0.0135
27328OCT     C254656   4.433   5.863   7.273  0.1552 -0.3294  0.2453
27329OCT     C154657  22.680  22.787   1.777  0.1385  0.0427 -0.0325
27329OCT     C254658  23.047  22.509   1.888 -0.0300  0.2715  0.1275
27330OCT     C154659  19.543  10.561  23.039 -0.0150  0.1073  0.1149
27330OCT     C254660  19.894  10.226  22.978  0.0080 -0.2304 -0.3478
27331OCT     C154661   1.462  16.320   8.454  0.1528 -0.1434 -0.0250
27331OCT     C254662   1.916  16.152   8.469  0.0592 -0.1584 -0.0483
27332OCT     C154663   6.237  22.691   6.051 -0.3553 -0.0941 -0.0071
27332OCT     C254664   6.256  22.793   5.655  0.0838  0.0696  0.3053
27333OCT     C154665  17.956  10.792   0.346 -0.1168 -0.0996 -0.0417
27333OCT     C254666  17.788  11.225   0.250 -0.0690 -0.2418 -0.1823
27334OCT     C154667  15.745   3.571   3.030 -0.1021  0.0027 -0.0127
27334OCT     C254668  15.762   3.203   3.167 -0.3130  0.0221 -0.0910
27335OCT     C154669  13.555  23.720  19.779 -0.2730  0.0624 -0.4021
27335OCT     C254670  13.967  23.518  19.706 -0.1101 -0.1738 -0.1440
27336OCT     C154671   9.328  14.555   7.054 -0.0097 -0.0184 -0.0957
27336OCT     C254672   9.720  14.555   7.360  0.1652  0.1320 -0.1416
27337OCT     C154673  10.751   4.268  13.680  0.0755 -0.2243 -0.3106
27337OCT     C254674  10.795   4.716  13.547  0.1909  0.2318  0.1278
27338OCT     C154675  19.942  13.404   9.621 -0.1473 -0.1110 -0.0149
27338OCT     C254676  19.600  13.080   9.686  0.3850  0.0672  0.1203
27339OCT     C154677   1.254   0.783  11.447 -0.5546 -0.7346  0.0296
27339OCT     C254678   1.057   0.421  11.564  0.3600 -0.0724 -0.0782
27340OCT     C154679   4.808   7.131  19.778 -0.2998  0.0244 -0.0583
27340OCT     C254680   4.554   7.476  19.615  0.0429 -0.1984 -0.0551
27341OCT     C154681  12.750   1.971  13.259 -0.0891 -0.1785  0.3085
27341OCT     C254682  12.665   1.532  13.042  0.1890  0.1763  0.1209
27342OCT     C154683  15.611   3.815  14.569  0.0182 -0.3659  0.1964
27342OCT     C254684  16.102   3.867  14.680 -0.1777 -0.0059 -0.0966
27343OCT     C154685  15.595   0.507  21.004  0.0847  0.0583 -0.1666
27343OCT     C254686  15.896   0.663  21.336  0.0616 -0.0537 -0.0062
27344OCT     C154687  19.012  14.948   8.888  0.5171 -0.0748 -0.2342
27344OCT     C254688  18.749  14.871   9.303 -0.0330 -0.1512  0.3566
27345OCT     C154689  12.695  20.907  14.323 -0.1694 -0.2462 -0.0851
27345OCT     C254690  13.039  21.205  14.136  0.0993 -0.1116  0.1714
27346OCT     C154691   9.206  21.769   3.517 -0.0573 -0.2485 -0.1565
27346OCT     C254692   9.599  21.543   3.648 -0.2200 -0.3204 -0.0440
27347OCT     C154693   3.974   2.115  13.370  0.1504 -0.0681 -0.1488
27347OCT     C254694   3.495   1.987  13.475 -0.3161 -0.0199  0.2178
27348OCT     C154695  14.092  15.581   2.057  0.0803  0.0190  0.1223
27348OCT     C254696  14.024  15.338   1.640 -0.0415  0.0960  0.1766
27349OCT     C154697   0.080   6.326  17.769  0.0056 -0.0562 -0.0374
27349OCT     C254698  23.690   6.747  18.009  0.1590 -0.0476 -0.0274
27350OCT     C154699   8.795  10.466   6.289  0.0135  0.1776 -0.4393
27350OCT     C254700   9.100  10.801   6.383 -0.1094  0.1313  0.1087
27351OCT     C154701  23.070   6.308   9.845 -0.2003 -0.1222 -0.0251
27351OCT     C254702  23.363   6.619   9.565 -0.0657 -0.0427 -0.1557
27352OCT     C154703   9.600   1.097   8.260 -0.2134  0.2062  0.1045
27352OCT     C254704   9.895   0.996   7.954 -0.1417 -0.0613  0.0484
27353OCT     C154705  21.885  11.813   7.524  0.0900  0.0031 -0.1290
27353OCT     C254706  21.627  11.670   7.863  0.0216 -0.1594 -0.2543
27354OCT     C154707  10.589  16.837   1.721  0.0154  0.1128 -0.2199
27354OCT     C254708  11.035  17.036   1.797  0.1872 -0.1046  0.2334
27355OCT     C154709   8.426  19.365   8.102 -0.2107  0.0713  0.0742
27355OCT     C254710   8.792  19.122   8.243 -0.0645  0.0709 -0.2588
27356OCT     C154711   5.087  16.363   8.484  0.0911 -0.1855  0.0705
27356OCT     C254712   5.287  16.771   8.633  0.0963 -0.4523  0.1989
27357OCT     C154713   7.661   0.914  16.680  0.0059 -0.1940 -0.4003
27357OCT     C254714   7.997   1.242  16.793  0.0741 -0.0316  0.2027
27358OCT     C154715  21.344   2.447   6.770  0.0545 -0.3364 -0.0265
27358OCT     C254716  21.647   2.764   6.876 -0.4113  0.6375  0.2804
27359OCT     C154717  12.773   8.225   8.257  0.0491  0.5056 -0.0672
27359OCT     C254718  12.417   7.937   8.397 -0.0397 -0.0690 -0.2215
27360OCT     C154719  10.719  22.919  18.435 -0.2888 -0.1087 -0.2856
27360OCT     C254720  10.798  23.085  18.863 -0.0852 -0.0310 -0.3412
27361OCT     C154721  11.946  16.790   6.222  0.2103  0.0283  0.0988
27361OCT     C254722  11.501  17.005   6.374 -0.3377  0.3079  0.0746
27362OCT     C154723   8.707   1.231  18.153 -0.1470 -0.0607 -0.2462
27362OCT     C254724   9.099   1.487  18.266  0.2825  0.1229 -0.0774
27363OCT     C154725  12.553   1.180  19.432 -0.1827  0.0383  0.0809
27363OCT     C254726  12.826   1.294  19.073 -0.0957 -0.4477 -0.1657
27364OCT     C154727  11.771   1.521   1.919  0.1055  0.1950 -0.0771
27364OCT     C254728  11.680   1.111   1.716 -0.4375  0.0779 -0.0764
27365OCT     C154729  12.253   0.934   8.968 -0.2505 -0.0091  0.7649
27365OCT     C254730  12.356   1.181   9.343 -0.3623 -0.2698  0.0489
27366OCT     C154731  23.489  22.460  16.087  0.0527 -0.1939 -0.2563
27366OCT     C254732  23.454  22.328  15.627 -0.1677  0.4546 -0.2533
27367OCT     C154733   6.703   5.384  17.545 -0.0315  0.3390 -0.3547
27367OCT     C254734   6.796   5.147  17.134  0.1551 -0.0116  0.0507
27368OCT     C154735   0.495  17.563  21.795 -0.0685 -0.2792 -0.4379
27368OCT     C254736   0.229  17.186  21.965 -0.1645  0.1687  0.0779
27369OCT     C154737  22.316  13.106  23.258 -0.3022 -0.1894  0.5690
27369OCT     C254738  22.459  13.132  23.740 -0.0176 -0.0935 -0.1680
27370OCT     C154739  22.506  21.249  16.925  0.4164  0.1148  0.0868
27370OCT     C254740  22.914  21.110  16.853  0.0963  0.1367  0.2786
27371OCT     C154741   6.046  18.885   3.692  0.1387  0.1124  0.0369
27371OCT     C254742   6.427  19.010   3.448 -0.0009 -0.1196 -0.0125
27372OCT     C154743  13.629  19.639   9.589  0.1230  0.0895 -0.2652
27372OCT     C254744  13.223  19.558   9.850 -0.1726  0.1942  0.0123
27373OCT     C154745   7.187  12.894  20.971 -0.0770  0.0599  0.1145
27373OCT     C254746   7.280  13.340  21.122  0.2765 -0.4564  0.1098
27374OCT     C154747   5.581  22.103   6.172 -0.0348 -0.1507 -0.1821
27374OCT     C254748   5.594  22.367   5.772 -0.0041 -0.1223 -0.1368
27375OCT     C154749  10.630  23.488  10.120 -0.1967  0.3103  0.1544
27375OCT     C254750  10.604   0.205  10.313  0.1651 -0.0246  0.3817
27376OCT     C154751  19.135   9.175  13.182  0.2718 -0.0480  0.0564
27376OCT     C254752  19.045   9.275  13.642  0.0745 -0.1643 -0.2736
27377OCT     C154753  21.253  12.846  13.347 -0.0535 -0.1461  0.1584
27377OCT     C254754  21.336  13.224  13.669 -0.0187  0.2030  0.1476
27378OCT     C154755  12.877  20.340  18.323  0.4030  0.1815 -0.1843
27378OCT     C254756  13.202  20.641  18.168 -0.1573 -0.2768 -0.0510
27379OCT     C154757   9.740  14.898   6.792 -0.0556  0.0529 -0.3067
27379OCT     C254758  10.131  14.933   6.459 -0.0476  0.3733 -0.0015
27380OCT     C154759  19.415   3.315  11.500 -0.2955 -0.3741  0.4170
27380OCT     C254760  19.585   2.962  11.671  0.0260  0.4526  0.2944
27381OCT     C154761  11.446   6.304  10.941 -0.0325  0.1701 -0.3583
27381OCT     C254762  11.427   6.770  10.754  0.0183  0.1459  0.0269
27382OCT     C154763  12.860  23.333  14.957  0.0951  0.0623 -0.2727
27382OCT     C254764  13.274  23.051  15.027  0.0296 -0.0509 -0.1977
27383OCT     C154765   0.091   3.180  23.612  0.1733 -0.4562  0.0405
27383OCT     C254766   0.343   3.273  23.262 -0.0365 -0.3811  0.3039
27384OCT     C154767   3.123  19.202  16.359  0.2046 -0.2174 -0.1830
27384OCT     C254768   3.180  18.926  15.995  0.0595  0.3247  0.0444
27385OCT     C154769  16.793  21.825  22.521 -0.1937 -0.0543  0.0924
27385OCT     C254770  17.248  21.926  22.576  0.3799  0.0568 -0.0232
27386OCT     C154771  22.760   8.868   5.118 -0.1976  0.0115  0.0117
27386OCT     C254772  22.472   9.177   5.172 -0.0719 -0.2259 -0.1678
27387OCT     C154773   5.512  17.209  13.380 -0.1872 -0.1507  0.2247
27387OCT     C254774   5.849  16.946  13.489 -0.3311  0.0844  0.2596
27388OCT     C154775  21.941   8.156  23.141  0.2192 -0.2284 -0.1611
27388OCT     C254776  21.981   8.028  23.587 -0.0703 -0.0601 -0.2129
27389OCT     C154777   6.238  11.742   8.930  0.4471 -0.1071 -0.1601
27389OCT     C254778   6.269  11.307   9.009  0.2949  0.3962  0.1965
27390OCT     C154779   0.055   0.786   1.938  0.0248 -0.5878 -0.1666
27390OCT     C254780   0.400   1.113   1.814 -0.0444  0.0488 -0.2667
27391OCT     C154781  18.682  17.617  17.606  0.1805  0.1368 -0.3631
27391OCT     C254782  18.325  17.798  17.304 -0.2407 -0.2021 -0.3628
27392OCT     C154783  18.417  14.923  14.817  0.0593  0.0703 -0.0696
27392OCT     C254784  17.988  15.148  14.786  0.1283 -0.0071  0.0898
27393OCT     C154785   9.442   4.754  22.180 -0.3419 -0.1501  0.3554
27393OCT     C254786   9.671   4.784  22.618  0.0511  0.0495  0.2224
27394OCT     C154787   8.572   6.063   4.095 -0.1165  0.2238  0.0157
27394OCT     C254788   8.479   6.474   4.058 -0.0963 -0.0270  0.0532
27395OCT     C154789  12.152  15.709  10.649  0.1705 -0.0455 -0.0967
27395OCT     C254790  12.144  15.437  10.279  0.1059 -0.2687  0.0883
27396OCT     C154791  11.562   1.550   9.152 -0.1061  0.2609  0.1781
27396OCT     C254792  11.700   1.966   9.236  0.2365 -0.4776  0.2709
27397OCT     C154793  18.358   0.665  11.775 -0.1526  0.2709  0.3048
27397OCT     C254794  18.610   0.857  11.432 -0.1713 -0.2910 -0.0383
27398OCT     C154795  11.668  15.108   9.663 -0.0156  0.2519  0.1191
27398OCT     C254796  11.626  14.860   9.258 -0.0990 -0.1767 -0.0930
27399OCT     C154797   0.715  23.499   1.734  0.1333 -0.1284 -0.0768
27399OCT     C254798   0.351  23.418   2.072  0.0412  0.0527  0.0064
27400OCT     C154799   6.440   2.948   6.315  0.2682  0.3172 -0.4563
27400OCT     C254800   6.881   2.941   6.431 -0.2901  0.0862  0.1526
27401OCT     C154801   1.500   0.113  10.706  0.0998  0.0590 -0.2216
27401OCT     C254802   1.557   0.483  10.370  0.1913 -0.1011 -0.1710
27402OCT     C154803  13.049   8.691   2.074 -0.0031  0.4342  0.0835
27402OCT     C254804  13.193   8.313   2.216 -0.1281  0.1181  0.0196
27403OCT     C154805  17.517   7.073  11.710 -0.3749 -0.3107 -0.0124
27403OCT     C254806  17.352   7.457  11.940 -0.2858  0.1844  0.0875
27404OCT     C154807   6.589  13.959   3.808  0.1503 -0.0082  0.1330
27404OCT     C254808   6.232  13.935   4.097  0.2856 -0.2072  0.3449
27405OCT     C154809   9.903  18.379  15.957 -0.1161  0.0956 -0.2713
27405OCT     C254810   9.551  18.173  15.738 -0.2230  0.2284  0.2118
27406OCT     C154811   5.383  19.698   1.894 -0.0508 -0.0760  0.1886
27406OCT     C254812   5.445  20.043   2.194 -0.0826  0.0211 -0.0512
27407OCT     C154813   5.010   9.412   1.849 -0.3223 -0.2371 -0.0416
27407OCT     C254814   5.268   9.675   1.541  0.0300  0.1099  0.0269
27408OCT     C154815  17.729  11.169   6.242 -0.1537 -0.2298 -0.2175
27408OCT     C254816  17.921  11.552   6.425  0.3264 -0.1053 -0.0183
27409OCT     C154817   2.634   8.930   1.365 -0.0214  0.1469  0.0002
27409OCT     C254818   2.655   9.075   1.803  0.0225  0.2137 -0.0935
27410OCT     C154819   1.643  20.975   7.026 -0.0658 -0.1622  0.0092
27410OCT     C254820   1.372  21.096   6.691  0.2296 -0.4731  0.1348
27411OCT     C154821   3.479  15.697   0.106  0.0132 -0.5606  0.1672
27411OCT     C254822   3.824  15.647  23.560  0.2935 -0.3167 -0.4631
27412OCT     C154823  17.178   5.414  17.843 -0.1425  0.0511 -0.0429
27412OCT     C254824  17.455   5.811  17.882 -0.2078  0.1353 -0.2990
27413OCT     C154825  15.394   1.562  19.091  0.0018 -0.0120 -0.1130
27413OCT     C254826  15.539   1.303  19.344 -0.2479  0.0147 -0.2722
27414OCT     C154827   5.807   8.934  19.051 -0.1634  0.0168  0.1205
27414OCT     C254828   5.863   9.204  18.618  0.3125  0.4206  0.0146
27415OCT     C154829  20.834  14.672   5.325 -0.1222 -0.1203  0.2824
27415OCT     C254830  20.576  14.891   5.632 -0.2347 -0.1287  0.0125
27416OCT     C154831  12.272   0.058   3.506  0.0595  0.0599  0.0373
27416OCT     C254832  12.436  23.387   3.624 -0.2271 -0.0003  0.1964
27417OCT     C154833  20.193   9.525   9.784 -0.1701  0.4405  0.2228
27417OCT     C254834  20.604   9.753   9.856 -0.1229  0.0275  0.1855
27418OCT     C154835  14.987  13.852  18.256 -0.1951  0.0782  0.3173
27418OCT     C254836  14.878  14.321  18.258  0.0177 -0.3668  0.0486
27419OCT     C154837  21.389  10.663  19.800  0.1579  0.1058 -0.2593
27419OCT     C254838  21.153  10.871  20.122 -0.1258  0.3711 -0.0001
27420OCT     C154839   7.200  15.645  20.217 -0.0578  0.3528  0.0803
27420OCT     C254840   7.036  16.028  20.500 -0.1328 -0.0631  0.1753
27421OCT     C154841  19.670   4.480   9.496 -0.0129  0.1625  0.2284
27421OCT     C254842  19.767   4.871   9.244 -0.5118  0.5399  0.1489
27422OCT     C154843   7.604   1.672   8.953  0.2987 -0.1108  0.4289
27422OCT     C254844   7.228   1.538   8.755  0.1444  0.0386  0.0057
27423OCT     C154845   2.761  19.710   4.895  0.4863  0.4554 -0.0168
27423OCT     C254846   3.138  19.939   4.869  0.2096  0.0697  0.1373
27424OCT     C154847   2.101  13.558  18.648  0.0491  0.6564  0.0908
27424OCT     C254848   2.212  13.778  18.230  0.2064  0.3929 -0.0484
27425OCT     C154849  11.930  23.304  20.874 -0.0953  0.0413  0.2838
27425OCT     C254850  11.568  23.470  21.114 -0.0074 -0.2550  0.1377
27426OCT     C154851  10.160  13.579  18.932 -0.0259 -0.0621 -0.0710
27426OCT     C254852  10.138  13.802  19.383 -0.0449 -0.0413  0.0544
27427OCT     C154853  20.352   3.950  22.595  0.2288 -0.2528  0.0116
27427OCT     C254854  20.121   3.553  22.763 -0.1333  0.1668  0.1787
27428OCT     C154855  11.900   2.144   5.026 -0.3535  0.1120 -0.1259
27428OCT     C254856  11.843   2.036   5.485 -0.0749  0.0822  0.2368
27429OCT     C154857   8.738  10.549   7.283 -0.0080  0.1173 -0.2725
27429OCT     C254858   8.416  10.856   7.209  0.1539  0.1305  0.0112
27430OCT     C154859  19.545  15.912   8.640  0.4852 -0.1817  0.0788
27430OCT     C254860  19.568  16.351   8.696  0.3081 -0.1383 -0.4166
27431OCT     C154861  18.012   9.353   9.748  0.2629  0.0142  0.0825
27431OCT     C254862  17.912   8.890   9.828  0.0190 -0.2375  0.1458
27432OCT     C154863  12.364  23.541   9.491  0.2635 -0.1168  0.3353
27432OCT     C254864  12.551  23.392   9.108  0.1053 -0.0420 -0.1270
27433OCT     C154865  11.282   9.515   0.936 -0.1178  0.2710 -0.0675
27433OCT     C254866  11.482   9.675   1.316 -0.2553  0.1964  0.1817
27434OCT     C154867  18.194  18.798  20.414  0.2938  0.2761 -0.2735
27434OCT     C254868  18.569  18.721  20.186  0.4349  0.1050  0.3995
27435OCT     C154869  10.592   2.766   2.310 -0.3035  0.1441  0.0190
27435OCT     C254870  10.700   2.382   2.504  0.0773  0.1474 -0.3549
27436OCT     C154871  22.129  21.495   8.885 -0.4330 -0.5040 -0.0697
27436OCT     C254872  21.705  21.450   9.081  0.2157 -0.1723 -0.0230
27437OCT     C154873  14.844  12.528  13.853 -0.4419 -0.2781  0.1492
27437OCT     C254874  15.051  12.957  13.962  0.1843  0.2943  0.0386
27438OCT     C154875   9.785   2.783  11.841  0.2191 -0.2935  0.2205
27438OCT     C254876   9.991   2.371  11.825 -0.0930  0.0148  0.0839
27439OCT     C154877  20.288  19.360   7.759 -0.0762  0.0345 -0.2214
27439OCT     C254878  20.498  19.324   8.154 -0.4034 -0.0893  0.1427
27440OCT     C154879  19.183  14.434   8.118  0.0123  0.1150 -0.1759
27440OCT     C254880  18.975  14.787   7.853 -0.1020  0.1062  0.0610
27441OCT     C154881  18.471   3.632  23.349 -0.1368 -0.0414 -0.1606
27441OCT     C254882  18.892   3.572  23.629 -0.2082 -0.4798  0.0172
27442OCT     C154883   3.558  23.580  12.100 -0.0547  0.3157 -0.1025
27442OCT     C254884   3.533   0.282  11.832 -0.1172  0.1209 -0.0705
27443OCT     C154885   5.063   3.091  12.218 -0.1803  0.0655 -0.1673
27443OCT     C254886   5.271   3.047  12.640  0.0747  0.2990 -0.1189
27444OCT     C154887  11.212   2.879  15.263 -0.0104  0.3982  0.2763
27444OCT     C254888  11.606   2.712  15.025  0.1391  0.1281 -0.0096
27445OCT     C154889   6.686  12.344  19.677 -0.0234 -0.0304  0.0061
27445OCT     C254890   6.360  12.058  19.744 -0.1889 -0.3216  0.5703
27446OCT     C154891  14.278   0.044  16.725 -0.1514  0.3873  0.1048
27446OCT     C254892  14.519   0.089  16.331  0.0018 -0.2751  0.0114
27447OCT     C154893  18.009  10.633   7.530 -0.0772  0.0208  0.0139
27447OCT     C254894  18.363  10.436   7.766 -0.0561 -0.0160 -0.0016
27448OCT     C154895  15.668  19.359  15.259 -0.0138 -0.0053  0.2746
27448OCT     C254896  15.508  19.049  15.520 -0.0606  0.0714 -0.2222
27449OCT     C154897   9.775   2.144  18.027  0.2529  0.2376 -0.0207
27449OCT     C254898   9.567   2.514  17.721 -0.0115  0.5734 -0.1145
27450OCT     C154899  16.459  20.149  15.882  0.1592 -0.0289 -0.1175
27450OCT     C254900  16.663  20.164  15.462 -0.1276  0.0351 -0.1913
27451OCT     C154901   5.226   4.482   6.779  0.0837 -0.2154 -0.2254
27451OCT     C254902   4.832   4.266   6.946 -0.0900 -0.0439 -0.0276
27452OCT     C154903  18.615   8.211   9.604  0.4569 -0.0644 -0.0232
27452OCT     C254904  18.989   8.398   9.436 -0.4009  0.1738  0.0554
27453OCT     C154905  22.634  13.305  10.202 -0.0799  0.0189 -0.2200
27453OCT     C254906  23.003  13.489   9.937  0.2542  0.1118 -0.1927
27454OCT     C154907   9.808   1.210   1.893 -0.0016  0.1657 -0.3903
27454OCT     C254908  10.013   1.658   1.892  0.1423 -0.1188  0.0881
27455OCT     C154909  12.519  23.015  13.302 -0.1891  0.1431 -0.0379
27455OCT     C254910  12.460  22.607  13.451 -0.3931 -0.2536  0.0638
27456OCT     C154911  10.551  12.574  16.149  0.1020 -0.3050 -0.0543
27456OCT     C254912  10.559  12.097  16.118  0.2419  0.2037  0.3575
27457OCT     C154913  16.412  15.438   8.292  0.0913 -0.0784 -0.0323
27457OCT     C254914  15.973  15.628   8.153 -0.2802 -0.3662  0.1760
27458OCT     C154915  23.216  10.030   2.649 -0.1141  0.1330 -0.1579
27458OCT     C254916  23.499  10.366   2.496  0.0930 -0.4214 -0.0014
27459OCT     C154917   3.854   9.601  21.444  0.0292 -0.2873  0.1056
27459OCT     C254918   3.921  10.078  21.448 -0.0009 -0.1878 -0.1659
27460OCT     C154919  20.055   9.889   2.153  0.1951  0.0803 -0.1004
27460OCT     C254920  19.911   9.539   1.928  0.5545  0.0667  0.1125
27461OCT     C154921  17.966  15.899   1.203  0.3234  0.0006  0.2204
27461OCT     C254922  17.906  15.604   1.572  0.1342  0.1651 -0.0656
27462OCT     C154923  11.362   6.048  18.718 -0.5543 -0.3745 -0.0564
27462OCT     C254924  11.188   6.204  18.283  0.0761 -0.0594 -0.1962
27463OCT     C154925  10.433  14.958  10.100 -0.0097  0.3161 -0.1997
27463OCT     C254926  10.551  14.817  10.519  0.4684  0.3156 -0.1847
27464OCT     C154927   1.787  23.537  17.036  0.1545 -0.0028  0.0885
27464OCT     C254928   1.754   0.045  16.603  0.3802  0.0815 -0.1888
27465OCT     C154929  13.540  22.157  20.375 -0.1696 -0.1094 -0.4027
27465OCT     C254930  13.582  21.928  19.995 -0.3352 -0.0488  0.0633
27466OCT     C154931  22.901   2.059  22.466 -0.2763  0.2385  0.3078
27466OCT     C254932  23.034   1.614  22.461  0.1178  0.0193  0.2913
27467OCT     C154933  17.154   1.156   4.382  0.0320 -0.1638  0.1275
27467OCT     C254934  17.497   1.283   4.144  0.0971  0.0080 -0.1619
27468OCT     C154935   9.361   1.829   2.688 -0.4378 -0.4243 -0.1299
27468OCT     C254936   9.640   2.161   2.814 -0.3641 -0.2675  0.1061
27469OCT     C154937   3.575   3.507   2.183 -0.2264  0.4250  0.0429
27469OCT     C254938   3.801   3.068   2.319  0.2536 -0.2258  0.0606
27470OCT     C154939   1.582  18.533   0.024 -0.2308  0.0523  0.0630
27470OCT     C254940   1.748  18.927   0.031  0.1125 -0.0762  0.0961
27471OCT     C154941  18.337  14.603  20.951  0.1526  0.6169 -0.4342
27471OCT     C254942  18.790  14.810  20.944  0.0510  0.1307 -0.1041
27472OCT     C154943  11.852   1.981   0.169  0.2541  0.1968  0.2861
27472OCT     C254944  11.943   2.373   0.017 -0.0484 -0.2765 -0.2210
27473OCT     C154945   0.312  23.313  10.819  0.1075  0.1472  0.0195
27473OCT     C254946   0.525  22.865  10.907 -0.0272  0.1262 -0.1841
27474OCT     C154947  13.399   4.778  16.535 -0.1008 -0.0680  0.3907
27474OCT     C254948  13.492   4.585  16.176 -0.1379  0.1203  0.1460
27475OCT     C154949  16.563   4.273  19.829 -0.3874  0.2812 -0.3407
27475OCT     C254950  16.790   4.306  20.214  0.3827 -0.0383  0.4778
27476OCT     C154951   6.400   3.861   4.084 -0.0099 -0.0304 -0.0664
27476OCT     C254952   6.537   3.414   4.279 -0.4349 -0.0454  0.1374
27477OCT     C154953   5.335  23.687   4.807  0.0310 -0.0793 -0.3962
27477OCT     C254954   4.937  23.625   5.083  0.2815 -0.0145  0.0637
27478OCT     C154955   6.581   1.387   1.565  0.0724  0.3165 -0.4570
27478OCT     C254956   6.342   1.557   1.246 -0.0020 -0.0076  0.2105
27479OCT     C154957  11.584  17.692  20.083  0.1826  0.1961 -0.1313
27479OCT     C254958  11.948  17.581  20.326  0.1396  0.1670 -0.0340
27480OCT     C154959   7.811   3.424   2.680 -0.2684 -0.0908 -0.1126
27480OCT     C254960   8.083   3.654   2.358  0.0535 -0.3670 -0.1452
27481OCT     C154961   6.704  21.118  16.479 -0.6166  0.0546 -0.0676
27481OCT     C254962   6.821  20.673  16.674  0.3636  0.2211 -0.0659
27482OCT     C154963  12.128  17.636   4.746 -0.3945  0.2215  0.4025
27482OCT     C254964  12.557  17.772   4.696 -0.2610  0.1223  0.0585
27483OCT     C154965   4.166  13.137  20.590 -0.0408  0.2557 -0.1209
27483OCT     C254966   3.845  12.789  20.486 -0.2288 -0.1760  0.0076
27484OCT     C154967  18.194   8.026   9.405 -0.0327  0.2909  0.1205
27484OCT     C254968  18.547   7.706   9.534  0.2105  0.0442 -0.1531
27485OCT     C154969  23.291  16.546  14.525 -0.2657 -0.2569  0.0726
27485OCT     C254970  22.933  16.221  14.450 -0.1640 -0.2216  0.0822
27486OCT     C154971  22.918   1.434  22.946  0.2965 -0.1164  0.1980
27486OCT     C254972  23.342   1.571  23.165  0.1151  0.0036  0.1344
27487OCT     C154973  12.304  22.887   7.952 -0.0714 -0.1303 -0.5515
27487OCT     C254974  12.263  22.773   7.532  0.1449 -0.1254 -0.1445
27488OCT     C154975   2.605  20.327  11.901  0.1335  0.1940 -0.2453
27488OCT     C254976   2.790  20.693  12.112  0.0479 -0.1192  0.1178
27489OCT     C154977  22.566   4.034  19.465 -0.0549  0.2263  0.1573
27489OCT     C254978  22.486   4.467  19.548 -0.2396  0.4336 -0.2841
27490OCT     C154979   2.049   2.580   1.084 -0.2438  0.2748  0.2658
27490OCT     C254980   1.873   2.779   0.725  0.2496 -0.1174 -0.0242
27491OCT     C154981  21.038   3.347   5.092 -0.0456 -0.1681  0.0340
27491OCT     C254982  20.949   3.789   5.037  0.0846 -0.3284  0.1147
27492OCT     C154983  15.214   1.364   6.783 -0.0111 -0.2310 -0.1024
27492OCT     C254984  15.372   0.999   7.003 -0.0508 -0.3500 -0.2557
27493OCT     C154985   5.716  17.663   8.841  0.2140  0.4008  0.1102
27493OCT     C254986   5.387  17.531   9.118 -0.3640  0.0666  0.0000
27494OCT     C154987  21.039   5.958   9.666 -0.1693 -0.0615 -0.5542
27494OCT     C254988  21.471   6.019   9.654 -0.2894 -0.2849  0.0164
27495OCT     C154989   7.561  11.440   6.476  0.1230  0.2772 -0.2987
27495OCT     C254990   7.174  11.635   6.334 -0.0673 -0.2963 -0.0422
27496OCT     C154991  11.403  22.209  21.432 -0.0601  0.1871  0.1127
27496OCT     C254992  11.439  21.770  21.240  0.4116  0.1984  0.0115
27497OCT     C154993  17.847  11.145   4.376 -0.0437  0.5003  0.1355
27497OCT     C254994  18.230  10.843   4.382 -0.3520 -0.0176 -0.0265
27498OCT     C154995   9.772  16.681  11.900  0.0341  0.0506  0.0499
27498OCT     C254996   9.350  16.903  11.809 -0.0891 -0.1562 -0.5139
27499OCT     C154997   3.014   1.381  12.790 -0.0098 -0.2338 -0.1066
27499OCT     C254998   2.944   1.707  12.465  0.1753 -0.3351 -0.1009
27500OCT     C154999  14.723  20.317   4.743  0.0484  0.0206 -0.0972
27500OCT     C255000  14.340  20.309   4.469 -0.0888 -0.1429  0.2633
27501OCT     C155001  11.502  22.832   1.854  0.0712 -0.1122  0.0199
27501OCT     C255002  11.389  22.917   1.412  0.0597  0.0427 -0.3371
27502OCT     C155003  16.284  17.793  22.635  0.1165  0.1985  0.2565
27502OCT     C255004  15.979  17.948  22.902  0.0426 -0.1690  0.0678
27503OCT     C155005  22.422  15.794   7.265 -0.1282  0.2259 -0.5223
27503OCT     C255006  22.270  15.423   7.009 -0.2177  0.2937 -0.2790
27504OCT     C155007  22.143  21.313   4.220  0.3661  0.3985 -0.2396
27504OCT     C255008  22.214  21.277   4.660 -0.1727  0.3564 -0.0850
27505OCT     C155009   5.353  14.789  12.547 -0.1458  0.3198  0.3605
27505OCT     C255010   5.615  14.932  12.211  0.0466 -0.0261 -0.0445
27506OCT     C155011   7.123  23.254   4.330 -0.5911  0.4042 -0.1512
27506OCT     C255012   7.077  23.535   4.682 -0.0282  0.1679  0.0242
27507OCT     C155013  18.533  17.371  15.791 -0.0771 -0.0224  0.0691
27507OCT     C255014  18.145  17.180  15.654  0.2015 -0.1576 -0.0366
27508OCT     C155015  20.399  16.634  12.733  0.2514  0.1930  0.2880
27508OCT     C255016  20.089  16.931  12.890 -0.2571 -0.0772  0.2575
27509OCT     C155017  20.256   0.712   4.134  0.0478 -0.0247 -0.3801
27509OCT     C255018  20.363   0.912   3.702 -0.0506 -0.2102 -0.0627
27510OCT     C155019   9.591   4.570   5.243  0.2360  0.4253  0.1381
27510OCT     C255020   9.121   4.569   5.140  0.2786 -0.2376 -0.0833
27511OCT     C155021  18.791   8.001  13.451  0.2761  0.1172 -0.4879
27511OCT     C255022  18.688   7.580  13.336 -0.6857  0.0600 -0.0315
27512OCT     C155023   4.049  19.565  20.411  0.5255  0.0895 -0.1487
27512OCT     C255024   4.037  19.765  20.876  0.0735 -0.2670 -0.3031
27513OCT     C155025  14.739   5.482  15.466  0.5632  0.0058 -0.1913
27513OCT     C255026  15.120   5.248  15.204  0.4250 -0.1202 -0.0098
27514OCT     C155027   6.900  18.734  18.674  0.4332 -0.1801 -0.2112
27514OCT     C255028   6.561  18.435  18.697  0.0073  0.2181  0.1300
27515OCT     C155029  14.950   5.622   1.700  0.1481  0.2531 -0.3103
27515OCT     C255030  15.102   5.217   1.855  0.2073  0.0123  0.1915
27516OCT     C155031  18.303   3.367   9.888 -0.0812 -0.0284  0.1864
27516OCT     C255032  18.516   3.494   9.491  0.0831  0.3293 -0.0387
27517OCT     C155033  21.585  22.199  12.009 -0.0913  0.1004 -0.0628
27517OCT     C255034  21.778  22.586  11.987  0.2946  0.0188 -0.2267
27518OCT     C155035  10.381   1.733   0.321  0.1279 -0.1940  0.2013
27518OCT     C255036  10.801   1.945   0.218 -0.0104  0.0050 -0.3768
27519OCT     C155037  15.893  12.464   9.940 -0.3027 -0.1223 -0.1026
27519OCT     C255038  16.228  12.747   9.945  0.0292  0.0320  0.2111
27520OCT     C155039  22.743  23.701  18.935 -0.2667  0.0773  0.0859
27520OCT     C255040  22.851   0.023  18.506  0.0677  0.0096 -0.1597
27521OCT     C155041   0.503  16.753   5.884  0.1203  0.0850  0.1348
27521OCT     C255042   0.822  17.054   5.768 -0.2259 -0.0716 -0.1427
27522OCT     C155043  21.072   3.175   1.988 -0.0729  0.0134 -0.0846
27522OCT     C255044  21.128   2.684   1.923 -0.0299 -0.5919 -0.6043
27523OCT     C155045  11.305   7.909   4.391 -0.2757 -0.1217  0.0279
27523OCT     C255046  11.615   8.232   4.353  0.2234  0.2882 -0.2482
27524OCT     C155047   5.636  18.045   3.456 -0.1563  0.0131 -0.0622
27524OCT     C255048   5.377  17.920   3.770 -0.0565  0.1219 -0.0803
27525OCT     C155049  13.649   4.928  10.329 -0.1396 -0.1358  0.0772
27525OCT     C255050  13.340   4.840   9.979 -0.1256  0.3010 -0.3034
27526OCT     C155051   1.385   9.841   4.933 -0.1158  0.0981 -0.1370
27526OCT     C255052   1.532  10.151   5.250 -0.1146 -0.2046 -0.0413
27527OCT     C155053   6.997  11.563  17.752 -0.2536  0.0530 -0.2838
27527OCT     C255054   6.940  11.256  18.105 -0.0205  0.2071 -0.0830
27528OCT     C155055   0.358  22.630  11.294 -0.1014  0.2086 -0.0699
27528OCT     C255056   0.171  22.232  11.413  0.1620 -0.3498  0.2042
27529OCT     C155057   7.554  19.725   1.383  0.0154 -0.1589 -0.2344
27529OCT     C255058   7.669  19.546   1.820  0.1581  0.0965 -0.0055
27530OCT     C155059   1.067  14.282  21.919  0.3626  0.2466  0.0947
27530OCT     C255060   1.330  13.953  22.129 -0.0738 -0.3708 -0.2411
27531OCT     C155061  14.923   6.540   1.769 -0.0027 -0.2758  0.3596
27531OCT     C255062  14.591   6.829   1.593 -0.3038  0.0971  0.3381
27532OCT     C155063  17.766   6.202   7.358 -0.0739 -0.1602 -0.0761
27532OCT     C255064  17.971   6.337   6.962  0.4662  0.0753 -0.1618
27533OCT     C155065  22.180   9.555   0.538 -0.4078  0.3611 -0.0401
27533OCT     C255066  22.197   9.944   0.216  0.1601 -0.2769  0.1070
27534OCT     C155067  19.039  17.820   6.651 -0.2607  0.0551 -0.1784
27534OCT     C255068  18.869  17.970   7.036 -0.2168  0.0551 -0.0053
27535OCT     C155069  12.377   3.538  12.462 -0.2726  0.1596  0.0768
27535OCT     C255070  12.310   3.213  12.764 -0.0787  0.2405 -0.0893
27536OCT     C155071   1.687   1.608  11.990  0.1932  0.2369 -0.0879
27536OCT     C255072   1.945   1.649  12.387  0.3159 -0.1420 -0.1229
27537OCT     C155073  16.918  20.942  13.898  0.0589 -0.1215  0.1900
27537OCT     C255074  16.655  20.747  13.534  0.2184 -0.2225  0.0527
27538OCT     C155075   2.266   7.970  14.719  0.1652  0.0421  0.0828
27538OCT     C255076   2.349   8.424  14.682  0.2113 -0.1133 -0.0721
27539OCT     C155077   1.763   2.826  18.382  0.0866 -0.3783  0.3498
27539OCT     C255078   1.897   3.087  18.024 -0.0247  0.0791 -0.3676
27540OCT     C155079  21.317   3.294   7.502 -0.2398 -0.0171 -0.0250
27540OCT     C255080  21.214   2.949   7.137  0.2737 -0.2089  0.1492
27541OCT     C155081   5.096  11.022  16.914 -0.0123 -0.0836 -0.0947
27541OCT     C255082   5.397  10.702  17.013 -0.1021  0.3799  0.0665
27542OCT     C155083  23.560   5.754  20.439  0.0071  0.0013 -0.1934
27542OCT     C255084  23.279   5.555  20.766  0.1020 -0.0789 -0.3171
27543OCT     C155085  17.978   7.356   5.005  0.3189  0.0807  0.1140
27543OCT     C255086  17.704   7.334   5.325 -0.2363  0.1851  0.1038
27544OCT     C155087   8.369  22.967  19.223  0.2044 -0.3461  0.0759
27544OCT     C255088   8.577  22.712  19.495  0.0754  0.0701 -0.0135
27545OCT     C155089   9.910   4.832   2.970  0.4200 -0.0257 -0.1528
27545OCT     C255090  10.173   4.797   2.581 -0.2422 -0.0956 -0.1610
27546OCT     C155091   9.726   9.426  11.328 -0.1718  0.1011 -0.0560
27546OCT     C255092   9.279   9.274  11.236 -0.0534 -0.2245 -0.0348
27547OCT     C155093   7.671   8.736   5.794 -0.0336  0.1154 -0.1268
27547OCT     C255094   7.503   8.903   5.448  0.1495 -0.1086 -0.0472
27548OCT     C155095   6.015  10.330   0.524  0.3736 -0.0780  0.2593
27548OCT     C255096   6.206  10.071   0.875  0.0699 -0.0127 -0.1301
27549OCT     C155097  11.889  17.766   9.191  0.1465 -0.1366 -0.0981
27549OCT     C255098  12.100  17.978   9.517  0.4925 -0.0659  0.2665
27550OCT     C155099  21.537   1.987   2.157  0.0402 -0.0905 -0.1449
27550OCT     C255100  21.540   1.488   2.038 -0.0971  0.0773 -0.0429
27551OCT     C155101  23.665  23.134   2.088 -0.2285 -0.2730  0.3801
27551OCT     C255102   0.200  23.066   1.685  0.1276 -0.1421 -0.1017
27552OCT     C155103   9.269   0.238   5.284 -0.2347 -0.7082  0.2001
27552OCT     C255104   9.068   0.202   5.638 -0.1592  0.4258  0.4699
27553OCT     C155105  13.698  14.604  13.211 -0.0839 -0.0578  0.2196
27553OCT     C255106  13.281  14.642  13.459  0.1578  0.1508  0.1781
27554OCT     C155107   3.104  10.824  22.700  0.1687  0.1382  0.0578
27554OCT     C255108   2.994  10.369  22.680  0.0233 -0.0858  0.0308
27555OCT     C155109   8.591  21.371   5.046 -0.4101  0.2579 -0.3027
27555OCT     C255110   8.842  21.286   4.657  0.3424  0.2870 -0.0069
27556OCT     C155111  12.580   5.375  22.659  0.0719  0.3265  0.3082
27556OCT     C255112  12.872   5.321  23.026 -0.1064 -0.4338  0.0011
27557OCT     C155113   0.967  15.684   3.369 -0.0019 -0.2473  0.0440
27557OCT     C255114   0.838  15.516   3.751  0.1503  0.3503 -0.2089
27558OCT     C155115  18.970  13.732   3.082  0.3758 -0.0143 -0.2483
27558OCT     C255116  19.392  13.923   2.962  0.1775 -0.1310 -0.1609
27559OCT     C155117   4.920  12.637   0.514  0.0251  0.0323  0.0325
27559OCT     C255118   4.657  12.931   0.850 -0.1584 -0.0045 -0.1459
27560OCT     C155119   4.330  11.146   4.285 -0.2592 -0.4504 -0.1175
27560OCT     C255120   4.072  11.049   3.915  0.0420 -0.1603 -0.3104
27561OCT     C155121  20.659   8.534  22.177 -0.2190 -0.0922 -0.2587
27561OCT     C255122  20.582   8.225  21.768 -0.2251 -0.2070 -0.1572
27562OCT     C155123  14.541  10.455  23.480 -0.1878 -0.0861 -0.1237
27562OCT     C255124  14.564  10.426  23.002 -0.0181  0.2361 -0.2823
27563OCT     C155125   5.364  18.479  12.317  0.0986  0.1649  0.1643
27563OCT     C255126   5.032  18.217  12.095  0.0150  0.0553 -0.2110
27564OCT     C155127  15.159   9.002  15.850 -0.3428 -0.0832  0.0677
27564OCT     C255128  15.088   8.803  16.288  0.0994 -0.0470  0.1286
27565OCT     C155129  20.177  12.046   6.819  0.1793  0.2787 -0.0217
27565OCT     C255130  20.346  12.258   7.185 -0.2265  0.0728 -0.1576
27566OCT     C155131  12.908   4.457   6.361  0.4931  0.2792  0.1525
27566OCT     C255132  12.706   4.123   6.116  0.3409  0.0327 -0.0860
27567OCT     C155133  18.082  15.646  21.737 -0.0493 -0.1808  0.1795
27567OCT     C255134  18.454  15.878  21.954 -0.2071  0.4113 -0.3999
27568OCT     C155135  22.533  19.504   9.022  0.0961  0.3129  0.2709
27568OCT     C255136  22.512  19.384   8.570 -0.1612  0.3009  0.0459
27569OCT     C155137  17.949  20.155  21.068 -0.0964  0.1992 -0.4067
27569OCT     C255138  17.629  19.909  20.861  0.0071  0.1549 -0.0867
27570OCT     C155139   5.392   1.431   7.711 -0.0442 -0.0037  0.0767
27570OCT     C255140   5.215   1.009   7.620 -0.1240  0.0515  0.2734
27571OCT     C155141   6.263   0.149   8.382 -0.4099  0.1519 -0.1858
27571OCT     C255142   5.994   0.311   8.609 -0.1266  0.2424 -0.1198
27572OCT     C155143  17.845  23.361  10.098  0.0913  0.1122 -0.2094
27572OCT     C255144  17.585  22.976  10.116 -0.1982  0.2223  0.3262
27573OCT     C155145  12.718   8.356  19.183 -0.6475  0.5614 -0.1486
27573OCT     C255146  12.337   8.541  19.242 -0.1038  0.2610  0.1047
27574OCT     C155147  23.594  10.431   1.241  0.1416 -0.0625 -0.0325
27574OCT     C255148  23.200  10.301   1.373 -0.0014  0.1106  0.0538
27575OCT     C155149   9.608   4.194  17.926  0.1656  0.2590  0.2689
27575OCT     C255150   9.187   4.282  17.746  0.1014 -0.0896  0.1522
27576OCT     C155151   3.196   6.176  17.785  0.0943 -0.0869 -0.0230
27576OCT     C255152   3.240   6.342  18.199 -0.0067  0.1477  0.1400
27577OCT     C155153   2.687   6.089  20.077 -0.2708  0.1337 -0.1998
27577OCT     C255154   2.859   6.282  19.690 -0.0335 -0.0479  0.3132
27578OCT     C155155  13.238  18.138  12.452  0.1321  0.0500  0.2316
27578OCT     C255156  13.032  18.096  12.865 -0.0580 -0.3564  0.1192
27579OCT     C155157  17.119  10.287   8.851 -0.2721 -0.0140  0.2102
27579OCT     C255158  17.557  10.163   8.764  0.2406 -0.1124 -0.3022
27580OCT     C155159  22.569  21.888   2.611  0.2299  0.2835 -0.0676
27580OCT     C255160  22.372  22.305   2.484  0.2018  0.0667 -0.0000
27581OCT     C155161  17.476  11.941   0.496  0.2956 -0.0781 -0.1224
27581OCT     C255162  17.748  12.283   0.590 -0.2288  0.0095  0.3198
27582OCT     C155163  12.423   4.392  12.755 -0.0801 -0.1715  0.4171
27582OCT     C255164  12.661   4.755  12.580 -0.0191  0.0394  0.1797
27583OCT     C155165  19.128  22.649  18.332 -0.2943 -0.2634 -0.0896
27583OCT     C255166  18.789  22.890  18.613  0.2692 -0.3426 -0.1065
27584OCT     C155167  10.518  10.408  11.894 -0.0813 -0.1949 -0.0647
27584OCT     C255168  10.205  10.421  12.262 -0.0869 -0.0860 -0.0979
27585OCT     C155169   2.047  23.377  23.004  0.1825 -0.1348  0.1293
27585OCT     C255170   1.663  23.129  23.207 -0.1735  0.0876 -0.3620
27586OCT     C155171  12.926  16.737  20.473 -0.2356 -0.1556 -0.0652
27586OCT     C255172  13.194  17.072  20.789  0.0737 -0.4017 -0.4162
27587OCT     C155173   8.808  23.721   8.578  0.3508 -0.0433 -0.2673
27587OCT     C255174   8.496  23.410   8.514  0.0251  0.1348  0.1636
27588OCT     C155175   3.775  19.449  13.025 -0.3507 -0.1965 -0.1187
27588OCT     C255176   3.397  19.198  12.893  0.3260  0.2164  0.1339
27589OCT     C155177  10.180   1.946   3.828  0.1401 -0.2156 -0.0659
27589OCT     C255178  10.319   1.786   4.281  0.1252 -0.1999 -0.2510
27590OCT     C155179  18.367  11.030   0.181 -0.0470  0.0711  0.2091
27590OCT     C255180  18.039  11.100  23.595  0.0013  0.1280  0.2191
27591OCT     C155181   1.887  17.555   8.927  0.0456  0.0696 -0.1358
27591OCT     C255182   1.702  17.828   8.556  0.0031 -0.2072 -0.4566
27592OCT     C155183   5.441  21.649  11.080 -0.1699  0.1543 -0.5093
27592OCT     C255184   5.355  21.720  11.508  0.0936 -0.3047 -0.2133
27593OCT     C155185   3.464   2.964   5.380  0.0800 -0.0634  0.0409
27593OCT     C255186   3.667   2.914   5.002  0.0469 -0.0859  0.1429
27594OCT     C155187   1.543   6.126  10.800  0.2767  0.3793  0.1389
27594OCT     C255188   1.923   6.512  10.797  0.3880  0.0815 -0.0069
27595OCT     C155189  11.372  21.337  10.426 -0.0725 -0.1701  0.3254
27595OCT     C255190  11.219  20.966  10.672 -0.0562  0.0641 -0.1282
27596OCT     C155191   2.111   1.070  23.605  0.0024 -0.0140 -0.0887
27596OCT     C255192   1.894   0.693  23.433 -0.0588  0.0470  0.1628
27597OCT     C155193   3.009   1.450   5.989  0.1699 -0.1252  0.3463
27597OCT     C255194   3.410   1.292   6.157  0.0379 -0.1385 -0.1923
27598OCT     C155195  10.228   9.540  15.866 -0.4342 -0.1504  0.1780
27598OCT     C255196  10.413   9.730  15.547  0.3274 -0.4361 -0.1021
27599OCT     C155197  13.044  10.974   1.587  0.1083 -0.1221 -0.0216
27599OCT     C255198  13.162  10.703   1.219  0.2677  0.1774 -0.1507
27600OCT     C155199  16.320   1.515  15.881  0.2187  0.1516 -0.1830
27600OCT     C255200  16.114   1.617  16.323  0.0304  0.4511 -0.1807
27601OCT     C155201  17.103   1.247   7.914 -0.1716 -0.2895  0.0153
27601OCT     C255202  17.534   1.262   7.715 -0.3787  0.4271 -0.3120
27602OCT     C155203  12.991  14.654  19.226  0.2966 -0.1053 -0.0629
27602OCT     C255204  13.271  14.473  19.535  0.2880  0.1833  0.1579
27603OCT     C155205   6.140   2.987  17.791 -0.0694 -0.0019  0.1661
27603OCT     C255206   6.431   3.072  17.411  0.2454 -0.1224  0.2192
27604OCT     C155207  16.819   2.531  15.686 -0.0625 -0.1451  0.2593
27604OCT     C255208  16.509   2.179  15.582  0.1707  0.0520  0.0241
27605OCT     C155209  19.055  20.506   9.054  0.0986 -0.1795  0.1932
27605OCT     C255210  18.749  20.407   8.753 -0.2217 -0.5009  0.0380
27606OCT     C155211   9.260   1.927  15.171  0.1249  0.0901  0.1816
27606OCT     C255212   9.207   2.401  15.136 -0.4072  0.1002 -0.1884
27607OCT     C155213   9.874  19.191  17.346 -0.1258  0.1339  0.1726
27607OCT     C255214   9.825  19.549  17.630  0.1541 -0.1198 -0.1901
27608OCT     C155215  14.904   8.950  22.629  0.1275  0.3106  0.0794
27608OCT     C255216  14.880   8.860  22.209  0.4797 -0.0101 -0.4958
27609OCT     C155217  23.242  21.248   5.407  0.3170 -0.0594 -0.2221
27609OCT     C255218  23.054  21.608   5.606  0.0023  0.2145  0.0144
27610OCT     C155219  13.970   3.690  22.646 -0.4096  0.2174 -0.0044
27610OCT     C255220  13.933   3.872  23.027  0.2661  0.2621 -0.2353
27611OCT     C155221  22.933   7.614  21.164 -0.2747  0.1688 -0.2411
27611OCT     C255222  22.583   7.389  20.883 -0.2835 -0.2054 -0.0777
27612OCT     C155223  22.577  14.396  16.979  0.0130 -0.3724 -0.1050
27612OCT     C255224  22.736  14.025  16.742 -0.2008  0.0134 -0.0964
27613OCT     C155225   8.627   2.564   6.033 -0.2887 -0.3056 -0.1309
27613OCT     C255226   8.979   2.229   6.123  0.0293  0.0371  0.4403
27614OCT     C155227   6.057  13.834   3.556  0.1751  0.1559  0.0765
27614OCT     C255228   6.222  13.422   3.412 -0.2254  0.2432 -0.1787
27615OCT     C155229  20.156   7.712  21.740  0.1673  0.0140  0.3997
27615OCT     C255230  20.083   7.339  21.979  0.1271 -0.2302  0.0578
27616OCT     C155231  22.229  13.140  20.322  0.1330 -0.4052  0.0812
27616OCT     C255232  22.355  13.002  19.941 -0.0265  0.4829  0.3088
27617OCT     C155233  20.144   5.758   0.619  0.0132  0.1256 -0.1767
27617OCT     C255234  19.966   5.787   0.194 -0.2924 -0.1716 -0.1549
27618OCT     C155235   3.552   8.260  22.830  0.2252 -0.1398  0.2063
27618OCT     C255236   3.729   8.561  23.156 -0.8665  0.2039 -0.0565
27619OCT     C155237   2.614  12.284  23.137  0.0021  0.2592  0.0516
27619OCT     C255238   2.939  12.486  22.879  0.2132 -0.3791 -0.2229
27620OCT     C155239  15.284   0.561  22.736  0.1264 -0.3400 -0.2468
27620OCT     C255240  15.402   0.197  22.445  0.0464  0.5755  0.0028
27621OCT     C155241   6.286  15.749  13.054 -0.0471 -0.3962  0.2445
27621OCT     C255242   6.082  15.972  13.482 -0.0497  0.0476 -0.2056
27622OCT     C155243  10.451  11.415  22.123 -0.0384 -0.1284 -0.1690
27622OCT     C255244  10.722  11.181  22.374  0.2979  0.0150  0.0331
27623OCT     C155245  20.229   8.280   1.707  0.1261  0.1965 -0.1902
27623OCT     C255246  20.667   8.421   1.501 -0.0476  0.0513 -0.0493
27624OCT     C155247   3.912   3.444   5.432 -0.1347 -0.0255  0.0691
27624OCT     C255248   4.382   3.371   5.301 -0.0379  0.1867  0.2211
27625OCT     C155249   4.812   8.409  12.365  0.1851 -0.0890  0.0319
27625OCT     C255250   4.903   8.918  12.335 -0.1116 -0.2315  0.0630
27626OCT     C155251  19.852   9.459  21.244 -0.3584 -0.0057  0.1567
27626OCT     C255252  19.735   9.138  20.894  0.2979 -0.0011  0.0911
27627OCT     C155253  19.301   3.150  21.280  0.2146  0.0130 -0.0368
27627OCT     C255254  19.327   3.059  21.720 -0.2405 -0.0038  0.1595
27628OCT     C155255  20.353  11.540   5.610  0.3965 -0.1650  0.2615
27628OCT     C255256  20.119  11.412   6.008 -0.0924  0.1474  0.1178
27629OCT     C155257  20.057  14.753  18.068 -0.1589 -0.0517 -0.0474
27629OCT     C255258  19.877  14.353  18.161  0.2570  0.4910  0.2761
27630OCT     C155259  12.309  18.255  16.956 -0.3194 -0.0278  0.0706
27630OCT     C255260  11.903  18.493  16.969  0.0480 -0.0413  0.1470
27631OCT     C155261   4.200   2.710   2.697 -0.0709 -0.0806  0.1779
27631OCT     C255262   4.535   2.596   2.460  0.2268  0.0894 -0.1442
27632OCT     C155263   4.490  12.234  13.881  0.3145 -0.0725  0.1083
27632OCT     C255264   4.812  12.465  14.124  0.0089  0.1334 -0.4005
27633OCT     C155265  22.167  16.462   7.773 -0.2285 -0.3508 -0.0809
27633OCT     C255266  22.188  16.331   7.286  0.1579  0.3543 -0.5652
27634OCT     C155267   5.605   2.390   8.010 -0.3500  0.5096  0.3453
27634OCT     C255268   5.838   2.774   8.112 -0.0759 -0.1812  0.0858
27635OCT     C155269  21.069   8.149   1.105  0.1184  0.0698  0.0684
27635OCT     C255270  20.741   7.931   0.877 -0.1030  0.0036  0.0288
27636OCT     C155271  15.264  17.482   7.907  0.0309 -0.1664  0.0659
27636OCT     C255272  14.836  17.466   7.743 -0.3757 -0.0209 -0.2447
27637OCT     C155273   9.741   7.496  12.780 -0.4992  0.3717  0.0867
27637OCT     C255274  10.022   7.582  12.433  0.1427 -0.3003  0.2491
27638OCT     C155275   6.473  22.254  17.052 -0.1858 -0.0243  0.2838
27638OCT     C255276   6.913  22.265  16.856  0.1350 -0.1482  0.5788
27639OCT     C155277  15.209  18.550  21.375 -0.4196 -0.2478 -0.1597
27639OCT     C255278  14.845  18.381  21.641  0.1263 -0.2408  0.1012
27640OCT     C155279  21.458   9.118  14.011 -0.2205  0.1146 -0.0293
27640OCT     C255280  21.704   9.471  14.115 -0.0632 -0.0340 -0.3071
27641OCT     C155281  22.957   7.741  22.912  0.3283 -0.0685 -0.0593
27641OCT     C255282  23.191   8.135  22.987  0.1442 -0.3257 -0.1611
27642OCT     C155283   9.666   0.689   4.440  0.2188  0.2305 -0.2654
27642OCT     C255284   9.218   0.874   4.395 -0.2361 -0.1937 -0.0610
27643OCT     C155285   1.168   3.919   7.204 -0.2535 -0.3247  0.0583
27643OCT     C255286   1.649   4.006   7.083  0.2544 -0.0817  0.1105
27644OCT     C155287   9.685   0.557   2.182 -0.0239 -0.2643 -0.0107
27644OCT     C255288   9.613   1.032   2.316 -0.1350  0.3618 -0.1526
27645OCT     C155289   7.124  15.816  11.700 -0.2632 -0.0798 -0.0188
27645OCT     C255290   6.935  15.809  12.126 -0.3182 -0.0003 -0.4118
27646OCT     C155291  18.138   0.159   0.621 -0.0616 -0.3024 -0.0701
27646OCT     C255292  18.496   0.281   0.351 -0.0568 -0.1214  0.0847
27647OCT     C155293   9.438  14.270  22.377 -0.4090 -0.0395 -0.1585
27647OCT     C255294   9.021  14.323  22.117  0.0376  0.1664 -0.3290
27648OCT     C155295  10.010  15.523   4.690 -0.1307  0.0992 -0.3067
27648OCT     C255296   9.994  15.923   4.907 -0.0087  0.0048  0.0610
27649OCT     C155297  18.107   6.564   7.941  0.1283 -0.1190 -0.0987
27649OCT     C255298  18.360   6.282   7.655  0.3105  0.1254 -0.2292
27650OCT     C155299   5.564   2.063  10.685  0.1803 -0.0784  0.1823
27650OCT     C255300   5.228   2.299  10.940 -0.0690  0.0352  0.0913
27651OCT     C155301  12.610  19.519   9.398  0.1662  0.1189  0.1565
27651OCT     C255302  13.113  19.543   9.329 -0.4320 -0.2472 -0.2852
27652OCT     C155303  10.245  21.922   8.918  0.1996  0.2871 -0.0768
27652OCT     C255304  10.684  21.905   9.151 -0.1605  0.0456  0.2821
27653OCT     C155305  21.821  18.688  11.365  0.1444 -0.0679  0.0702
27653OCT     C255306  21.627  18.753  11.775  0.0051  0.4278 -0.1073
27654OCT     C155307  15.330   3.222   4.679  0.0384 -0.3022 -0.3645
27654OCT     C255308  15.513   3.665   4.815 -0.2455 -0.1377 -0.2721
27655OCT     C155309  13.190  13.944   6.212  0.2673 -0.0896  0.2728
27655OCT     C255310  12.752  14.181   6.281  0.0884 -0.0510 -0.1082
27656OCT     C155311  17.811   5.929   6.046 -0.1765  0.2051 -0.0428
27656OCT     C255312  18.115   5.700   5.805  0.1165  0.0838  0.0997
27657OCT     C155313   0.892  12.248   8.399  0.0644  0.0340  0.1463
27657OCT     C255314   0.900  12.578   8.070  0.0034 -0.1349 -0.1201
27658OCT     C155315   3.497  17.644  21.371  0.1418 -0.1582 -0.1410
27658OCT     C255316   3.755  17.574  21.816  0.0688  0.2118  0.0852
27659OCT     C155317  19.425  13.238   1.189 -0.0373 -0.3081  0.3311
27659OCT     C255318  19.763  12.947   1.197  0.2756  0.2261  0.2375
27660OCT     C155319  13.543  17.838  14.526 -0.0544  0.2159  0.0217
27660OCT     C255320  13.427  18.189  14.843 -0.0544 -0.0953 -0.0346
27661OCT     C155321  23.086  23.127   5.696 -0.0106 -0.1640 -0.0638
27661OCT     C255322  23.110  22.698   5.807  0.0055  0.4519  0.0918
27662OCT     C155323   2.851  18.996   8.843  0.2354  0.0746 -0.3040
27662OCT     C255324   2.597  19.074   8.425  0.1382 -0.2151 -0.0393
27663OCT     C155325  18.245  10.014   9.147 -0.2305 -0.0256  0.0030
27663OCT     C255326  17.887   9.782   8.875  0.0286 -0.4582 -0.0860
27664OCT     C155327   9.639   6.915  19.156 -0.1390 -0.2184  0.0610
27664OCT     C255328   9.965   7.185  19.297  0.0260  0.0151 -0.0662
27665OCT     C155329  22.155  21.100   8.076  0.1393 -0.2581 -0.0792
27665OCT     C255330  22.411  21.190   8.456  0.1028  0.1028 -0.0450
27666OCT     C155331  13.766   2.465   1.749  0.2204  0.5715  0.2758
27666OCT     C255332  14.144   2.422   2.020  0.4537  0.1398  0.3089
27667OCT     C155333   9.640  23.093  10.836  0.0527 -0.0173 -0.2392
27667OCT     C255334   9.561  23.453  10.563  0.3052  0.1091 -0.2804
27668OCT     C155335  12.391   6.423   1.859 -0.2549  0.1872 -0.2161
27668OCT     C255336  12.543   6.817   2.003 -0.0259  0.1888 -0.0003
27669OCT     C155337  10.754  22.746  21.375  0.4312 -0.0237  0.1998
27669OCT     C255338  11.098  22.663  21.625  0.2216  0.1253 -0.4038
27670OCT     C155339  18.211   4.878   5.507  0.0422  0.0259  0.0979
27670OCT     C255340  18.202   4.432   5.468 -0.0193  0.2462 -0.0734
27671OCT     C155341   2.687  10.835  10.713 -0.0763 -0.0110 -0.2044
27671OCT     C255342   2.775  10.788  10.277  0.1318 -0.1277 -0.0922
27672OCT     C155343  14.757   9.067  15.153 -0.1803  0.2407 -0.2674
27672OCT     C255344  15.019   9.327  14.877 -0.1952 -0.1137 -0.3018
27673OCT     C155345   8.133  20.048   9.681 -0.0361  0.0898  0.0038
27673OCT     C255346   8.528  20.062   9.887 -0.1372 -0.1356 -0.2522
27674OCT     C155347  11.004  15.841  18.361 -0.1929  0.2217 -0.3932
27674OCT     C255348  10.656  16.146  18.451  0.1784 -0.2112 -0.3798
27675OCT     C155349  21.064  13.827  18.307  0.2844 -0.0224  0.1225
27675OCT     C255350  20.786  13.447  18.182 -0.0549  0.4543  0.0723
27676OCT     C155351   1.633   7.416   9.287  0.2551  0.3973 -0.2059
27676OCT     C255352   1.364   7.052   9.399 -0.0527  0.1920 -0.1087
27677OCT     C155353   3.051  12.624   7.495 -0.0035  0.1204 -0.1076
27677OCT     C255354   3.514  12.629   7.646 -0.0154  0.0788 -0.3180
27678OCT     C155355   5.420  18.775   4.078  0.1085  0.3945 -0.4055
27678OCT     C255356   5.478  19.234   4.179  0.0593  0.0788 -0.2346
27679OCT     C155357   3.160   5.537  17.329 -0.2969  0.1946 -0.2538
27679OCT     C255358   3.270   5.526  16.815  0.0852  0.0009 -0.1437
27680OCT     C155359   0.017   3.771  16.328  0.2539  0.3156 -0.2213
27680OCT     C255360   0.358   3.934  16.087 -0.3549  0.0230  0.0490
27681OCT     C155361  14.156  19.994  22.901 -0.1154  0.0323  0.2016
27681OCT     C255362  13.869  20.356  22.906 -0.4572  0.2196 -0.2731
27682OCT     C155363  14.976  15.286   9.566  0.0741 -0.0729 -0.0938
27682OCT     C255364  14.541  15.284   9.664 -0.0595 -0.0053  0.0918
27683OCT     C155365   5.477  17.882   6.012  0.1285 -0.0376 -0.0614
27683OCT     C255366   5.016  17.733   5.998  0.1285  0.2571 -0.1714
27684OCT     C155367  16.228  18.684  22.188 -0.1492  0.3865  0.2224
27684OCT     C255368  16.705  18.733  22.284 -0.0029  0.2838 -0.0934
27685OCT     C155369   1.098  16.214   2.341  0.1406  0.2028 -0.1871
27685OCT     C255370   1.085  16.532   2.692  0.2701 -0.0337  0.1672
27686OCT     C155371  11.704   2.724  20.191 -0.1176 -0.1020 -0.0041
27686OCT     C255372  11.623   2.363  19.894  0.0782  0.2830  0.0002
27687OCT     C155373   2.429   0.867  12.742 -0.1437  0.1529 -0.2284
27687OCT     C255374   2.669   0.560  12.556  0.1929  0.3467  0.0706
27688OCT     C155375  11.800  21.550   0.288 -0.1233 -0.0320 -0.1085
27688OCT     C255376  11.575  21.689   0.645 -0.1269  0.3202 -0.0531
27689OCT     C155377   4.104   2.872   5.406 -0.2646  0.1907 -0.0592
27689OCT     C255378   4.156   2.666   5.010 -0.0049  0.0386 -0.0589
27690OCT     C155379   3.172  16.403   9.429 -0.0654  0.4864 -0.2219
27690OCT     C255380   3.434  15.952   9.296  0.0834  0.0342  0.2060
27691OCT     C155381   7.639  21.943   7.895 -0.1038  0.1327  0.2386
27691OCT     C255382   7.480  21.640   7.579  0.1539 -0.1413 -0.0946
27692OCT     C155383   3.859  15.228  10.371 -0.0195  0.0056  0.3329
27692OCT     C255384   3.828  15.655  10.577 -0.2139  0.0383 -0.0040
27693OCT     C155385   4.070  16.122  20.236  0.4029 -0.1617  0.3370
27693OCT     C255386   4.219  16.201  19.824 -0.2093 -0.0291 -0.0664
27694OCT     C155387  20.321  21.787  21.456  0.1729 -0.0141  0.1549
27694OCT     C255388  20.369  21.463  21.806 -0.0500  0.0423  0.0374
27695OCT     C155389   3.110  18.004   2.618  0.5281  0.0857 -0.1354
27695OCT     C255390   3.051  17.547   2.742 -0.1612 -0.0190 -0.0442
27696OCT     C155391   4.580  12.704  21.597  0.2425  0.3794 -0.4528
27696OCT     C255392   4.771  12.390  21.322  0.1984  0.2873  0.1932
27697OCT     C155393   4.527   3.861  12.238  0.0282  0.3123  0.1881
27697OCT     C255394   4.350   3.802  12.691  0.1691  0.0609  0.0641
27698OCT     C155395   4.207  20.015  19.176 -0.2246  0.0814  0.1998
27698OCT     C255396   3.992  19.598  19.121 -0.0812 -0.0083  0.2755
27699OCT     C155397   3.099   7.179  20.080 -0.2239 -0.0222  0.0856
27699OCT     C255398   2.766   7.415  20.253 -0.4404 -0.0402 -0.0171
27700OCT     C155399  11.630   1.308   5.794 -0.3374  0.2700  0.2062
27700OCT     C255400  11.856   1.459   5.481 -0.0197 -0.0201  0.1593
27701OCT     C155401   6.618   4.761  11.869 -0.0368 -0.0896 -0.0809
27701OCT     C255402   6.416   4.870  11.491  0.0484 -0.0632 -0.4020
27702OCT     C155403  11.861  18.858  19.025 -0.1470  0.0970  0.0719
27702OCT     C255404  11.783  19.165  18.716  0.0730  0.2797  0.0659
27703OCT     C155405  14.977  20.017  10.847  0.2425 -0.1534 -0.0256
27703OCT     C255406  14.853  19.897  10.411 -0.2220  0.2738  0.0416
27704OCT     C155407   2.542  13.283  13.078  0.2918 -0.0428  0.0355
27704OCT     C255408   2.538  13.727  13.187 -0.0959 -0.0295 -0.2106
27705OCT     C155409   2.354   5.857   4.482 -0.5453 -0.1360  0.1934
27705OCT     C255410   2.242   6.217   4.697  0.2810  0.2095 -0.0099
27706OCT     C155411  16.659  11.479  19.620  0.1729 -0.0879  0.0117
27706OCT     C255412  16.663  11.597  20.076 -0.2335 -0.1822 -0.1084
27707OCT     C155413  22.234  21.264  11.660  0.0750  0.1747 -0.2442
27707OCT     C255414  22.267  21.462  11.243  0.0469  0.0765  0.0622
27708OCT     C155415  19.865   2.371  21.949  0.2722  0.0814 -0.2912
27708OCT     C255416  19.599   2.101  22.219 -0.0573 -0.0904 -0.0540
27709OCT     C155417   9.632  12.419   9.062 -0.1022 -0.1823 -0.1953
27709OCT     C255418   9.670  12.709   8.754 -0.0914  0.0030  0.0708
27710OCT     C155419  11.007   3.604  11.202  0.0773 -0.1467 -0.0003
27710OCT     C255420  11.073   3.196  11.444 -0.1029  0.0396 -0.1568
27711OCT     C155421   4.358   0.386  12.323  0.1119  0.2960  0.0341
27711OCT     C255422   4.539  23.651  12.223 -0.1309  0.1042 -0.2274
27712OCT     C155423   7.207  11.268  11.444  0.0941 -0.1918  0.0390
27712OCT     C255424   7.207  11.486  11.829  0.1517  0.0136 -0.0096
27713OCT     C155425   9.007  22.831  12.611 -0.1280 -0.1119 -0.2180
27713OCT     C255426   9.103  23.208  12.334 -0.1310  0.0189  0.1472
27714OCT     C155427  20.392  23.244  11.550  0.1484  0.1028 -0.0088
27714OCT     C255428  20.780  23.501  11.614  0.0778 -0.4499 -0.0531
27715OCT     C155429   8.282   6.293  10.715 -0.3705  0.7064 -0.0886
27715OCT     C255430   8.090   5.831  10.737 -0.2979 -0.0505  0.0298
27716OCT     C155431  10.665   6.777   5.566  0.0407 -0.2471 -0.0496
27716OCT     C255432  11.006   6.789   5.899 -0.0572 -0.0293 -0.0750
27717OCT     C155433  21.819  20.773   5.870  0.0689 -0.2269 -0.0788
27717OCT     C255434  21.462  20.566   5.728 -0.0395 -0.2359  0.1459
27718OCT     C155435  10.356   1.746  10.452 -0.1993  0.3955  0.0557
27718OCT     C255436  10.017   2.024  10.227 -0.1441  0.3903 -0.1012
27719OCT     C155437  18.229   9.388   1.941  0.2733 -0.1920 -0.1454
27719OCT     C255438  17.941   9.031   2.116  0.2616  0.1185  0.0129
27720OCT     C155439  23.095  15.110   9.921  0.1059 -0.1984 -0.0329
27720OCT     C255440  23.138  15.391   9.532 -0.0577  0.0071  0.1329
27721OCT     C155441   9.540   8.830  23.573 -0.1198  0.0897  0.1681
27721OCT     C255442   9.349   9.126  23.255  0.0434 -0.0967 -0.1677
27722OCT     C155443  15.769  23.315  21.104 -0.3168 -0.2669  0.1147
27722OCT     C255444  15.584  22.930  21.363  0.3313  0.0161  0.2127
27723OCT     C155445   0.583  14.929  23.580 -0.0342 -0.2943 -0.1524
27723OCT     C255446   0.720  15.141   0.237  0.2865  0.0428  0.0791
27724OCT     C155447  12.419   5.044  19.028  0.2011  0.0596  0.0064
27724OCT     C255448  12.502   5.129  19.465  0.0637 -0.2806 -0.3784
27725OCT     C155449  14.292  18.979   2.386  0.0845 -0.4796 -0.0444
27725OCT     C255450  14.568  18.873   1.941  0.0074  0.0640 -0.0823
27726OCT     C155451  22.489   5.097   5.014 -0.0137  0.0549 -0.3446
27726OCT     C255452  22.119   4.897   4.858  0.3331  0.0837  0.1167
27727OCT     C155453   0.897  18.007   0.387  0.1207  0.0423  0.4549
27727OCT     C255454   0.404  17.926   0.446 -0.1944  0.1715 -0.3279
27728OCT     C155455  20.142   4.455  19.338 -0.1397  0.0940 -0.0255
27728OCT     C255456  20.517   4.774  19.363  0.8415  0.0363  0.0345
27729OCT     C155457   5.845   5.384  12.483  0.2480 -0.1021  0.0685
27729OCT     C255458   5.391   5.376  12.374  0.0223  0.0652  0.1427
27730OCT     C155459   5.555   3.232  18.796  0.1053 -0.3752  0.0789
27730OCT     C255460   6.010   3.182  18.576 -0.1745  0.2059  0.0991
27731OCT     C155461  13.254  23.288   7.561  0.0403  0.1335 -0.3819
27731OCT     C255462  13.456  22.954   7.239 -0.3657 -0.0251 -0.1412
27732OCT     C155463  15.753  12.207   1.118  0.3213 -0.1722  0.1831
27732OCT     C255464  16.128  12.150   0.893  0.3021  0.1143  0.3437
27733OCT     C155465  10.059   7.393  23.193 -0.5472  0.0924 -0.1200
27733OCT     C255466  10.270   7.171  23.560 -0.1638  0.2035  0.0187
27734OCT     C155467  14.489  23.475  12.116  0.1556  0.0808  0.1606
27734OCT     C255468  14.390  23.192  12.486  0.0595 -0.0775 -0.0252
27735OCT     C155469   1.118  12.198  20.080 -0.1476  0.2903 -0.2049
27735OCT     C255470   0.634  12.335  19.993 -0.2189  0.0820 -0.2069
27736OCT     C155471  20.714  14.375  15.366 -0.0544  0.4600  0.0039
27736OCT     C255472  21.009  14.733  15.215 -0.1433 -0.0037 -0.3146
27737OCT     C155473  13.451   7.076  19.625 -0.0186 -0.2011  0.0227
27737OCT     C255474  13.835   7.060  19.903 -0.2843 -0.1331  0.0200
27738OCT     C155475  10.601  16.417   9.200  0.1554 -0.1263  0.4786
27738OCT     C255476  10.810  16.216   8.841  0.1367  0.0525  0.0385
27739OCT     C155477  21.835   1.304   7.370  0.0577  0.4255 -0.3884
27739OCT     C255478  21.745   1.154   7.819  0.1536  0.1264  0.6050
27740OCT     C155479   1.043  20.058  13.268  0.0114  0.0549 -0.0167
27740OCT     C255480   0.902  20.003  12.807  0.0819  0.5608  0.2018
27741OCT     C155481  15.267  16.260   8.548  0.0625  0.0241  0.0124
27741OCT     C255482  15.195  16.537   8.922 -0.1459  0.0445 -0.1191
27742OCT     C155483  11.713  14.858  17.857  0.0530  0.3063  0.1313
27742OCT     C255484  11.979  14.513  17.751 -0.0619  0.1273 -0.5556
27743OCT     C155485   0.650  15.588  11.183 -0.1723 -0.0923  0.1373
27743OCT     C255486   0.782  15.750  10.778  0.2840  0.2299 -0.3101
27744OCT     C155487   4.764   8.677  12.764  0.2284 -0.1212 -0.1136
27744OCT     C255488   4.552   8.710  13.203 -0.2780  0.0897 -0.1101
27745OCT     C155489  16.399  21.462  13.930  0.1803  0.0140 -0.1937
27745OCT     C255490  16.532  21.424  14.353  0.1805 -0.2930 -0.2191
27746OCT     C155491  13.986   4.064  11.949  0.1254  0.3253 -0.0437
27746OCT     C255492  14.174   3.675  12.210  0.1112  0.1787  0.4419
27747OCT     C155493   8.489   4.315  13.740 -0.0050  0.0997  0.1269
27747OCT     C255494   8.296   3.981  13.423  0.3237  0.1460  0.0273
27748OCT     C155495   7.648  12.188  11.651  0.0027 -0.1231 -0.0664
27748OCT     C255496   7.192  12.328  11.777  0.2182  0.1727  0.1351
27749OCT     C155497  10.600   5.380   8.602 -0.0616 -0.1125 -0.4093
27749OCT     C255498  10.119   5.321   8.772 -0.0929 -0.3188  0.0197
27750OCT     C155499  11.350   9.070   6.089  0.0885 -0.1046 -0.2003
27750OCT     C255500  11.391   8.713   6.377 -0.1448  0.1691 -0.3504
27751OCT     C155501   8.808  11.295   9.676  0.1192  0.0778 -0.1766
27751OCT     C255502   9.004  11.157   9.260 -0.0134 -0.1358  0.0086
27752OCT     C155503   8.175  22.870   3.164  0.0146 -0.2134 -0.1185
27752OCT     C255504   8.492  22.547   3.298  0.0478 -0.2176  0.0662
27753OCT     C155505   0.378  18.341  16.201  0.3497 -0.0881 -0.0150
27753OCT     C255506   0.391  18.070  16.587  0.1087  0.1564  0.1276
27754OCT     C155507  18.833  21.649   2.305 -0.4689 -0.0146 -0.1045
27754OCT     C255508  18.657  21.659   1.901 -0.0043 -0.2723  0.0069
27755OCT     C155509   4.015  18.170  15.474  0.0151  0.0001  0.1618
27755OCT     C255510   3.924  18.348  15.890 -0.3896  0.4516 -0.0700
27756OCT     C155511   5.713  23.280   4.349 -0.2201  0.2510 -0.1625
27756OCT     C255512   5.268  23.085   4.357 -0.3181  0.1671  0.0585
27757OCT     C155513  12.830   7.227  17.562  0.1074 -0.0214 -0.0121
27757OCT     C255514  13.156   7.514  17.720 -0.0140 -0.0872 -0.0289
27758OCT     C155515  16.653   8.683  20.310 -0.0769 -0.0656  0.2784
27758OCT     C255516  16.338   8.999  20.471  0.3970  0.1550  0.2565
27759OCT     C155517  14.442  23.186   2.169  0.0119  0.4180 -0.1639
27759OCT     C255518  14.309  23.467   2.545  0.1647  0.1053 -0.0254
27760OCT     C155519   2.926  10.976  13.741  0.2718  0.0602  0.0707
27760OCT     C255520   3.380  10.927  13.956  0.2001 -0.3941  0.3652
27761OCT     C155521  20.235  16.673  14.529 -0.3056  0.0277 -0.0688
27761OCT     C255522  20.359  17.069  14.834  0.0749 -0.2011 -0.1417
27762OCT     C155523  18.175   6.912  17.814 -0.0594  0.0891  0.0174
27762OCT     C255524  18.556   7.185  18.048  0.1941  0.3208  0.3740
27763OCT     C155525   7.137  19.509   2.641 -0.1065  0.1154  0.0762
27763OCT     C255526   7.108  19.445   2.225  0.2803  0.0026  0.1075
27764OCT     C155527   9.767   1.210  11.065  0.0941  0.0811 -0.3158
27764OCT     C255528   9.697   1.058  11.497 -0.1299 -0.0679 -0.6480
27765OCT     C155529  15.406   5.947   0.565  0.0671 -0.2311 -0.0451
27765OCT     C255530  15.847   5.852   0.345 -0.3834  0.1276  0.0910
27766OCT     C155531  12.077  22.282  14.321 -0.2112 -0.1124 -0.0472
27766OCT     C255532  12.252  21.873  14.142 -0.4145 -0.1471 -0.0099
27767OCT     C155533  12.279  12.534   1.450 -0.0529 -0.3252 -0.1790
27767OCT     C255534  12.523  12.715   1.762 -0.0693 -0.3164  0.0490
27768OCT     C155535  17.970  13.207  14.365  0.0264  0.1401 -0.3452
27768OCT     C255536  17.601  13.401  14.231  0.1766 -0.2313  0.0314
27769OCT     C155537  22.468  12.821  22.615  0.1852  0.1065  0.5502
27769OCT     C255538  22.828  13.054  22.524  0.0302  0.4083 -0.0128
27770OCT     C155539   6.199  13.475  22.441 -0.2288 -0.1159  0.5744
27770OCT     C255540   6.017  13.866  22.206 -0.2371  0.5030 -0.0450
27771OCT     C155541  15.393   0.893  14.405  0.0306  0.2085 -0.2544
27771OCT     C255542  15.108   1.225  14.123 -0.2738 -0.2631 -0.1101
27772OCT     C155543  11.080  13.995  11.715 -0.0299  0.1248  0.2091
27772OCT     C255544  10.914  13.668  11.462 -0.2805  0.3976 -0.1335
27773OCT     C155545  14.379  22.432  10.903  0.1236 -0.2496  0.2193
27773OCT     C255546  14.453  22.163  10.490 -0.1451 -0.1081  0.1151
27774OCT     C155547   7.965  17.452   2.753 -0.0330 -0.0287  0.0484
27774OCT     C255548   8.036  17.768   3.068  0.0894 -0.2475  0.2023
27775OCT     C155549  12.611   9.440  13.111 -0.3357  0.1331  0.2140
27775OCT     C255550  13.045   9.410  13.264 -0.1956 -0.1875 -0.2654
27776OCT     C155551  20.485  21.823   9.427  0.2030 -0.1206  0.4228
27776OCT     C255552  20.151  21.923   9.789 -0.2005 -0.1146  0.1046
27777OCT     C155553  23.057  11.490   7.317 -0.0527  0.1093  0.0784
27777OCT     C255554  23.136  11.252   7.762 -0.1520 -0.2195  0.0793
27778OCT     C155555  14.078   3.060  20.988  0.0768 -0.0204 -0.1574
27778OCT     C255556  14.283   2.790  21.337  0.0692 -0.2000  0.2365
27779OCT     C155557  23.519   6.288  13.674 -0.3469 -0.1335 -0.1307
27779OCT     C255558   0.043   6.508  13.369  0.2829 -0.2679  0.1415
27780OCT     C155559  15.728   2.415   9.484  0.2180  0.0281 -0.0129
27780OCT     C255560  15.620   2.847   9.541 -0.1622 -0.2619 -0.0134
27781OCT     C155561   0.870   4.445  14.311 -0.0996 -0.0075 -0.3512
27781OCT     C255562   0.548   4.373  14.643 -0.2136  0.2691 -0.0830
27782OCT     C155563  19.271  17.343   3.801 -0.0008  0.2168  0.0762
27782OCT     C255564  19.647  17.556   3.609  0.0478 -0.1758 -0.1320
27783OCT     C155565  17.059   8.155  17.414 -0.1787  0.0678  0.2676
27783OCT     C255566  16.682   7.927  17.273  0.1492 -0.2318  0.0881
27784OCT     C155567  14.302  20.856  20.417 -0.0025  0.0574  0.0495
27784OCT     C255568  14.239  21.258  20.647  0.2351  0.3098  0.0165
27785OCT     C155569  10.185  22.992   9.777  0.2720  0.0022 -0.2251
27785OCT     C255570  10.256  22.748   9.375  0.1530 -0.3116  0.2342
27786OCT     C155571   0.913   4.000  16.728  0.1212 -0.0655 -0.1848
27786OCT     C255572   0.512   4.024  16.515 -0.0096  0.0746  0.3346
27787OCT     C155573  19.939   0.062  22.556  0.2038  0.3057 -0.2317
27787OCT     C255574  20.074   0.422  22.856 -0.2177  0.1378 -0.2347
27788OCT     C155575  17.746  17.923  17.395 -0.2464 -0.0923  0.4435
27788OCT     C255576  17.874  18.116  16.986 -0.1894  0.1261  0.0938
27789OCT     C155577  10.689  14.315  13.882 -0.0340 -0.1457 -0.2912
27789OCT     C255578  10.510  14.707  14.129 -0.3167  0.0790 -0.3646
27790OCT     C155579  15.726  17.726   8.155  0.0621  0.0447 -0.1303
27790OCT     C255580  15.330  17.994   8.122  0.1720 -0.0905 -0.0478
27791OCT     C155581  17.818   0.989  21.529 -0.0982 -0.0319 -0.2201
27791OCT     C255582  17.942   1.344  21.741  0.1059  0.2973 -0.0232
27792OCT     C155583  21.950  21.939  20.502  0.0155 -0.0289  0.0227
27792OCT     C255584  22.202  22.033  20.138  0.0219 -0.1548 -0.4364
27793OCT     C155585   4.108  10.246   1.598 -0.0205  0.4119  0.0393
27793OCT     C255586   3.720  10.458   1.620 -0.0416  0.2117 -0.0087
27794OCT     C155587  16.777  16.460   3.538  0.0134  0.1328  0.0706
27794OCT     C255588  17.138  16.687   3.432  0.1728 -0.1880  0.1000
27795OCT     C155589  12.108   1.822  18.202  0.2980 -0.2532 -0.0912
27795OCT     C255590  12.423   1.659  18.537 -0.0048  0.1671 -0.4087
27796OCT     C155591  21.533   5.555  12.692 -0.2215 -0.1213 -0.2305
27796OCT     C255592  21.703   5.288  12.313 -0.0312  0.1748  0.4557
27797OCT     C155593   9.853   2.235   8.759 -0.3645  0.1517  0.2733
27797OCT     C255594  10.072   2.632   8.846  0.0703  0.1351  0.0943
27798OCT     C155595   5.050  10.896  23.427 -0.2502 -0.0046 -0.0465
27798OCT     C255596   5.357  10.656  23.731 -0.1266  0.0108  0.0166
27799OCT     C155597   1.052  15.319  22.237 -0.0502  0.0525  0.1594
27799OCT     C255598   1.162  15.695  21.975 -0.0524  0.0291  0.2262
27800OCT     C155599   8.863  10.288   8.477 -0.1543  0.2199 -0.3095
27800OCT     C255600   8.779  10.764   8.325 -0.2734 -0.1176  0.2201
27801OCT     C155601  21.956   3.661  18.481  0.1500  0.1928  0.4210
27801OCT     C255602  22.293   3.598  18.182 -0.3537 -0.3508  0.0657
27802OCT     C155603  20.046   4.042   8.827  0.3374 -0.1348 -0.1578
27802OCT     C255604  19.610   3.962   8.799 -0.1340  0.4641 -0.0865
27803OCT     C155605   0.636  22.075  16.996 -0.1017 -0.0386  0.1243
27803OCT     C255606   1.034  22.347  17.164 -0.4803  0.0522  0.1892
27804OCT     C155607  14.046  13.623  18.236 -0.0920 -0.3937  0.0812
27804OCT     C255608  14.471  13.552  18.442 -0.2386  0.0844  0.2386
27805OCT     C155609  19.895  21.819   5.413  0.3300  0.0173  0.1125
27805OCT     C255610  20.068  21.428   5.155  0.4146  0.2573  0.0725
27806OCT     C155611  14.629  13.483  22.365  0.2139  0.1962  0.3207
27806OCT     C255612  14.164  13.489  22.528  0.0234  0.3526 -0.0853
27807OCT     C155613  20.903  12.944  15.890 -0.3868 -0.1313 -0.0404
27807OCT     C255614  20.580  13.279  16.013 -0.2379 -0.3519 -0.0956
27808OCT     C155615   0.053   4.021   4.300 -0.0265 -0.0828 -0.3995
27808OCT     C255616   0.176   4.342   3.935  0.1067 -0.0711  0.1705
27809OCT     C155617  15.766  11.005  16.399  0.1829 -0.0169 -0.2649
27809OCT     C255618  16.124  10.848  16.659 -0.0294  0.1268 -0.0886
27810OCT     C155619  20.328   8.592  17.193  0.2576 -0.1383 -0.0275
27810OCT     C255620  19.879   8.595  17.104  0.0621 -0.2215  0.2903
27811OCT     C155621  19.033  19.087   5.141  0.0969  0.0717  0.0863
27811OCT     C255622  19.139  19.193   5.535 -0.0575 -0.3922  0.1280
27812OCT     C155623  14.229  21.191  11.184  0.0453  0.1679 -0.2041
27812OCT     C255624  13.896  21.395  11.469  0.1131 -0.1422  0.2075
27813OCT     C155625  20.824   5.706  13.862  0.3123  0.4983 -0.1966
27813OCT     C255626  20.928   5.798  14.377 -0.2787 -0.0785 -0.1167
27814OCT     C155627   6.991  18.111   9.178  0.0064  0.5241  0.1204
27814OCT     C255628   6.800  18.466   9.036  0.3448 -0.2153  0.1171
27815OCT     C155629   6.322  13.815   6.018 -0.1912 -0.4061  0.1373
27815OCT     C255630   6.273  13.506   5.717  0.0363  0.3201 -0.2611
27816OCT     C155631  18.518  15.648   8.636 -0.2663 -0.1184 -0.1727
27816OCT     C255632  18.434  15.739   8.204 -0.1009 -0.2522  0.0533
27817OCT     C155633  14.990   2.210   7.587  0.1396 -0.1249  0.1954
27817OCT     C255634  15.065   1.816   7.837  0.2295 -0.2901 -0.2179
27818OCT     C155635   1.494  17.600  18.766 -0.3402 -0.2103  0.0077
27818OCT     C255636   1.282  18.030  18.575 -0.1941  0.0052 -0.0165
27819OCT     C155637  12.956  10.180  11.061 -0.1175 -0.2071 -0.2413
27819OCT     C255638  12.773   9.791  11.189  0.0699 -0.1801  0.4367
27820OCT     C155639  10.242   8.775  13.984 -0.1764  0.0141 -0.0075
27820OCT     C255640  10.489   8.521  13.719  0.4636  0.2915 -0.1216
27821OCT     C155641  12.140  18.787  16.533  0.0440  0.0258 -0.2592
27821OCT     C255642  12.217  18.636  16.099  0.1745  0.0082  0.0988
27822OCT     C155643  13.347  22.595  21.558  0.0868  0.0398 -0.0761
27822OCT     C255644  13.263  22.726  22.006  0.1219 -0.4983  0.2983
27823OCT     C155645   3.333  16.269  22.262  0.2834 -0.0563 -0.4529
27823OCT     C255646   3.594  16.452  21.877  0.0918 -0.2232 -0.0662
27824OCT     C155647  20.184  19.287  15.649 -0.1551  0.1924  0.8190
27824OCT     C255648  19.840  19.532  15.498  0.0978  0.0041 -0.3599
27825OCT     C155649  21.674  13.459  21.912  0.0425  0.0998  0.1390
27825OCT     C255650  21.300  13.674  22.077  0.1129 -0.3534 -0.1444
27826OCT     C155651  14.792   3.123   0.528 -0.0543  0.0027 -0.0110
27826OCT     C255652  14.717   2.623   0.475 -0.3498  0.1848  0.0179
27827OCT     C155653  16.794  13.729  14.003 -0.0911  0.1705  0.0710
27827OCT     C255654  16.354  13.478  14.062 -0.4810  0.1785  0.2610
27828OCT     C155655   7.485   7.909  18.847  0.3989 -0.2598  0.0083
27828OCT     C255656   7.127   8.151  18.740 -0.0929 -0.3264 -0.3677
27829OCT     C155657  10.967  12.784   6.971 -0.0973 -0.0340  0.1164
27829OCT     C255658  11.308  13.093   6.890 -0.0923  0.0836  0.0476
27830OCT     C155659   2.529   7.503   7.425  0.0896 -0.0428  0.0031
27830OCT     C255660   2.528   7.944   7.232  0.1377 -0.0932  0.2178
27831OCT     C155661  22.558   3.624  21.764  0.4683  0.3976  0.1649
27831OCT     C255662  22.889   3.503  21.515 -0.2073 -0.1660  0.1962
27832OCT     C155663   5.777   6.810  14.582  0.1513  0.3546 -0.1588
27832OCT     C255664   6.166   6.650  14.375  0.1533  0.2221 -0.0445
27833OCT     C155665   1.576  12.105  20.441  0.0714  0.0789  0.1555
27833OCT     C255666   1.930  12.072  20.692  0.1074  0.0009  0.1964
27834OCT     C155667  17.179   1.203  21.236 -0.0662  0.4501  0.0065
27834OCT     C255668  16.740   1.259  21.071  0.3985  0.2134  0.2567
27835OCT     C155669  18.360  15.584  14.014 -0.4829  0.1665 -0.0231
27835OCT     C255670  18.054  15.566  13.713  0.1816  0.3358 -0.2960
27836OCT     C155671   1.456  20.247  11.457  0.0082 -0.0660 -0.3842
27836OCT     C255672   1.637  19.882  11.178  0.0026 -0.0223 -0.5716
27837OCT     C155673   4.015  17.862   2.147  0.0242  0.1461 -0.0679
27837OCT     C255674   3.655  17.930   1.870 -0.3603 -0.3691  0.0101
27838OCT     C155675  10.651  21.711  12.758  0.0509 -0.3134  0.0406
27838OCT     C255676  10.450  21.330  12.482 -0.2091  0.0258 -0.3191
27839OCT     C155677   1.692   2.247   3.304  0.3475  0.4323 -0.3374
27839OCT     C255678   1.635   1.799   3.293 -0.2325 -0.0573 -0.0665
27840OCT     C155679  18.847   9.927  12.164  0.2547  0.2096  0.0201
27840OCT     C255680  18.573  10.350  12.113 -0.1806 -0.0575 -0.2371
27841OCT     C155681   1.500  21.085   7.519 -0.4092  0.0232  0.0795
27841OCT     C255682   1.051  21.131   7.616  0.0973  0.1423  0.2094
27842OCT     C155683  11.374  20.687   5.701  0.0934  0.0314 -0.0657
27842OCT     C255684  11.777  20.851   5.843 -0.0031  0.0566  0.2835
27843OCT     C155685  14.636   9.581   5.817  0.2382  0.2802  0.0435
27843OCT     C255686  14.992   9.845   5.996 -0.0943 -0.4973  0.0180
27844OCT     C155687  19.847  12.154  13.152  0.2997 -0.2323 -0.1679
27844OCT     C255688  19.550  12.472  13.423 -0.2389  0.1506  0.2516
27845OCT     C155689  18.945   6.655   5.782  0.2682 -0.1129 -0.3957
27845OCT     C255690  18.768   6.922   5.433 -0.0444  0.1704  0.2163
27846OCT     C155691  14.287   1.196  23.209  0.1001  0.0645  0.0439
27846OCT     C255692  13.795   1.195  23.190 -0.1246 -0.0693 -0.3784
27847OCT     C155693   0.261  18.979  10.570 -0.0855  0.0471  0.3258
27847OCT     C255694  23.577  18.934  10.761  0.1097 -0.0551 -0.1319
27848OCT     C155695   7.039  13.935   8.527  0.4800  0.1621  0.2517
27848OCT     C255696   6.927  13.471   8.540  0.0934  0.2222 -0.1582
27849OCT     C155697  13.906   6.425  22.954 -0.3796 -0.1292  0.1440
27849OCT     C255698  14.357   6.351  23.108  0.2341 -0.0320 -0.0020
27850OCT     C155699  14.164  21.952   1.980  0.0125  0.0726  0.0482
27850OCT     C255700  14.090  21.904   2.435  0.5051 -0.1444 -0.2233
27851OCT     C155701  14.992   6.245  20.542 -0.3229 -0.0525  0.1525
27851OCT     C255702  14.539   6.381  20.466  0.1481  0.1159  0.0499
27852OCT     C155703   2.308   3.125  23.707 -0.4768 -0.0945 -0.0350
27852OCT     C255704   1.934   2.937  23.522 -0.3620  0.5907 -0.1100
27853OCT     C155705   4.293  22.629  20.615  0.1491 -0.3000  0.1009
27853OCT     C255706   4.461  23.025  20.650  0.0509 -0.0523 -0.2292
27854OCT     C155707  12.814  21.913  18.767 -0.0917 -0.1669  0.1666
27854OCT     C255708  12.527  21.674  18.475  0.0818  0.1443 -0.0229
27855OCT     C155709   9.643   6.172  15.836  0.0114  0.1407 -0.2063
27855OCT     C255710  10.067   6.235  15.970 -0.2241  0.1361  0.1911
27856OCT     C155711   6.682   7.848   6.212 -0.1503 -0.1526 -0.0160
27856OCT     C255712   6.972   7.685   6.554  0.3211 -0.1321 -0.2544
27857OCT     C155713  14.513   7.554  20.093 -0.1758  0.2242 -0.1357
27857OCT     C255714  14.456   7.454  20.544 -0.1700 -0.1231 -0.0882
27858OCT     C155715   5.840  15.642  16.366 -0.0638  0.0183 -0.0299
27858OCT     C255716   5.682  15.515  15.931 -0.1669  0.2994  0.1351
27859OCT     C155717  14.919  16.125   8.991 -0.3167 -0.1263 -0.1945
27859OCT     C255718  15.107  15.805   9.283  0.0625  0.0771 -0.1358
27860OCT     C155719  19.970  16.671  16.968 -0.2002  0.3211 -0.2193
27860OCT     C255720  20.387  16.723  17.160  0.3659 -0.1740  0.2227
27861OCT     C155721   7.768   5.636   1.539  0.0289 -0.0522  0.4366
27861OCT     C255722   7.513   5.682   1.115  0.1602  0.6459 -0.1927
27862OCT     C155723  14.575  10.266  18.397 -0.0160 -0.5456 -0.1956
27862OCT     C255724  14.383  10.679  18.476 -0.0436 -0.3345 -0.1757
27863OCT     C155725  11.571  19.782  20.589  0.0143  0.0073  0.1358
27863OCT     C255726  11.829  19.832  20.218 -0.1020  0.0504 -0.0570
27864OCT     C155727   8.119   5.859   3.835  0.1298  0.0175  0.1111
27864OCT     C255728   7.766   5.752   3.572 -0.2757 -0.1035 -0.0413
27865OCT     C155729   1.614  20.019   2.891  0.1966 -0.0626 -0.0837
27865OCT     C255730   1.566  20.449   3.038 -0.0369  0.0066  0.2583
27866OCT     C155731   5.783   6.837   8.903  0.0809 -0.0858  0.1004
27866OCT     C255732   6.142   6.956   8.603  0.1980 -0.5099 -0.3174
27867OCT     C155733  20.172  14.674  23.603  0.0460  0.0526  0.0590
27867OCT     C255734  19.906  14.567   0.290  0.0304  0.0498  0.3599
27868OCT     C155735   4.354  21.559  11.803 -0.1668  0.1338  0.1022
27868OCT     C255736   4.188  21.972  11.857 -0.2889  0.1712  0.1395
27869OCT     C155737  12.869   3.287  15.536  0.0867 -0.1481  0.1087
27869OCT     C255738  13.268   3.138  15.309 -0.2816  0.2236 -0.0009
27870OCT     C155739   0.114   3.065  22.791  0.0036  0.0846  0.3260
27870OCT     C255740  23.529   2.741  22.656 -0.2167  0.0685 -0.0183
27871OCT     C155741  11.418   1.536   5.237 -0.1294  0.1432  0.1127
27871OCT     C255742  11.007   1.319   5.117 -0.2029  0.0163 -0.1590
27872OCT     C155743   4.542  20.607   6.690  0.0759 -0.0791 -0.0509
27872OCT     C255744   4.443  20.134   6.642  0.4295  0.0240 -0.2604
27873OCT     C155745  17.914   8.758   1.064  0.2286 -0.1224 -0.3534
27873OCT     C255746  17.805   8.344   1.222  0.2211  0.1546 -0.4491
27874OCT     C155747   0.577  13.571   0.800 -0.0433  0.3444  0.1938
27874OCT     C255748   0.501  13.322   0.412 -0.1577  0.1563 -0.2874
27875OCT     C155749  18.949  10.442  12.369 -0.5117  0.0120 -0.1063
27875OCT     C255750  19.395  10.477  12.411  0.4662 -0.0245 -0.2758
27876OCT     C155751  14.942  16.450   2.723 -0.1916  0.2065 -0.1747
27876OCT     C255752  15.245  16.502   2.326  0.2210 -0.3475  0.0827
27877OCT     C155753  12.619   9.687   2.214  0.1353 -0.1001 -0.1850
27877OCT     C255754  13.016   9.549   2.338 -0.0662 -0.1793 -0.1922
27878OCT     C155755  12.124   4.483   9.080 -0.3161  0.0626  0.1383
27878OCT     C255756  12.421   4.538   8.745 -0.2738 -0.1563  0.1705
27879OCT     C155757   1.464   0.090   4.359  0.0035  0.0578 -0.2468
27879OCT     C255758   1.870   0.371   4.301  0.1437  0.2714  0.0311
27880OCT     C155759   0.347  21.239  13.424  0.0676  0.1620 -0.3325
27880OCT     C255760   0.186  20.816  13.544  0.0084  0.1655  0.0060
27881OCT     C155761   4.783  11.704  19.542  0.0514  0.2207 -0.1159
27881OCT     C255762   4.629  11.840  19.108 -0.0202  0.1306 -0.0339
27882OCT     C155763  16.558   6.194   3.675  0.1939 -0.3134  0.4415
27882OCT     C255764  16.149   6.148   3.855 -0.1272  0.1128 -0.2811
27883OCT     C155765   3.254   3.297  16.496  0.0949 -0.4920 -0.2661
27883OCT     C255766   3.068   2.976  16.286 -0.1001  0.2519 -0.2940
27884OCT     C155767   0.637  16.952   2.689  0.0013  0.0127 -0.0055
27884OCT     C255768   0.572  16.761   3.119 -0.0925  0.3070 -0.2078
27885OCT     C155769  18.170  21.827  17.953 -0.0013 -0.1031 -0.2114
27885OCT     C255770  17.689  21.896  18.080 -0.0715  0.0688 -0.1549
27886OCT     C155771  14.055  20.420   3.275 -0.0982 -0.1637 -0.2532
27886OCT     C255772  14.181  20.501   3.712 -0.0380  0.2074 -0.0699
27887OCT     C155773   9.946  14.542  16.303  0.2293  0.0102 -0.3681
27887OCT     C255774  10.261  14.209  16.433  0.2381 -0.1206 -0.1204
27888OCT     C155775  21.283   1.111   7.572  0.0752  0.0299 -0.2526
27888OCT     C255776  21.343   0.892   7.997 -0.0646  0.0575 -0.0338
27889OCT     C155777   1.850   4.978  22.285 -0.1700  0.0035  0.0543
27889OCT     C255778   2.017   4.587  22.520 -0.3820  0.0414 -0.2075
27890OCT     C155779  14.848   6.557  21.068  0.1091  0.0481 -0.2186
27890OCT     C255780  14.671   6.259  21.366  0.0667  0.0868 -0.0480
27891OCT     C155781  23.356   1.220  10.083 -0.3404  0.0114 -0.0309
27891OCT     C255782  23.026   0.865  10.259 -0.4830 -0.0088  0.0664
27892OCT     C155783   8.346  17.840  11.915 -0.0366 -0.0938 -0.0622
27892OCT     C255784   8.591  17.527  11.637 -0.1296 -0.0497 -0.0979
27893OCT     C155785   6.578  23.414  15.449 -0.0695  0.0875  0.3220
27893OCT     C255786   6.636   0.029  15.126 -0.1533 -0.0053  0.2212
27894OCT     C155787   7.187  23.345  10.017  0.1767  0.0428 -0.0182
27894OCT     C255788   6.839  23.660   9.852  0.1520  0.1682 -0.0938
27895OCT     C155789  12.532   9.904   5.498 -0.1394  0.0344 -0.1761
27895OCT     C255790  12.997   9.802   5.544  0.4816  0.0655 -0.0557
27896OCT     C155791  14.148   2.847   2.366  0.1117 -0.3647  0.2042
27896OCT     C255792  14.302   3.259   2.199 -0.1723 -0.1457 -0.0195
27897OCT     C155793   7.504  20.077   4.128  0.2612 -0.0782 -0.2362
27897OCT     C255794   7.922  20.146   3.973 -0.3275  0.1285 -0.1481
27898OCT     C155795  18.421   2.822  13.554  0.2391 -0.0291  0.1593
27898OCT     C255796  18.123   3.135  13.712 -0.2235  0.0601  0.1763
27899OCT     C155797   7.124  20.040  15.969  0.1119 -0.0288 -0.2642
27899OCT     C255798   7.292  20.247  15.636  0.1280 -0.2181 -0.0227
27900OCT     C155799  14.985  11.258  17.202 -0.0723 -0.3622 -0.2504
27900OCT     C255800  14.893  11.696  17.368 -0.1400  0.0918 -0.2631
27901OCT     C155801  10.538  12.482   5.123  0.6003 -0.1729  0.0867
27901OCT     C255802  10.418  12.946   5.188 -0.1599 -0.2295 -0.1161
27902OCT     C155803  16.705   2.756  19.050  0.3165  0.1809 -0.3690
27902OCT     C255804  16.468   2.354  19.109  0.0988  0.0476  0.0010
27903OCT     C155805   2.030   4.258  17.573  0.1821 -0.3841 -0.1113
27903OCT     C255806   2.091   4.115  18.028 -0.0948  0.0719 -0.0144
27904OCT     C155807  23.063   9.564  23.663  0.2477  0.1063  0.0002
27904OCT     C255808  22.943   9.989  23.739  0.0922 -0.3486  0.1994
27905OCT     C155809  21.826  23.687  17.860 -0.3669  0.1943 -0.0212
27905OCT     C255810  21.921  23.609  18.312 -0.0611  0.1136  0.2815
27906OCT     C155811  23.346   6.663   6.412  0.0751  0.0462 -0.2504
27906OCT     C255812  23.441   7.051   6.221  0.2044 -0.4560  0.1570
27907OCT     C155813  23.199  22.535   3.457  0.2325 -0.1680 -0.0378
27907OCT     C255814  23.233  22.460   3.016 -0.0128 -0.1137  0.0955
27908OCT     C155815  10.803   9.124  15.780 -0.2122  0.0545  0.2009
27908OCT     C255816  10.743   8.839  16.191  0.2585 -0.1412  0.2708
27909OCT     C155817  13.893   4.945   6.692 -0.2300  0.1325 -0.0514
27909OCT     C255818  13.854   5.304   6.474 -0.0333  0.3981  0.4805
27910OCT     C155819  12.753  14.215  19.673 -0.0134  0.0647  0.1637
27910OCT     C255820  12.524  13.791  19.717 -0.2803  0.0576 -0.1025
27911OCT     C155821  22.613  19.879  22.099  0.0460  0.0303  0.2296
27911OCT     C255822  22.575  20.276  21.902  0.0163  0.2047 -0.2308
27912OCT     C155823  10.463  13.976  20.245  0.1003 -0.0199 -0.1541
27912OCT     C255824  10.739  13.523  20.215  0.1135  0.1590  0.1517
27913OCT     C155825  23.641   0.810   7.312 -0.0411  0.0912  0.0010
27913OCT     C255826   0.088   0.377   7.257  0.2213  0.2175 -0.1597
27914OCT     C155827   2.094  16.209   1.050 -0.3860 -0.1772  0.1580
27914OCT     C255828   1.747  16.400   0.783  0.2325  0.1550  0.1493
27915OCT     C155829  10.706   5.232   2.865 -0.2091  0.0371  0.1720
27915OCT     C255830  10.476   5.526   2.637  0.1679  0.6773  0.0690
27916OCT     C155831  20.190   0.801  22.298  0.0674 -0.2406  0.0756
27916OCT     C255832  20.063   0.829  21.850 -0.3736 -0.2368  0.2049
27917OCT     C155833  21.165  16.311   3.040 -0.0253  0.2272  0.5002
27917OCT     C255834  21.326  15.973   2.785  0.0955 -0.2703  0.2103
27918OCT     C155835   5.096   9.918  10.232 -0.3442 -0.2046  0.5501
27918OCT     C255836   4.834   9.984   9.828 -0.0536 -0.1754 -0.1999
27919OCT     C155837  16.798   2.411  13.080 -0.1939 -0.3926 -0.1920
27919OCT     C255838  16.897   1.970  13.205 -0.4916  0.2690  0.0078
27920OCT     C155839  18.255  13.906   7.573 -0.2101 -0.0021  0.1715
27920OCT     C255840  18.482  14.113   7.849  0.1188  0.0140 -0.2616
27921OCT     C155841   3.266  20.966  11.777  0.0516  0.2165 -0.1438
27921OCT     C255842   3.476  21.251  11.484  0.2142  0.3421 -0.0382
27922OCT     C155843  12.299   6.994  12.383 -0.1591  0.0520  0.1348
27922OCT     C255844  12.457   6.742  12.021  0.1208  0.0821 -0.0312
27923OCT     C155845   6.515  10.217  17.129  0.0582 -0.0956  0.1695
27923OCT     C255846   6.824  10.104  17.498 -0.2138  0.0259 -0.1734
27924OCT     C155847   6.370   7.416  18.107  0.2582  0.1178 -0.1808
27924OCT     C255848   5.958   7.540  18.014  0.0310 -0.1396  0.2349
27925OCT     C155849  22.080  12.075  17.442 -0.2054 -0.3830  0.2967
27925OCT     C255850  21.859  12.164  17.852 -0.0543  0.1023 -0.2804
27926OCT     C155851  23.010   9.777  12.564 -0.0010 -0.1255 -0.2197
27926OCT     C255852  22.784   9.342  12.495  0.1846  0.2159  0.0950
27927OCT     C155853   6.852  20.191  13.684 -0.1886  0.0769  0.1825
27927OCT     C255854   6.535  20.503  13.471  0.3444 -0.3057 -0.2748
27928OCT     C155855  21.510  20.630   3.770 -0.0914  0.0727 -0.1041
27928OCT     C255856  21.804  20.689   3.377  0.0129  0.0044  0.2459
27929OCT     C155857  16.409  18.084  22.203  0.3238  0.1332 -0.1717
27929OCT     C255858  16.760  17.767  22.266 -0.1084  0.0211  0.0509
27930OCT     C155859   8.429   1.939   4.880  0.0004  0.0336 -0.0863
27930OCT     C255860   8.660   2.388   4.919 -0.1447  0.0671 -0.3787
27931OCT     C155861   8.658  14.095   8.475  0.2394 -0.0380 -0.0887
27931OCT     C255862   8.733  14.236   8.918 -0.0631 -0.2062  0.1840
27932OCT     C155863   0.027  21.393   8.816  0.0750  0.0160  0.2337
27932OCT     C255864  23.555  21.526   8.467  0.0990  0.1029 -0.2589
27933OCT     C155865   5.879   2.013   9.685  0.4083  0.1614 -0.3607
27933OCT     C255866   5.490   2.023   9.416  0.1643 -0.1881 -0.0195
27934OCT     C155867  13.530   3.576   7.835 -0.1834 -0.1751  0.2412
27934OCT     C255868  13.411   3.156   7.970  0.0701  0.0798  0.2583
27935OCT     C155869   3.286  18.235   0.504  0.2956 -0.2807 -0.1345
27935OCT     C255870   2.880  18.146   0.349 -0.3230 -0.0101  0.1191
27936OCT     C155871  13.774   8.211  19.095  0.1216  0.3162  0.0997
27936OCT     C255872  14.211   8.064  18.970 -0.2421 -0.4338 -0.3008
27937OCT     C155873   6.155  17.674  19.349  0.0693 -0.0775 -0.0475
27937OCT     C255874   5.864  17.946  19.114 -0.0034  0.1599  0.0046
27938OCT     C155875   9.479   0.218  21.920  0.3545 -0.0894  0.3020
27938OCT     C255876   9.136   0.111  21.554  0.0213 -0.0912  0.0100
27939OCT     C155877  19.367   8.323  21.059 -0.1902 -0.1066 -0.3312
27939OCT     C255878  19.627   8.567  20.761 -0.1425 -0.0756 -0.0802
27940OCT     C155879   1.321  13.982   2.853  0.0933  0.3243  0.0265
27940OCT     C255880   1.221  13.597   2.562 -0.2922 -0.1326 -0.2206
27941OCT     C155881  10.460   4.372  22.378  0.1261 -0.5627 -0.1046
27941OCT     C255882  10.080   4.528  22.562 -0.1957 -0.0472  0.1174
27942OCT     C155883  19.044  15.911  20.350 -0.0246  0.2935 -0.0969
27942OCT     C255884  18.865  15.682  20.685  0.0302 -0.4732 -0.1616
27943OCT     C155885  19.720   4.364   4.331  0.5205  0.0928  0.5045
27943OCT     C255886  19.815   3.976   4.496 -0.1267 -0.2606 -0.2461
27944OCT     C155887  20.260   9.381  22.100  0.1623  0.0310 -0.0021
27944OCT     C255888  20.634   9.336  22.347 -0.4378 -0.3386  0.3683
27945OCT     C155889  21.586  22.238  16.508 -0.2248  0.1646 -0.0208
27945OCT     C255890  21.395  22.460  16.089  0.0232  0.2315 -0.0055
27946OCT     C155891   1.175  15.104  23.553  0.1976 -0.0007 -0.2264
27946OCT     C255892   0.861  15.430  23.525  0.0161  0.1331 -0.3707
27947OCT     C155893  19.217  15.378  20.000  0.0579 -0.2709  0.0127
27947OCT     C255894  18.780  15.429  20.175 -0.0757 -0.2461  0.0068
27948OCT     C155895  11.974   4.454   9.984 -0.3533  0.1277 -0.1253
27948OCT     C255896  11.646   4.832  10.118 -0.1809  0.0010 -0.0017
27949OCT     C155897  16.954  17.739  12.036 -0.3393  0.0031 -0.1872
27949OCT     C255898  16.491  17.592  11.819 -0.0171  0.1230 -0.0216
27950OCT     C155899   3.709  22.560  20.446 -0.1521 -0.0265  0.0329
27950OCT     C255900   3.269  22.665  20.569 -0.3809 -0.0444 -0.3063
27951OCT     C155901   2.245  20.069   3.262 -0.0245 -0.3300  0.3296
27951OCT     C255902   2.634  20.059   3.498  0.2538 -0.0310  0.0959
27952OCT     C155903  21.411   9.778  20.493  0.0566 -0.2189 -0.0537
27952OCT     C255904  21.594   9.970  20.130  0.0829  0.1633 -0.0913
27953OCT     C155905  10.338  19.366  16.377  0.2291  0.0076 -0.2528
27953OCT     C255906  10.673  19.569  16.633 -0.2100  0.2278 -0.4449
27954OCT     C155907  17.324  15.438   3.118 -0.0648 -0.2028 -0.3694
27954OCT     C255908  17.108  15.870   3.064  0.0934  0.1180  0.1239
27955OCT     C155909  18.535   6.808  11.579  0.1519 -0.1755  0.1785
27955OCT     C255910  18.247   6.660  11.940  0.1132 -0.2715 -0.0106
27956OCT     C155911  17.197  14.939   4.139 -0.0628  0.0739 -0.5051
27956OCT     C255912  16.781  14.904   4.428 -0.0052  0.0842  0.1894
27957OCT     C155913  11.313   4.491  20.585 -0.0859  0.1108  0.1453
27957OCT     C255914  10.981   4.524  20.237  0.4365 -0.0967  0.0098
27958OCT     C155915  17.883  14.498  11.563  0.0110  0.1807  0.1544
27958OCT     C255916  18.270  14.738  11.508  0.1247 -0.0497  0.3243
27959OCT     C155917  15.397  16.639  20.578 -0.0492  0.1983  0.3960
27959OCT     C255918  14.919  16.769  20.535 -0.1349  0.1617 -0.1453
27960OCT     C155919   8.922   5.133  13.340  0.1946 -0.0161  0.3612
27960OCT     C255920   9.074   5.006  13.756 -0.0070 -0.4165  0.0734
27961OCT     C155921  21.062  11.620   6.453  0.2226  0.0876 -0.1064
27961OCT     C255922  20.923  11.421   6.123 -0.2192  0.1369 -0.2459
27962OCT     C155923  12.269   9.205  10.064  0.2135 -0.0351 -0.2079
27962OCT     C255924  12.473   9.584   9.939 -0.0811 -0.3150 -0.1141
27963OCT     C155925  23.691   2.550  16.341  0.2308  0.3206 -0.3188
27963OCT     C255926   0.199   2.228  16.267 -0.0688  0.1886 -0.0463
27964OCT     C155927  19.733  10.945  20.498  0.0361 -0.2181 -0.1997
27964OCT     C255928  19.277  10.810  20.621  0.0303  0.0727 -0.1267
27965OCT     C155929  10.420  22.862  15.267  0.0985  0.0227 -0.1575
27965OCT     C255930   9.973  22.906  15.405  0.3504  0.2246 -0.3174
27966OCT     C155931  21.566   6.784  20.449  0.0755 -0.3011 -0.2168
27966OCT     C255932  21.843   6.772  20.121  0.0781 -0.0828  0.0475
27967OCT     C155933  19.023  17.192   4.355  0.0923  0.1488  0.0906
27967OCT     C255934  19.041  17.455   4.748  0.2413 -0.0825 -0.1634
27968OCT     C155935  22.947   4.067   9.701 -0.0134 -0.2877  0.1103
27968OCT     C255936  22.652   3.741   9.628 -0.0736 -0.0147  0.1389
27969OCT     C155937  10.847  13.768  23.375  0.0308 -0.1473 -0.0253
27969OCT     C255938  11.236  13.471  23.326 -0.0284 -0.2548  0.0924
27970OCT     C155939  22.390  10.320  14.941  0.2234 -0.1505  0.0692
27970OCT     C255940  22.143   9.967  14.791 -0.0030  0.1778  0.1556
27971OCT     C155941  22.299  14.750  20.544 -0.3096 -0.3047  0.2108
27971OCT     C255942  22.220  14.510  20.124  0.0319 -0.0490 -0.1123
27972OCT     C155943   6.263  15.161   1.919  0.4487  0.1969  0.0438
27972OCT     C255944   6.057  15.593   1.924 -0.0776 -0.1480 -0.2668
27973OCT     C155945   0.852   4.616  21.319  0.1773  0.0993 -0.2667
27973OCT     C255946   0.649   4.872  20.968  0.2047  0.0349 -0.1634
27974OCT     C155947  18.902   3.038  12.494 -0.1369 -0.1704 -0.0456
27974OCT     C255948  19.172   2.698  12.702 -0.1478  0.2851  0.2820
27975OCT     C155949   0.657  19.321  23.112 -0.1658 -0.0562 -0.0470
27975OCT     C255950   0.334  19.008  23.180  0.2747 -0.2073  0.1537
27976OCT     C155951  22.754  13.891   3.460  0.1610  0.2805 -0.0170
27976OCT     C255952  23.003  13.845   3.091 -0.0701  0.2071 -0.3174
27977OCT     C155953  20.823  14.813   4.227 -0.3121  0.0401 -0.0813
27977OCT     C255954  21.143  14.508   4.106  0.3198  0.0763  0.0458
27978OCT     C155955   3.460   7.034  12.113 -0.2446 -0.0260  0.2850
27978OCT     C255956   3.236   7.424  12.180 -0.1448  0.0585  0.0140
27979OCT     C155957   2.307  11.025   8.673 -0.1070 -0.0940  0.1527
27979OCT     C255958   2.058  11.455   8.593  0.1118 -0.1495  0.1565
27980OCT     C155959  16.974  20.554  16.740  0.0172 -0.0062  0.2069
27980OCT     C255960  17.168  20.913  16.487  0.0024 -0.1439  0.0695
27981OCT     C155961  20.007  19.175   5.673  0.1488  0.0948  0.1017
27981OCT     C255962  19.953  19.630   5.523 -0.2740  0.2795 -0.1814
27982OCT     C155963  11.261   8.060  16.950 -0.2388 -0.1938 -0.2361
27982OCT     C255964  10.944   8.176  17.316 -0.0490  0.2429  0.3426
27983OCT     C155965   6.355   5.833  16.264 -0.3984 -0.2835  0.1257
27983OCT     C255966   6.259   6.096  15.897 -0.2654  0.3279 -0.0972
27984OCT     C155967   1.542  21.713  16.979  0.1631 -0.1547 -0.2197
27984OCT     C255968   1.806  21.608  17.334 -0.2201 -0.1196 -0.2757
27985OCT     C155969  19.452   2.124   8.530  0.1289  0.0951 -0.0075
27985OCT     C255970  19.783   2.472   8.405 -0.2247 -0.0133  0.0875
27986OCT     C155971  19.859   9.955   0.469 -0.1143 -0.2455 -0.3092
27986OCT     C255972  20.005  10.335   0.792  0.0456  0.0609 -0.1954
27987OCT     C155973  15.317  17.736  20.577 -0.5208 -0.0254 -0.0443
27987OCT     C255974  15.540  17.531  20.227 -0.1281 -0.1081  0.2256
27988OCT     C155975   4.562  11.461   7.047 -0.0120  0.1544  0.1424
27988OCT     C255976   4.260  11.084   7.031  0.0026 -0.1195 -0.0872
27989OCT     C155977  14.920  14.216  11.504  0.2874 -0.1587  0.1801
27989OCT     C255978  15.068  14.370  11.895 -0.1727 -0.1473  0.0427
27990OCT     C155979  13.665   2.331  13.166  0.1435 -0.4039 -0.4859
27990OCT     C255980  13.360   2.344  12.815  0.0378 -0.1361 -0.0884
27991OCT     C155981  12.817   6.982  16.724 -0.2892  0.0809 -0.2185
27991OCT     C255982  12.926   7.274  16.397 -0.1072 -0.3342 -0.8743
27992OCT     C155983  20.461  22.255  16.116  0.0537 -0.2772 -0.0167
27992OCT     C255984  20.813  22.197  15.837  0.1684 -0.1319  0.1169
27993OCT     C155985   3.788   9.656   0.517  0.0754  0.2192  0.0911
27993OCT     C255986   3.735   9.434   0.127 -0.0624 -0.1308  0.1704
27994OCT     C155987  22.545   6.416   5.814 -0.3494 -0.1539 -0.0236
27994OCT     C255988  22.527   6.080   6.091  0.1696  0.0492  0.2809
27995OCT     C155989  23.296  20.896  10.379  0.3463  0.1463 -0.2401
27995OCT     C255990  23.254  20.495  10.476  0.1842  0.0599  0.0005
27996OCT     C155991   9.080  10.022  19.540 -0.3949 -0.2600  0.1836
27996OCT     C255992   9.053   9.691  19.894  0.0411 -0.0693 -0.0478
27997OCT     C155993  20.325   0.748  18.279 -0.0160  0.0069  0.1061
27997OCT     C255994  20.788   0.852  18.365 -0.1447 -0.0954 -0.1126
27998OCT     C155995  23.417  20.470  12.400  0.0058 -0.0668  0.3563
27998OCT     C255996  23.010  20.509  12.287 -0.1006 -0.1888 -0.0644
27999OCT     C155997   4.071   0.730  17.410 -0.0580  0.1465 -0.0389
27999OCT     C255998   4.279   1.168  17.397 -0.1532  0.3839 -0.0912
28000OCT     C155999  15.178   4.529   0.506 -0.1338 -0.2801 -0.2575
28000OCT     C256000  14.746   4.738   0.466  0.1181 -0.2035  0.1733
28001OCT     C156001   9.983  23.160  20.221  0.2918 -0.1254  0.3696
28001OCT     C256002   9.972  23.487  20.492 -0.1128 -0.3610  0.1350
28002OCT     C156003   9.685  10.176  22.790 -0.2494 -0.0261  0.0008
28002OCT     C256004   9.366  10.510  22.876  0.1948 -0.0492 -0.2211
28003OCT     C156005   6.339  10.724  11.326  0.0121 -0.1166 -0.1970
28003OCT     C256006   6.581  10.488  11.183 -0.0164 -0.0178  0.0892
28004OCT     C156007  19.695  17.254  20.167 -0.1972 -0.0108  0.0474
28004OCT     C256008  20.069  17.349  20.422  0.2157  0.0042 -0.1796
28005OCT     C156009   9.161   3.743   3.518 -0.1597  0.0457 -0.1052
28005OCT     C256010   8.750   3.600   3.655  0.0647  0.0529 -0.1642
28006OCT     C156011  12.862  13.245  20.293 -0.2312 -0.0138 -0.0563
28006OCT     C256012  12.512  13.130  20.579  0.0101  0.0311  0.3524
28007OCT     C156013   0.394  16.497  16.941 -0.1499  0.1495  0.4546
28007OCT     C256014   0.069  16.818  17.042  0.2028  0.1166  0.2822
28008OCT     C156015  10.519  12.473  14.448  0.1180 -0.2512  0.1767
28008OCT     C256016  10.278  12.675  14.827  0.4384  0.2320 -0.1210
28009OCT     C156017   7.822   6.067  22.646  0.0496 -0.1924  0.0868
28009OCT     C256018   7.584   6.447  22.769 -0.3190  0.0525 -0.0658
28010OCT     C156019  13.792  23.481   9.623  0.0282  0.1526 -0.2617
28010OCT     C256020  13.793  23.104   9.378 -0.3692 -0.3306 -0.4759
28011OCT     C156021  19.232   5.746   0.476 -0.0105  0.0491  0.3465
28011OCT     C256022  19.241   5.718   0.960 -0.0050  0.3569  0.1305
28012OCT     C156023   4.155   5.400   4.688 -0.1025  0.0738 -0.0443
28012OCT     C256024   3.987   5.288   4.266  0.2854 -0.1161  0.3800
28013OCT     C156025   2.257   8.394  21.234 -0.1065  0.1583  0.0153
28013OCT     C256026   1.853   8.336  21.440 -0.2879 -0.2349  0.0516
28014OCT     C156027  11.567   9.854  13.298 -0.1096  0.3837 -0.0258
28014OCT     C256028  11.733   9.384  13.313  0.2115  0.0441 -0.1509
28015OCT     C156029   5.023  14.195   4.379  0.0826 -0.3770  0.2365
28015OCT     C256030   5.280  14.104   4.782  0.2011  0.3841  0.3433
28016OCT     C156031  12.864  17.190   6.292 -0.0005  0.1486  0.1377
28016OCT     C256032  13.090  17.179   5.884 -0.3938 -0.1260 -0.1173
28017OCT     C156033  11.815   3.571   8.302  0.0721  0.2842  0.1113
28017OCT     C256034  12.077   3.146   8.293  0.2147 -0.1994 -0.5128
28018OCT     C156035  21.927   6.076   7.488  0.1041  0.3880 -0.0689
28018OCT     C256036  21.787   5.854   7.076 -0.2696 -0.0280 -0.0194
28019OCT     C156037   4.638  15.969   6.677 -0.2567  0.2015  0.0639
28019OCT     C256038   4.278  16.074   6.334  0.1370 -0.1135 -0.0058
28020OCT     C156039   0.827   4.968  22.291 -0.1943  0.1980 -0.1203
28020OCT     C256040   0.685   5.026  22.681 -0.2419 -0.0231 -0.2357
28021OCT     C156041   4.070  20.509   4.646  0.1104  0.2892 -0.1371
28021OCT     C256042   4.064  20.385   5.055  0.1223  0.0047 -0.0907
28022OCT     C156043  14.279   5.714  15.236  0.2141 -0.6663  0.0385
28022OCT     C256044  13.888   5.740  15.330  0.0151  0.1524 -0.2257
28023OCT     C156045  14.937   1.539   7.146  0.2220  0.2416  0.0302
28023OCT     C256046  15.389   1.482   7.296  0.0286  0.2024  0.1154
28024OCT     C156047   3.363   8.581  16.082  0.1744  0.2886  0.0213
28024OCT     C256048   3.150   8.849  16.462 -0.0771 -0.2691  0.0900
28025OCT     C156049   9.227  14.045  12.555 -0.1592  0.1207 -0.0081
28025OCT     C256050   9.072  14.433  12.368 -0.2176  0.0426  0.2620
28026OCT     C156051   2.520   4.104  13.864  0.0339 -0.1631 -0.0994
28026OCT     C256052   2.426   3.961  14.285 -0.0751 -0.3457 -0.1851
28027OCT     C156053   3.578  22.135   1.483  0.0617 -0.2437 -0.2587
28027OCT     C256054   3.168  22.101   1.252  0.3809 -0.1295  0.2669
28028OCT     C156055  22.292   2.359  11.475  0.1846  0.1147 -0.0735
28028OCT     C256056  22.047   2.202  11.814 -0.0258 -0.0077 -0.2558
28029OCT     C156057   6.884  13.610  17.971 -0.0113 -0.1099  0.0387
28029OCT     C256058   7.198  13.730  18.309 -0.1775  0.0225 -0.0599
28030OCT     C156059  15.385   8.586   4.039 -0.0842 -0.2387 -0.0190
28030OCT     C256060  15.297   9.018   3.905 -0.0524  0.0345 -0.0867
28031OCT     C156061  11.411   7.530  19.408  0.2441 -0.1020  0.2675
28031OCT     C256062  11.847   7.575  19.214 -0.2581  0.0489 -0.0392
28032OCT     C156063  13.852  11.943   2.500 -0.1286  0.1540 -0.2792
28032OCT     C256064  13.739  12.154   2.875  0.0229 -0.1823  0.0416
28033OCT     C156065   3.827   5.205   8.705 -0.3718 -0.6451  0.2057
28033OCT     C256066   3.789   4.849   8.933 -0.3868 -0.0111 -0.0376
28034OCT     C156067  19.947   1.139  21.092 -0.1385  0.0599  0.0683
28034OCT     C256068  19.642   1.134  20.758 -0.1420  0.1880  0.1309
28035OCT     C156069   1.458  16.707  20.372  0.7988 -0.0324  0.2142
28035OCT     C256070   1.525  16.733  19.864  0.3617 -0.0821  0.0180
28036OCT     C156071  15.693   4.890  14.930 -0.0489 -0.2045  0.2383
28036OCT     C256072  16.082   4.797  15.117  0.2955  0.0057  0.0680
28037OCT     C156073  21.220  16.077  15.344  0.0600 -0.0729 -0.2454
28037OCT     C256074  21.121  15.833  15.725  0.1492  0.1647 -0.0573
28038OCT     C156075  21.582  11.376   9.714 -0.0764  0.3679 -0.0226
28038OCT     C256076  21.388  11.281   9.261 -0.3155 -0.5766 -0.1470
28039OCT     C156077   6.040  13.989  18.185  0.0030  0.3245  0.1322
28039OCT     C256078   5.776  14.372  18.279  0.1096 -0.0768 -0.0907
28040OCT     C156079   4.519   1.603  10.655  0.1511 -0.0868 -0.1070
28040OCT     C256080   4.247   1.517  10.244 -0.1591  0.0587 -0.0799
28041OCT     C156081   8.644   4.955   7.489 -0.1960  0.0389 -0.1488
28041OCT     C256082   8.579   4.592   7.725  0.0591  0.0412 -0.3017
28042OCT     C156083   6.130   0.681  16.962  0.1911  0.3418  0.3164
28042OCT     C256084   6.243   0.322  16.676  0.0254  0.2439  0.1591
28043OCT     C156085  21.634  22.018   4.069 -0.2259  0.0334  0.2451
28043OCT     C256086  21.782  22.439   4.211 -0.0834 -0.4422  0.1947
28044OCT     C156087   0.343  11.731  11.535  0.1293 -0.5625  0.1682
28044OCT     C256088  23.738  11.545  11.307  0.1990 -0.3227 -0.0467
28045OCT     C156089   0.359  14.561  17.767  0.3373  0.1427  0.1842
28045OCT     C256090   0.307  15.009  17.737 -0.1234  0.0272  0.1131
28046OCT     C156091   0.289   6.127  13.583 -0.3774 -0.0828  0.0367
28046OCT     C256092   0.284   5.674  13.477 -0.1051  0.2220  0.2875
28047OCT     C156093   3.289  17.894  22.962  0.0291 -0.2326 -0.1811
28047OCT     C256094   3.747  17.703  22.955 -0.0734 -0.0482 -0.2278
28048OCT     C156095  11.883   2.661   7.519 -0.1400 -0.1546  0.0254
28048OCT     C256096  11.961   2.406   7.166  0.0568 -0.0199  0.0799
28049OCT     C156097   2.453   8.991  23.085 -0.0137 -0.0898 -0.1573
28049OCT     C256098   2.592   8.707  23.465  0.0197 -0.1356  0.2361
28050OCT     C156099  11.375   4.297  18.317 -0.1198  0.0865 -0.3162
28050OCT     C256100  11.565   3.900  18.597 -0.0239 -0.2724  0.2737
28051OCT     C156101  23.058  19.806  22.045 -0.2789  0.0996  0.3932
28051OCT     C256102  23.497  19.827  22.032 -0.2786  0.3840 -0.0575
28052OCT     C156103   3.434  23.539  19.449 -0.1332 -0.1164  0.2183
28052OCT     C256104   3.302  23.182  19.741  0.0318  0.0071 -0.2206
28053OCT     C156105   2.736  23.091  19.857 -0.2619  0.0788 -0.0408
28053OCT     C256106   2.369  23.143  20.166 -0.0725 -0.0849  0.1599
28054OCT     C156107   7.534   3.663   8.200  0.2038 -0.0155 -0.2031
28054OCT     C256108   7.068   3.671   8.073 -0.0377  0.3431 -0.0042
28055OCT     C156109  10.517  22.129  18.522  0.2660 -0.0223  0.0824
28055OCT     C256110  10.841  22.379  18.679  0.0741  0.0836  0.0212
28056OCT     C156111  12.623  21.716   1.627  0.1034  0.3973 -0.1020
28056OCT     C256112  12.271  21.608   1.913  0.0342 -0.3940  0.0934
28057OCT     C156113  19.304  22.290  23.145 -0.0337  0.1112  0.0790
28057OCT     C256114  19.041  22.038  23.424  0.1746 -0.0035  0.2081
28058OCT     C156115   1.969  21.692   3.033 -0.1723  0.0361 -0.0698
28058OCT     C256116   2.264  21.638   3.463  0.2659  0.0330  0.3364
28059OCT     C156117   6.861   6.013   0.383 -0.1275  0.1924 -0.2332
28059OCT     C256118   7.200   6.014   0.063  0.3237 -0.0793  0.4995
28060OCT     C156119   4.155  15.152   1.242  0.2399  0.0555 -0.0841
28060OCT     C256120   4.146  15.397   0.824 -0.2208  0.0260  0.3387
28061OCT     C156121  21.878  22.390  10.018  0.1250 -0.6325  0.0059
28061OCT     C256122  21.456  22.475   9.830  0.6009 -0.1455  0.2978
28062OCT     C156123   1.481   1.740   5.524 -0.1138 -0.1014 -0.0956
28062OCT     C256124   1.111   1.959   5.833 -0.2765 -0.0796  0.0168
28063OCT     C156125  17.064  15.173  11.395 -0.0611 -0.1198 -0.0023
28063OCT     C256126  17.403  15.042  11.041  0.1297 -0.0612 -0.0449
28064OCT     C156127   9.819  13.162   7.880  0.4674  0.0576  0.0134
28064OCT     C256128  10.291  13.189   7.984  0.2770  0.5571  0.0663
28065OCT     C156129  10.162   6.792  16.622 -0.2721 -0.0083  0.4099
28065OCT     C256130   9.732   6.644  16.867 -0.3280  0.0586 -0.1039
28066OCT     C156131  11.508  18.102  19.317 -0.0184 -0.0018  0.1738
28066OCT     C256132  11.636  18.428  18.966 -0.1901 -0.3281 -0.2377
28067OCT     C156133  15.695  12.437  19.917  0.1448  0.0651 -0.1309
28067OCT     C256134  15.352  12.716  20.089 -0.2422 -0.0038  0.0543
28068OCT     C156135  18.109   5.377   4.758  0.3121 -0.5125 -0.2562
28068OCT     C256136  18.304   5.019   4.549 -0.1207  0.1491  0.0561
28069OCT     C156137  16.340  20.423  10.236 -0.1685  0.0728  0.2933
28069OCT     C256138  16.069  20.120  10.399 -0.0136  0.1238 -0.1901
28070OCT     C156139  13.802  12.148  22.033 -0.1339  0.1985  0.1212
28070OCT     C256140  13.364  12.258  22.239 -0.0546 -0.0628  0.1275
28071OCT     C156141   6.935   8.535  22.361  0.0802  0.2525 -0.0552
28071OCT     C256142   6.800   8.050  22.416  0.0289 -0.4072  0.1875
28072OCT     C156143   1.086   7.848  21.245 -0.0788 -0.1440  0.0701
28072OCT     C256144   1.044   8.057  20.857 -0.0653  0.0050 -0.0363
28073OCT     C156145   4.623  20.285  19.033 -0.0789 -0.1131 -0.0936
28073OCT     C256146   4.617  20.045  19.456  0.0140 -0.0434 -0.1919
28074OCT     C156147  17.430  10.184  19.664  0.0262  0.0386 -0.3926
28074OCT     C256148  17.648  10.396  19.958 -0.0618  0.0405 -0.0170
28075OCT     C156149  22.174   2.708  19.882  0.0766  0.0888  0.0712
28075OCT     C256150  22.435   2.295  19.860 -0.0372 -0.1360  0.2259
28076OCT     C156151   3.322   0.004  16.198 -0.0195  0.0118 -0.0748
28076OCT     C256152   3.366  23.310  16.040 -0.2982 -0.2960 -0.0372
28077OCT     C156153  19.565  17.788  12.616 -0.1224 -0.0615 -0.0985
28077OCT     C256154  19.966  18.055  12.688 -0.3508  0.0749  0.5590
28078OCT     C156155  12.165   8.617   0.240  0.1113 -0.1975 -0.1916
28078OCT     C256156  11.728   8.722   0.072 -0.3059  0.0617 -0.2681
28079OCT     C156157  22.687  16.799  16.175  0.2739 -0.0706 -0.3766
28079OCT     C256158  22.830  16.707  16.602 -0.0362  0.1200 -0.0080
28080OCT     C156159  19.138   0.520  18.038  0.3558  0.1197  0.0725
28080OCT     C256160  19.203   0.782  17.687 -0.1481 -0.1824  0.1572
28081OCT     C156161  13.585  10.071   0.509  0.1085 -0.0046 -0.1181
28081OCT     C256162  13.551  10.242   0.904 -0.1053  0.0423  0.2027
28082OCT     C156163   1.507  21.716  14.268 -0.2616  0.2977  0.1137
28082OCT     C256164   1.616  22.041  14.607 -0.0851 -0.0233 -0.0473
28083OCT     C156165   9.684  16.697  16.066  0.1084 -0.0428 -0.2915
28083OCT     C256166  10.058  16.893  15.906 -0.0730 -0.6108  0.0243
28084OCT     C156167  18.266   8.406   1.055 -0.2522  0.1009  0.0491
28084OCT     C256168  18.696   8.449   1.246 -0.5970  0.0199 -0.1400
28085OCT     C156169  12.197  14.044   3.932 -0.2149  0.3649  0.0429
28085OCT     C256170  12.200  14.524   4.043 -0.2516  0.2579  0.1268
28086OCT     C156171   7.254   1.219   2.994  0.0567  0.2947 -0.1575
28086OCT     C256172   7.561   1.019   2.740  0.0500  0.4056  0.2079
28087OCT     C156173   8.689  15.945   0.568  0.1389  0.2026 -0.3057
28087OCT     C256174   8.972  16.178   0.908 -0.0999  0.1387  0.1007
28088OCT     C156175   7.449   5.935  16.939  0.4658 -0.1325  0.2930
28088OCT     C256176   7.506   5.510  16.980  0.3020 -0.5926  0.0307
28089OCT     C156177   4.077  13.587  17.441 -0.0562 -0.6814 -0.1222
28089OCT     C256178   4.260  13.800  17.066 -0.0240  0.4988  0.0331
28090OCT     C156179   9.609  16.912   4.276  0.0472 -0.1087  0.0268
28090OCT     C256180  10.092  16.897   4.208  0.2528 -0.0576 -0.1729
28091OCT     C156181   1.480  14.654  13.050  0.0597 -0.1048  0.0428
28091OCT     C256182   1.722  14.856  13.413  0.1622 -0.0512 -0.1939
28092OCT     C156183  16.171  21.830  19.312  0.1935 -0.0226  0.4029
28092OCT     C256184  16.415  21.890  18.933 -0.0027  0.2392  0.4304
28093OCT     C156185  16.740   4.080   9.864  0.0925 -0.0547 -0.0633
28093OCT     C256186  16.614   3.922   9.433 -0.0960  0.3571  0.3731
28094OCT     C156187   9.785  16.456   7.121 -0.1090  0.0318  0.0395
28094OCT     C256188   9.936  16.550   6.709 -0.0175  0.2899 -0.0683
28095OCT     C156189  18.787   4.120  23.578 -0.2515 -0.1893  0.2447
28095OCT     C256190  18.835   4.127   0.286 -0.0739  0.1234 -0.0926
28096OCT     C156191  13.912  20.407  12.801  0.0927  0.0315  0.0858
28096OCT     C256192  14.151  20.363  13.166 -0.0969 -0.0908 -0.3110
28097OCT     C156193  15.167  11.272  11.217 -0.1030  0.1005 -0.0461
28097OCT     C256194  15.409  11.031  11.516  0.1115 -0.0240 -0.0390
28098OCT     C156195  15.003   7.925  17.741 -0.1982 -0.3872 -0.1651
28098OCT     C256196  14.800   7.596  18.044 -0.4558 -0.1897 -0.0020
28099OCT     C156197   7.662   8.669   1.462  0.1663 -0.0836 -0.1760
28099OCT     C256198   7.203   8.786   1.280 -0.2596  0.0590 -0.1685
28100OCT     C156199   6.151  13.123  14.391  0.0507  0.2953  0.2584
28100OCT     C256200   6.368  12.644  14.403 -0.4105 -0.0917 -0.2609
28101OCT     C156201   0.873   8.477  19.974  0.0069 -0.2395 -0.0175
28101OCT     C256202   1.185   8.160  19.950 -0.4723  0.3260 -0.3131
28102OCT     C156203   2.683  11.011  22.493 -0.3068 -0.2432 -0.1558
28102OCT     C256204   3.052  10.938  22.189  0.5417 -0.0449 -0.2223
28103OCT     C156205   2.437  18.853  16.581 -0.2377 -0.1666  0.0185
28103OCT     C256206   2.050  18.634  16.811  0.0156 -0.2032  0.3068
28104OCT     C156207   9.029  14.535  14.240 -0.0728 -0.3984 -0.5186
28104OCT     C256208   9.295  14.250  14.439  0.1283 -0.0161 -0.1919
28105OCT     C156209   4.188   8.501   8.634 -0.0371  0.2007  0.1647
28105OCT     C256210   4.039   8.076   8.833 -0.0595  0.1029 -0.2621
28106OCT     C156211  10.404  16.410   2.449 -0.2269  0.3592  0.1066
28106OCT     C256212  10.375  16.840   2.233 -0.2607  0.3317  0.1133
28107OCT     C156213   6.098  10.941   5.038  0.0296  0.0502 -0.0295
28107OCT     C256214   5.903  10.761   5.418 -0.1120  0.1222  0.2459
28108OCT     C156215   0.821  18.098  20.745 -0.1694  0.0439  0.1280
28108OCT     C256216   1.101  18.353  21.021  0.0193 -0.2543  0.0842
28109OCT     C156217  22.491   5.107   2.257  0.1216  0.2285 -0.1412
28109OCT     C256218  22.775   4.773   2.182 -0.1464 -0.1824 -0.0871
28110OCT     C156219  14.732   3.697   2.318 -0.0362  0.2395  0.1004
28110OCT     C256220  14.526   3.973   2.581  0.0521 -0.3260 -0.0249
28111OCT     C156221   9.675   6.236   5.961  0.2166 -0.0716  0.2053
28111OCT     C256222   9.678   6.520   6.272 -0.5772  0.2793 -0.1490
28112OCT     C156223   7.744  12.513  10.250  0.2668 -0.0861 -0.0272
28112OCT     C256224   7.676  12.121   9.923 -0.4378 -0.1478  0.2032
28113OCT     C156225   2.117  22.822   7.361  0.1485  0.1277 -0.0483
28113OCT     C256226   2.110  22.372   7.194 -0.1738  0.0480 -0.3688
28114OCT     C156227   7.656  13.794   7.829  0.0565 -0.1179  0.1281
28114OCT     C256228   7.220  13.776   8.083 -0.1089 -0.3991  0.0308
28115OCT     C156229   6.234  18.033  21.932  0.1574  0.2462 -0.0608
28115OCT     C256230   6.489  17.669  21.832 -0.0074  0.0623 -0.3930
28116OCT     C156231  21.169   3.691   7.888  0.4179  0.0127 -0.3119
28116OCT     C256232  20.759   3.516   7.978 -0.0888  0.2209  0.0056
28117OCT     C156233  11.044  12.569   4.418  0.4208 -0.0593  0.0007
28117OCT     C256234  11.345  12.952   4.583  0.0719  0.0231  0.0558
28118OCT     C156235   8.043   2.627   9.612 -0.1477 -0.0243 -0.1002
28118OCT     C256236   7.642   2.380   9.786  0.0362 -0.1596 -0.0503
28119OCT     C156237  14.438  12.387  15.128 -0.1322  0.1089 -0.2375
28119OCT     C256238  14.515  12.699  15.401 -0.0709  0.0444  0.2021
28120OCT     C156239  10.440  17.492  13.073  0.2236 -0.0107  0.2939
28120OCT     C256240  10.057  17.544  13.321 -0.2995 -0.0967  0.3531
28121OCT     C156241  22.097   0.238  20.272  0.0140  0.0783  0.1781
28121OCT     C256242  21.788  23.632  20.359  0.1244 -0.0578  0.0014
28122OCT     C156243   3.596  10.856  22.565  0.1359  0.3007  0.2670
28122OCT     C256244   3.624  10.558  22.199 -0.0395  0.1082 -0.0264
28123OCT     C156245  20.293   5.513  18.041  0.1342 -0.0289  0.2954
28123OCT     C256246  20.368   5.503  17.574  0.1017  0.5585 -0.0448
28124OCT     C156247  11.858   2.591  21.508 -0.1091  0.0495  0.0902
28124OCT     C256248  12.175   2.608  21.129 -0.1925 -0.0279  0.0107
28125OCT     C156249   3.636  21.974   0.661  0.3816 -0.2644  0.3047
28125OCT     C256250   3.658  22.281   1.004  0.0537 -0.2149  0.5093
28126OCT     C156251  14.519  11.204   3.701 -0.2597 -0.0934  0.1550
28126OCT     C256252  15.007  11.342   3.764  0.0925  0.2249 -0.0702
28127OCT     C156253   6.898   7.653  13.836  0.1031  0.0363 -0.2267
28127OCT     C256254   6.463   7.784  13.692  0.3488  0.2715 -0.5662
28128OCT     C156255  12.554   3.634  10.092  0.0582 -0.2232 -0.5245
28128OCT     C256256  12.501   3.526  10.542  0.4687 -0.0436 -0.1334
28129OCT     C156257   9.976   6.307  16.555 -0.0521 -0.2511  0.3171
28129OCT     C256258  10.313   6.047  16.326  0.2188  0.3331  0.0014
28130OCT     C156259  23.514  17.514  18.683  0.1091  0.2985 -0.1286
28130OCT     C256260  23.484  17.273  18.307  0.2325 -0.1331  0.1021
28131OCT     C156261   7.688   7.142  10.962 -0.0788  0.2578  0.0131
28131OCT     C256262   7.760   7.519  10.626  0.3953 -0.1650  0.0027
28132OCT     C156263   9.510   0.253   4.740  0.1091  0.0953  0.0206
28132OCT     C256264   9.012   0.359   4.697 -0.0267 -0.2482 -0.1642
28133OCT     C156265  15.117  22.592  11.031 -0.3102 -0.0293 -0.2824
28133OCT     C256266  15.282  22.184  11.034  0.0856 -0.1447 -0.0459
28134OCT     C156267  22.442   0.539   7.977  0.4275 -0.1460 -0.0448
28134OCT     C256268  22.587   0.356   7.580 -0.1322  0.0414  0.0788
28135OCT     C156269  12.518  16.848   0.187 -0.2165  0.0361 -0.2323
28135OCT     C256270  12.164  17.203   0.063  0.2479  0.0094 -0.2280
28136OCT     C156271  16.382  21.168  12.059  0.0525  0.4954  0.3066
28136OCT     C256272  16.628  21.435  12.316 -0.4255  0.1178  0.3117
28137OCT     C156273  20.079   7.027  11.808 -0.2386  0.1885 -0.3799
28137OCT     C256274  19.927   7.292  12.130 -0.0733  0.0946 -0.4423
28138OCT     C156275   6.260   9.451  15.500 -0.0114 -0.0342  0.0812
28138OCT     C256276   5.979   9.808  15.387 -0.0293 -0.2971  0.0028
28139OCT     C156277  12.480  11.859   3.569 -0.1553 -0.0222 -0.2220
28139OCT     C256278  12.327  12.241   3.705  0.3926 -0.2606  0.4743
28140OCT     C156279  18.455  12.723  21.011  0.0927 -0.2112 -0.2389
28140OCT     C256280  18.164  12.862  20.722  0.1888  0.1779  0.0301
28141OCT     C156281   5.909  17.742   1.768 -0.1564  0.3668 -0.1812
28141OCT     C256282   6.275  17.835   2.090  0.0065  0.1367 -0.0680
28142OCT     C156283  14.799  10.039   2.240 -0.2069  0.0144  0.2243
28142OCT     C256284  14.871   9.645   2.006 -0.1115 -0.1619 -0.1743
28143OCT     C156285  21.880   6.589  14.608  0.0048  0.3354  0.4140
28143OCT     C256286  22.245   6.316  14.787  0.2325 -0.0471  0.0208
28144OCT     C156287  12.086  20.866  12.757 -0.0161 -0.0084 -0.4048
28144OCT     C256288  11.911  20.676  12.367 -0.1596  0.0320  0.0491
28145OCT     C156289   2.197  20.218   5.976  0.2333  0.0208  0.1494
28145OCT     C256290   1.868  20.560   5.918  0.1900 -0.3488 -0.1890
28146OCT     C156291  11.041  16.469   4.212 -0.1135  0.2160  0.3038
28146OCT     C256292  11.079  16.049   4.463 -0.1784  0.5058  0.0722
28147OCT     C156293  15.375   8.884  13.553  0.1402  0.0239 -0.0379
28147OCT     C256294  15.372   8.610  13.961 -0.1545  0.0281 -0.1803
28148OCT     C156295   7.200   2.405  12.155 -0.1058  0.1866  0.1841
28148OCT     C256296   7.314   2.414  11.689 -0.0430  0.1400  0.2144
28149OCT     C156297  11.828  20.504  11.838 -0.3563  0.2487 -0.1884
28149OCT     C256298  11.693  20.385  11.378  0.1474 -0.0585 -0.0275
28150OCT     C156299   2.433  17.100  18.857 -0.0745 -0.1511 -0.0231
28150OCT     C256300   2.575  17.381  18.487  0.2087  0.2064 -0.0803
28151OCT     C156301  18.773  12.595  22.997 -0.3187 -0.0126 -0.2673
28151OCT     C256302  18.575  12.240  22.827 -0.3351  0.0354  0.3079
28152OCT     C156303   3.469  13.495   6.952  0.0063 -0.1601  0.0416
28152OCT     C256304   3.884  13.293   7.060  0.3720  0.3849  0.0217
28153OCT     C156305   3.252  14.923   4.402 -0.2980  0.0843  0.0784
28153OCT     C256306   3.074  14.529   4.243  0.0200 -0.4928 -0.2536
28154OCT     C156307   6.976   9.277   3.521 -0.6270  0.1031  0.3922
28154OCT     C256308   6.800   8.875   3.370  0.0393 -0.0410 -0.2383
28155OCT     C156309   2.063   0.252  10.019 -0.0149 -0.4117 -0.1807
28155OCT     C256310   1.592   0.117  10.095  0.1962  0.2657  0.0747
28156OCT     C156311  23.024  20.294  13.714 -0.1007 -0.0590  0.2938
28156OCT     C256312  23.041  19.843  13.921  0.5296  0.0939  0.0163
28157OCT     C156313   2.447  20.640   8.798  0.0794 -0.3751 -0.4000
28157OCT     C256314   2.588  20.228   8.650 -0.0873  0.3253  0.1220
28158OCT     C156315  16.664  22.610  13.529  0.3725 -0.1458 -0.0936
28158OCT     C256316  16.451  22.449  13.918 -0.1370 -0.3987 -0.2267
28159OCT     C156317  18.708  12.446   2.403 -0.2555 -0.2662 -0.6049
28159OCT     C256318  19.101  12.589   2.199  0.0190 -0.2301  0.0141
28160OCT     C156319   8.674  19.089  12.679 -0.1232 -0.0133 -0.0753
28160OCT     C256320   8.260  19.338  12.692  0.2930  0.0158  0.4846
28161OCT     C156321   5.729  14.517   3.576 -0.1307 -0.1722  0.2236
28161OCT     C256322   5.850  14.197   3.909 -0.0888  0.2022  0.0573
28162OCT     C156323   3.112  11.117   1.720 -0.0264 -0.0209  0.0157
28162OCT     C256324   2.909  11.548   1.618  0.2446  0.2580  0.2933
28163OCT     C156325   7.782  20.451  11.106  0.2621  0.1476  0.6066
28163OCT     C256326   8.088  20.081  11.071  0.1467 -0.2501 -0.1558
28164OCT     C156327  18.141  13.318  19.561  0.0729 -0.0338  0.0913
28164OCT     C256328  18.458  13.641  19.542 -0.2797 -0.1689  0.0078
28165OCT     C156329   9.744  16.308  16.404 -0.1818  0.1290 -0.0855
28165OCT     C256330  10.241  16.460  16.358  0.1283  0.4057 -0.0902
28166OCT     C156331  13.666  17.039  20.065  0.3626  0.2111  0.1062
28166OCT     C256332  14.091  16.924  20.235 -0.3831  0.0156 -0.3541
28167OCT     C156333   3.418  17.267   6.113  0.0260 -0.3016  0.0432
28167OCT     C256334   2.997  17.088   6.039  0.3023  0.1359 -0.2054
28168OCT     C156335  20.067  20.053   9.976  0.1731  0.2733 -0.2799
28168OCT     C256336  20.377  20.252  10.229 -0.1937  0.1350  0.0397
28169OCT     C156337  12.192   4.719   0.654 -0.0284 -0.2688 -0.1062
28169OCT     C256338  12.528   4.505   0.933 -0.2933  0.0264  0.2100
28170OCT     C156339   5.457  19.065  11.949  0.0546  0.2941 -0.3403
28170OCT     C256340   5.755  19.379  12.029  0.1455 -0.0462  0.2069
28171OCT     C156341  15.735   0.810  22.651 -0.1064  0.1455 -0.0968
28171OCT     C256342  15.604   0.736  23.104 -0.0823 -0.1998  0.0096
28172OCT     C156343   8.495  15.556  21.093 -0.1669  0.0935 -0.1229
28172OCT     C256344   8.922  15.533  21.214 -0.0383 -0.3991  0.0044
28173OCT     C156345  21.878   9.145   2.555  0.0033 -0.1848  0.0282
28173OCT     C256346  22.291   8.930   2.547 -0.3485  0.1002  0.0719
28174OCT     C156347  21.860  19.416  12.372  0.1292 -0.1339 -0.4748
28174OCT     C256348  21.923  19.420  11.972  0.2124  0.1107  0.2661
28175OCT     C156349   6.218   4.992   2.396 -0.2432  0.0142 -0.0532
28175OCT     C256350   5.818   5.056   2.236  0.1542 -0.4355 -0.1910
28176OCT     C156351   7.015  21.877   3.105  0.5771  0.5017 -0.2328
28176OCT     C256352   6.803  21.601   3.410  0.1213  0.1247 -0.0341
28177OCT     C156353  22.062  10.671   3.084  0.1664 -0.0224  0.1673
28177OCT     C256354  22.013  10.236   3.279 -0.1889 -0.4212 -0.1642
28178OCT     C156355   0.713  22.403  22.310  0.0459 -0.2843  0.2127
28178OCT     C256356   1.113  22.293  22.536 -0.0880  0.2649  0.2353
28179OCT     C156357  20.625  23.456  10.244 -0.3356 -0.1194  0.1342
28179OCT     C256358  20.226  23.279  10.508  0.0935 -0.0164  0.2381
28180OCT     C156359  13.575   3.478   5.303  0.1484 -0.2085 -0.2082
28180OCT     C256360  13.872   3.412   4.979 -0.1587  0.0827  0.1368
28181OCT     C156361  22.617   3.601   7.622 -0.0233 -0.3198 -0.1984
28181OCT     C256362  23.041   3.489   7.407 -0.1500  0.1934 -0.0637
28182OCT     C156363   8.123  22.401   4.437  0.0888 -0.0659 -0.0786
28182OCT     C256364   8.348  22.024   4.319  0.3813 -0.1491  0.1364
28183OCT     C156365  12.032   6.097   4.131 -0.0242  0.1023 -0.0276
28183OCT     C256366  12.347   5.903   4.452 -0.0728  0.0974  0.1023
28184OCT     C156367   1.471  19.241   4.359 -0.0794 -0.1355  0.0842
28184OCT     C256368   1.777  18.962   4.635  0.4228 -0.0408  0.0031
28185OCT     C156369  13.401  19.744  17.031  0.0129 -0.3289  0.1596
28185OCT     C256370  13.623  19.353  16.870  0.1068  0.3741 -0.1266
28186OCT     C156371   9.247  17.443   7.842 -0.0326 -0.1210 -0.1607
28186OCT     C256372   9.244  17.524   7.388 -0.1996  0.0557  0.1636
28187OCT     C156373  13.822  16.520  14.522  0.1650  0.0294 -0.2334
28187OCT     C256374  13.731  16.453  14.986 -0.0507  0.0499  0.0436
28188OCT     C156375  20.319  17.126  10.007 -0.1079  0.0143 -0.0576
28188OCT     C256376  20.166  16.685   9.835 -0.2453  0.2869 -0.0658
28189OCT     C156377   0.140   0.147  13.426  0.0219 -0.0170  0.0771
28189OCT     C256378   0.084   0.367  13.027 -0.1191  0.0198 -0.1785
28190OCT     C156379  21.567   8.663   2.476 -0.0372  0.2282  0.1468
28190OCT     C256380  21.292   8.288   2.569 -0.1353 -0.0236 -0.1060
28191OCT     C156381  17.556  21.402  12.759  0.0263 -0.0652 -0.1714
28191OCT     C256382  17.571  21.429  12.311  0.5467 -0.1272  0.1753
28192OCT     C156383  21.882  16.434  11.210 -0.2691 -0.4025 -0.0034
28192OCT     C256384  21.953  16.791  11.486  0.3517 -0.2865 -0.1164
28193OCT     C156385  17.426  18.478   7.489 -0.1408  0.0638  0.1516
28193OCT     C256386  17.301  18.473   7.102  0.0407  0.0655 -0.0562
28194OCT     C156387  15.836  12.881   0.226  0.1648  0.1598 -0.1437
28194OCT     C256388  15.887  12.426   0.476 -0.1649  0.0279 -0.0219
28195OCT     C156389  14.350  16.448  22.551 -0.3403  0.2431 -0.2844
28195OCT     C256390  14.383  16.812  22.758 -0.0928 -0.0614  0.3644
28196OCT     C156391   5.400  14.296  21.910 -0.2648 -0.0084  0.0808
28196OCT     C256392   5.848  14.103  21.845  0.1871  0.0898 -0.1766
28197OCT     C156393  12.428   8.960  10.440 -0.1083  0.4368 -0.0281
28197OCT     C256394  12.466   8.601  10.171 -0.0725  0.4532  0.0031
28198OCT     C156395  15.362  20.756  14.210 -0.0996 -0.2877  0.2969
28198OCT     C256396  15.689  20.941  13.980  0.0366 -0.0603  0.1997
28199OCT     C156397   7.420   2.658   7.979  0.0095 -0.0914 -0.0255
28199OCT     C256398   7.073   2.796   7.710 -0.0913  0.3073 -0.0753
28200OCT     C156399   6.464  10.046  13.259  0.3797  0.4959 -0.1332
28200OCT     C256400   6.130   9.967  12.915  0.1617  0.2893 -0.1325
28201OCT     C156401   1.817  12.694  13.475 -0.0728 -0.3527  0.2179
28201OCT     C256402   1.957  12.703  13.947 -0.2375 -0.0429 -0.0088
28202OCT     C156403   3.337   4.432   6.005  0.2266  0.3004  0.2478
28202OCT     C256404   2.983   4.282   6.243  0.0553  0.2068  0.0271
28203OCT     C156405   9.128  22.833  19.543 -0.1414  0.0279  0.3639
28203OCT     C256406   9.311  22.485  19.701 -0.1739  0.2382 -0.2036
28204OCT     C156407   8.795   7.133  13.123  0.2099  0.1332 -0.0746
28204OCT     C256408   8.364   6.887  13.196 -0.1108 -0.4257  0.5014
28205OCT     C156409   6.620   9.520   7.155  0.2364 -0.1760 -0.2602
28205OCT     C256410   6.623   9.349   7.572  0.0082 -0.1027 -0.3947
28206OCT     C156411  14.976  14.984  19.911  0.0156 -0.1930 -0.4458
28206OCT     C256412  14.693  14.722  20.026 -0.2999  0.0730 -0.1577
28207OCT     C156413   5.537  15.997   0.482  0.0145  0.2879  0.1801
28207OCT     C256414   5.618  16.414   0.686 -0.2324  0.0327  0.2106
28208OCT     C156415   2.124  12.446   2.603 -0.2843 -0.0109 -0.0928
28208OCT     C256416   2.369  12.797   2.433 -0.2108 -0.0771 -0.2123
28209OCT     C156417  13.743  14.526   9.603 -0.0876  0.1989 -0.0493
28209OCT     C256418  13.519  14.519   9.203  0.0172  0.0726  0.2887
28210OCT     C156419   5.890   4.639   0.335  0.0739 -0.0850  0.0517
28210OCT     C256420   5.800   4.227   0.253 -0.3414  0.0192 -0.4578
28211OCT     C156421  14.477   8.070  22.182 -0.2232 -0.4786 -0.2200
28211OCT     C256422  14.219   8.299  21.929  0.0576 -0.0674 -0.2995
28212OCT     C156423   1.523  14.318   3.869  0.2594  0.0751  0.0770
28212OCT     C256424   1.149  14.227   4.107  0.1008 -0.0827 -0.2742
28213OCT     C156425  21.192   7.052   9.507 -0.2329  0.0071  0.2274
28213OCT     C256426  20.968   7.471   9.580 -0.3831 -0.2147 -0.2638
28214OCT     C156427  11.317  18.676   9.239 -0.0225 -0.1289 -0.0735
28214OCT     C256428  11.787  18.632   9.225 -0.0560  0.0591 -0.1024
28215OCT     C156429  16.053   6.791   5.082  0.0775  0.2534 -0.1926
28215OCT     C256430  15.871   6.744   5.547 -0.1100  0.0015 -0.0873
28216OCT     C156431   8.511   5.619  10.437  0.0495 -0.0578  0.2952
28216OCT     C256432   8.663   5.944  10.711 -0.0391  0.0481 -0.2029
28217OCT     C156433  15.706   0.351  15.669  0.0434 -0.2031  0.0127
28217OCT     C256434  16.142   0.509  15.451  0.2281 -0.1568  0.3175
28218OCT     C156435   4.756  21.494   7.597 -0.0482 -0.1916 -0.2612
28218OCT     C256436   5.135  21.463   7.828 -0.0688 -0.4897 -0.2390
28219OCT     C156437   1.461   2.754  18.958 -0.5870  0.2246 -0.0920
28219OCT     C256438   1.918   2.812  19.073 -0.0496 -0.1821 -0.3960
28220OCT     C156439   3.795  23.091   1.524  0.0808  0.3740 -0.1382
28220OCT     C256440   4.225  23.127   1.528  0.1838  0.0455  0.0469
28221OCT     C156441  18.393   7.836  13.646  0.2581  0.2075 -0.2531
28221OCT     C256442  18.351   8.233  13.262 -0.2100  0.0102 -0.0561
28222OCT     C156443  19.625   7.332   5.354 -0.1116  0.1639 -0.0951
28222OCT     C256444  19.438   6.938   5.419 -0.4342 -0.2910  0.2070
28223OCT     C156445  18.559  22.970  16.108  0.0381 -0.1318  0.1277
28223OCT     C256446  18.516  22.569  15.932  0.0617  0.0672  0.0279
28224OCT     C156447  14.677  18.892   8.286  0.0533 -0.3727  0.2946
28224OCT     C256448  14.749  18.914   8.766 -0.0649  0.6032  0.1320
28225OCT     C156449  13.866  12.039  16.053  0.3184 -0.1113  0.2090
28225OCT     C256450  14.233  12.101  15.771  0.1161  0.0024 -0.3270
28226OCT     C156451  21.722  22.917   0.289 -0.0758 -0.1200  0.1555
28226OCT     C256452  21.441  22.563   0.377  0.0437 -0.4020 -0.0636
28227OCT     C156453  16.360  21.111  16.523  0.1220 -0.3333 -0.2204
28227OCT     C256454  15.981  20.969  16.194 -0.3626 -0.2208  0.0884
28228OCT     C156455  11.648   5.995   0.821 -0.0946  0.0382 -0.2579
28228OCT     C256456  11.911   5.885   0.432  0.2504  0.0430  0.0333
28229OCT     C156457  12.223   0.335  18.937 -0.2352 -0.1562 -0.0010
28229OCT     C256458  11.840   0.487  18.797 -0.1062  0.0383 -0.4206
28230OCT     C156459   2.491  11.245  13.694 -0.1611 -0.2446 -0.3154
28230OCT     C256460   2.854  11.464  13.910 -0.2875 -0.1825  0.5173
28231OCT     C156461  13.170   1.904  15.784  0.4129  0.1738  0.0312
28231OCT     C256462  13.267   1.554  16.077 -0.2688  0.0288 -0.1096
28232OCT     C156463  15.651  14.486   2.023 -0.1062  0.1288 -0.0727
28232OCT     C256464  15.406  14.852   2.115  0.3104 -0.1747  0.1086
28233OCT     C156465  17.460   4.341  19.263 -0.0033  0.2357  0.1414
28233OCT     C256466  17.427   4.750  19.478 -0.0127  0.0467 -0.1284
28234OCT     C156467  15.781  18.749  18.822  0.0838 -0.0215  0.0297
28234OCT     C256468  16.104  19.081  18.783 -0.0301  0.0660  0.4838
28235OCT     C156469  23.682   6.186   3.128 -0.0427 -0.0121  0.0766
28235OCT     C256470   0.104   6.214   2.718  0.2020  0.3091  0.0154
28236OCT     C156471   5.263  13.465  21.630  0.1725  0.5275  0.1384
28236OCT     C256472   5.373  13.037  21.810  0.1211  0.0442  0.0285
28237OCT     C156473  16.841  23.019   0.255 -0.0449 -0.1400 -0.1653
28237OCT     C256474  16.564  23.367   0.143 -0.2543 -0.0109 -0.2966
28238OCT     C156475  18.779  16.241   1.351  0.2016  0.0482  0.0459
28238OCT     C256476  19.032  15.998   1.672 -0.2140  0.2456 -0.0247
28239OCT     C156477  16.148  12.697  19.714  0.3344 -0.0764  0.0817
28239OCT     C256478  16.401  12.796  20.093  0.2187  0.3246  0.2727
28240OCT     C156479  14.708  16.492  19.341  0.0002 -0.3368  0.3313
28240OCT     C256480  14.843  16.428  19.761  0.3606 -0.0447 -0.2067
28241OCT     C156481   3.838  23.007  15.171  0.1389 -0.2703  0.2169
28241OCT     C256482   3.986  22.781  15.542  0.6453  0.2762 -0.1817
28242OCT     C156483  15.539  19.667   6.843 -0.5926  0.0306 -0.1084
28242OCT     C256484  15.862  19.783   7.161  0.5557 -0.1509 -0.1191
28243OCT     C156485  12.857  13.085  16.991 -0.0996  0.1596 -0.0830
28243OCT     C256486  13.159  12.949  16.649  0.1045 -0.1421 -0.1182
28244OCT     C156487  15.502   5.444  12.318 -0.1701  0.3714 -0.0582
28244OCT     C256488  15.319   5.872  12.257 -0.5516  0.0461 -0.0431
28245OCT     C156489  15.682  10.943  14.590 -0.0297  0.0936  0.7119
28245OCT     C256490  16.163  11.053  14.484  0.0713 -0.0625 -0.1270
28246OCT     C156491  17.360   8.907  14.596 -0.3101 -0.1942 -0.2181
28246OCT     C256492  17.651   9.243  14.797  0.4772  0.3658  0.0521
28247OCT     C156493  10.078   0.898  11.975  0.1055 -0.2309  0.0236
28247OCT     C256494   9.884   0.494  12.075  0.0774 -0.1607  0.0588
28248OCT     C156495  13.628   5.289  22.667  0.0507 -0.0100 -0.0549
28248OCT     C256496  13.228   5.187  22.474  0.1559  0.3939 -0.0368
28249OCT     C156497   0.712   9.305  19.924  0.0042 -0.1106 -0.3591
28249OCT     C256498   0.895   8.982  19.597 -0.0480 -0.0325  0.0732
28250OCT     C156499   4.732  16.743  20.241 -0.0620 -0.0451 -0.1524
28250OCT     C256500   5.191  16.900  20.208 -0.1031 -0.2867  0.1331
28251OCT     C156501   3.653   9.354  17.585 -0.0936  0.0219 -0.0463
28251OCT     C256502   3.354   9.661  17.863  0.0213 -0.1865 -0.2035
28252OCT     C156503  21.867   3.897   9.993 -0.5181 -0.0091  0.0851
28252OCT     C256504  21.891   4.338   9.881  0.2049  0.4498 -0.0528
28253OCT     C156505  19.027  18.938   1.954 -0.1235 -0.0960  0.0002
28253OCT     C256506  19.340  18.868   2.268  0.2081  0.1655 -0.4493
28254OCT     C156507  13.083  21.626   0.560 -0.0990 -0.2627 -0.3615
28254OCT     C256508  13.318  21.251   0.559 -0.1998  0.0036 -0.4116
28255OCT     C156509  11.819   5.485   4.984  0.0629 -0.0371 -0.0662
28255OCT     C256510  11.653   5.047   4.970 -0.0166 -0.3295 -0.1710
28256OCT     C156511  13.907  21.515   5.253  0.1346 -0.4145 -0.0375
28256OCT     C256512  13.736  21.930   5.393 -0.0628  0.1886  0.3257
28257OCT     C156513  11.321   8.639  16.036  0.3936  0.2089  0.1324
28257OCT     C256514  11.428   9.016  15.800  0.0997 -0.0550 -0.2433
28258OCT     C156515  21.067  16.894  13.788 -0.3793 -0.1224  0.4387
28258OCT     C256516  21.407  17.267  13.749  0.1861  0.1708 -0.2099
28259OCT     C156517  21.965   1.783  15.143  0.1244 -0.1116 -0.6701
28259OCT     C256518  21.848   1.903  14.677 -0.0510  0.1771 -0.3101
28260OCT     C156519  21.920   4.590   3.261  0.1452 -0.0354  0.2280
28260OCT     C256520  21.878   4.543   2.787  0.3178 -0.0227  0.0927
28261OCT     C156521   4.494  10.124   2.943  0.1476  0.0952 -0.1218
28261OCT     C256522   4.833  10.283   3.263 -0.0766 -0.0152  0.1988
28262OCT     C156523  15.155  14.301  10.361 -0.1311  0.3533  0.2830
28262OCT     C256524  14.714  14.484  10.298  0.0197  0.0601  0.1328
28263OCT     C156525  23.348   1.012   8.006 -0.2414 -0.1598  0.0267
28263OCT     C256526  23.591   1.320   8.311  0.0857 -0.3984 -0.0922
28264OCT     C156527   4.165  10.724  23.675 -0.0228  0.2520  0.3419
28264OCT     C256528   4.450  10.352  23.610  0.1404 -0.1616 -0.5180
28265OCT     C156529   2.907  15.072   1.172  0.1405  0.1795 -0.1298
28265OCT     C256530   2.968  14.680   1.416 -0.0736  0.2065  0.1477
28266OCT     C156531   5.903  22.336  17.075 -0.0077 -0.2221 -0.0015
28266OCT     C256532   5.794  22.627  17.401  0.1252  0.2071  0.0006
28267OCT     C156533   5.876  23.084   3.468 -0.0530 -0.0932 -0.1585
28267OCT     C256534   5.558  23.198   3.165 -0.4167  0.0260  0.1312
28268OCT     C156535   2.672   4.851  14.009  0.3326  0.2782  0.1883
28268OCT     C256536   2.727   5.268  13.861 -0.2716  0.0671  0.4483
28269OCT     C156537   1.124   3.109   5.258 -0.0015  0.2234  0.3731
28269OCT     C256538   0.893   2.738   5.211 -0.0350  0.2823 -0.0497
28270OCT     C156539   9.415  10.155  15.058  0.1771 -0.0347 -0.1169
28270OCT     C256540   9.128  10.489  15.345  0.1142  0.5727  0.0847
28271OCT     C156541  22.340  23.426   5.505  0.0444  0.0015  0.0212
28271OCT     C256542  22.642  23.511   5.197  0.2011  0.2047 -0.0337
28272OCT     C156543  21.115  22.704  14.255  0.0407 -0.0447  0.0698
28272OCT     C256544  20.842  22.396  14.060 -0.2606 -0.2032  0.1380
28273OCT     C156545   5.309  13.499   0.275  0.0279 -0.1176  0.5102
28273OCT     C256546   5.529  13.729   0.620 -0.1684  0.0397  0.2049
28274OCT     C156547   6.662   5.554  16.600 -0.2213  0.2279  0.1887
28274OCT     C256548   6.408   5.148  16.785 -0.1078  0.1394  0.1372
28275OCT     C156549  23.307  17.872  21.031  0.2080  0.2463 -0.0706
28275OCT     C256550  23.525  17.624  20.701  0.0083  0.0274 -0.0635
28276OCT     C156551  12.915  21.894  23.580 -0.2418  0.0644 -0.1823
28276OCT     C256552  13.404  21.943  23.638  0.1646  0.0326  0.0335
28277OCT     C156553  16.238  16.785   6.068 -0.2529  0.0287 -0.1468
28277OCT     C256554  16.356  17.094   5.664  0.1250 -0.0183 -0.0339
28278OCT     C156555   4.940  17.182   8.678 -0.3727  0.0430 -0.1513
28278OCT     C256556   4.804  17.489   9.022 -0.1937  0.0262 -0.2827
28279OCT     C156557  16.457   2.987  13.336  0.0460  0.5201 -0.0594
28279OCT     C256558  16.110   3.162  13.605 -0.0339  0.1713  0.4581
28280OCT     C156559  20.925  12.836  11.887  0.1292  0.0331  0.5965
28280OCT     C256560  21.114  12.746  11.401 -0.5188 -0.0823  0.0485
28281OCT     C156561  10.281  17.601  10.055  0.2038  0.0381 -0.0723
28281OCT     C256562  10.727  17.668   9.955  0.0480  0.3300  0.0999
28282OCT     C156563  13.695  15.658   9.648  0.2511  0.2076 -0.1275
28282OCT     C256564  13.463  15.323   9.461 -0.4747 -0.2388 -0.1158
28283OCT     C156565  21.309  20.291  10.000 -0.2315  0.2692 -0.0269
28283OCT     C256566  21.485  20.765  10.129  0.1496  0.0977  0.0663
28284OCT     C156567   8.865   9.951   3.435 -0.4458 -0.0040 -0.0991
28284OCT     C256568   9.224   9.876   3.184  0.0451 -0.0266  0.4156
28285OCT     C156569  17.059  18.914   5.697  0.2349 -0.4303  0.0344
28285OCT     C256570  17.302  18.804   6.097 -0.4375 -0.2434  0.1200
28286OCT     C156571  10.873  15.127   1.259  0.0670 -0.1718 -0.2391
28286OCT     C256572  11.344  15.164   1.216  0.1424  0.0005 -0.2009
28287OCT     C156573   2.366   6.431  21.393  0.2033 -0.4271 -0.2138
28287OCT     C256574   1.986   6.694  21.400 -0.4139 -0.0113  0.0086
28288OCT     C156575   2.702   5.137  16.924 -0.1346 -0.0801  0.3063
28288OCT     C256576   2.980   5.023  17.355 -0.2774  0.1250  0.1776
28289OCT     C156577  16.848   2.030  17.841  0.2666 -0.2559  0.0413
28289OCT     C256578  16.466   2.044  18.040  0.1488  0.2082 -0.0604
28290OCT     C156579  22.385  21.659  13.621 -0.5499  0.2098 -0.2576
28290OCT     C256580  21.982  21.618  13.445 -0.1775 -0.1081  0.1542
28291OCT     C156581  12.111  17.588  18.058 -0.2278 -0.2236 -0.1205
28291OCT     C256582  12.023  17.842  18.466  0.1171 -0.1858 -0.3333
28292OCT     C156583  11.439   3.046   2.076 -0.1172 -0.2925 -0.2196
28292OCT     C256584  11.481   3.042   1.650 -0.0118 -0.2761  0.0582
28293OCT     C156585   3.454  21.013  13.992  0.3823  0.1310 -0.0731
28293OCT     C256586   3.819  20.708  14.051 -0.1374 -0.0141 -0.1094
28294OCT     C156587  13.198  18.215  11.034 -0.0768  0.1475  0.2742
28294OCT     C256588  13.306  17.771  11.170  0.1473  0.1916  0.0081
28295OCT     C156589   9.278  19.240   5.835 -0.0452  0.1447 -0.2231
28295OCT     C256590   9.535  19.428   6.186  0.3675  0.1118 -0.2200
28296OCT     C156591  12.851   5.920   5.584 -0.0073  0.1051 -0.0207
28296OCT     C256592  13.296   6.137   5.605  0.1729 -0.0625  0.0421
28297OCT     C156593   0.426  14.599  12.016 -0.0739  0.1040  0.2325
28297OCT     C256594  23.735  14.791  12.072 -0.1831  0.0087 -0.0888
28298OCT     C156595   0.125  22.972  16.998  0.3505  0.1679 -0.2558
28298OCT     C256596  23.481  23.166  17.211 -0.2368 -0.1577 -0.0926
28299OCT     C156597  22.658  17.418   7.653 -0.0448  0.1148 -0.2458
28299OCT     C256598  22.621  17.041   7.453  0.0943  0.0833 -0.0216
28300OCT     C156599  17.822  18.510   4.481 -0.1667 -0.0690 -0.0277
28300OCT     C256600  17.339  18.464   4.598 -0.0143 -0.1956 -0.2761
28301OCT     C156601  14.409   2.585  18.760 -0.1059 -0.1530  0.1895
28301OCT     C256602  14.552   2.952  18.474 -0.1991  0.0748 -0.1415
28302OCT     C156603  19.244  10.974  22.970  0.0403  0.0111 -0.0705
28302OCT     C256604  19.258  11.225  23.300  0.1966  0.0096 -0.0103
28303OCT     C156605   6.991   9.910   5.483 -0.2237 -0.1102 -0.0191
28303OCT     C256606   7.010  10.167   5.924  0.0031 -0.0754  0.1940
28304OCT     C156607   5.921  13.511  10.084  0.0291 -0.1578 -0.2100
28304OCT     C256608   6.130  13.453   9.721 -0.0502 -0.4179  0.0549
28305OCT     C156609  16.529   2.419  17.747 -0.1898 -0.0551  0.0249
28305OCT     C256610  16.856   2.494  18.119  0.2903  0.3210  0.4088
28306OCT     C156611  11.369  18.056   0.622 -0.0828  0.1135  0.0755
28306OCT     C256612  11.638  18.422   0.412 -0.2642 -0.2171  0.0997
28307OCT     C156613  23.242   5.821  15.113 -0.1125 -0.2101 -0.0330
28307OCT     C256614  23.497   5.960  14.791  0.0515 -0.0939  0.0369
28308OCT     C156615   6.349  20.129   8.187  0.1227 -0.1221  0.3505
28308OCT     C256616   6.369  19.851   7.841 -0.5321  0.2181 -0.2405
28309OCT     C156617   2.963  19.797   8.935 -0.0986  0.0803  0.1500
28309OCT     C256618   2.961  19.485   8.671  0.0505  0.1426  0.0054
28310OCT     C156619  18.959  10.634   1.318  0.0875 -0.2544 -0.1276
28310OCT     C256620  19.314  10.885   1.363  0.1135  0.3149  0.1051
28311OCT     C156621  15.698   4.441  11.471 -0.0159  0.0070  0.0272
28311OCT     C256622  15.466   4.642  11.123  0.2382 -0.0695  0.0147
28312OCT     C156623   0.168  16.611   4.417 -0.0517  0.3258 -0.1578
28312OCT     C256624   0.545  16.837   4.184  0.1059 -0.1594  0.1987
28313OCT     C156625   9.184  18.200  21.372 -0.1948 -0.0123 -0.1168
28313OCT     C256626   9.492  18.464  21.143  0.1265  0.1864  0.1373
28314OCT     C156627  22.074  19.715  14.784 -0.1739 -0.1140 -0.1512
28314OCT     C256628  21.740  20.075  14.741  0.3141 -0.1175  0.5490
28315OCT     C156629   9.467  22.448  13.258 -0.0052 -0.0074 -0.0475
28315OCT     C256630   9.905  22.591  13.071 -0.1548  0.0881  0.3561
28316OCT     C156631   4.186   8.227  17.176 -0.3389 -0.4433 -0.1508
28316OCT     C256632   3.906   7.856  17.127 -0.1663  0.1258 -0.1616
28317OCT     C156633  13.241   2.034   2.034  0.0158  0.1183 -0.1409
28317OCT     C256634  12.911   1.803   1.821 -0.0490 -0.1076 -0.2435
28318OCT     C156635  10.653   0.173  19.524  0.3013 -0.1943  0.0245
28318OCT     C256636  10.611   0.680  19.545  0.0194  0.2876 -0.1508
28319OCT     C156637   8.522   0.087  23.670  0.1273  0.0223  0.2745
28319OCT     C256638   8.052   0.061  23.551 -0.3304 -0.1032 -0.2500
28320OCT     C156639  18.204  15.172  22.005  0.3784  0.1569  0.1852
28320OCT     C256640  18.180  14.750  21.765 -0.2448 -0.0258  0.3018
28321OCT     C156641  22.381   4.200   1.568  0.1330  0.2962 -0.6187
28321OCT     C256642  22.633   4.554   1.529  0.0861 -0.1777  0.0524
28322OCT     C156643   6.510   9.308  18.374 -0.0219 -0.1922 -0.2418
28322OCT     C256644   6.927   9.325  18.107 -0.0401 -0.2271  0.1800
28323OCT     C156645  19.615   7.733  10.045 -0.2541 -0.1787 -0.2164
28323OCT     C256646  19.230   7.942  10.254 -0.1717  0.1688  0.0154
28324OCT     C156647  13.183  23.423   8.430  0.5928 -0.2204  0.2328
28324OCT     C256648  13.237   0.011   8.723  0.2540  0.1655  0.1523
28325OCT     C156649  10.227  20.351  20.945 -0.0477 -0.1486 -0.0553
28325OCT     C256650  10.285  20.008  20.628 -0.3884 -0.3680  0.1111
28326OCT     C156651  17.718   0.381   3.748  0.1638 -0.3051  0.1931
28326OCT     C256652  18.149   0.605   3.737  0.0510 -0.1298 -0.1059
28327OCT     C156653  17.639   3.401   2.347  0.0879  0.1115  0.0987
28327OCT     C256654  17.491   3.825   2.325  0.0058  0.1013  0.1654
28328OCT     C156655  19.491   4.114   7.123 -0.1629 -0.1605 -0.0666
28328OCT     C256656  19.495   3.729   7.402  0.0664 -0.0520 -0.2552
28329OCT     C156657  21.651   7.884  21.121 -0.3298  0.1949  0.0219
28329OCT     C256658  21.528   8.030  21.568 -0.2959 -0.2416 -0.0559
28330OCT     C156659  19.913  13.079   0.303 -0.1763 -0.3986  0.1562
28330OCT     C256660  19.563  13.276   0.163 -0.0709  0.0226 -0.4350
28331OCT     C156661   9.418   6.621  12.955  0.1238  0.2640  0.2443
28331OCT     C256662   9.075   6.323  13.061  0.2757  0.1273 -0.3193
28332OCT     C156663   5.978   9.925   0.196  0.0257  0.1993  0.2142
28332OCT     C256664   5.914   9.561   0.577 -0.0472  0.3733 -0.1154
28333OCT     C156665   7.366  22.753  17.975  0.2485  0.5260 -0.0005
28333OCT     C256666   7.805  22.572  17.994  0.1488 -0.0564  0.0849
28334OCT     C156667  11.256  17.158  17.163  0.1960 -0.1736 -0.1414
28334OCT     C256668  11.617  17.044  16.850  0.1262 -0.0226 -0.1454
28335OCT     C156669   7.967  14.840   2.467 -0.2002 -0.1979  0.0292
28335OCT     C256670   8.032  15.266   2.365  0.3068  0.1548  0.0397
28336OCT     C156671  10.878   0.414  20.038 -0.0949  0.3222 -0.2504
28336OCT     C256672  11.104   0.320  19.635  0.0255 -0.3877 -0.1501
28337OCT     C156673   1.153   4.557  13.368 -0.0398 -0.1192 -0.0556
28337OCT     C256674   1.378   4.949  13.291 -0.0196  0.0190  0.2294
28338OCT     C156675  17.625  14.370  13.938  0.0310  0.2318  0.0545
28338OCT     C256676  17.987  14.174  14.200 -0.0415  0.3596  0.0007
28339OCT     C156677  19.948   2.156   5.660 -0.1534  0.1809 -0.1379
28339OCT     C256678  19.568   2.472   5.734 -0.2128  0.0911 -0.1767
28340OCT     C156679   0.838   1.450  17.418  0.0515  0.1930 -0.1412
28340OCT     C256680   0.411   1.272  17.416 -0.0936 -0.0473  0.3148
28341OCT     C156681   5.295  15.947  10.596 -0.3431  0.0467 -0.0341
28341OCT     C256682   5.216  15.528  10.776  0.1990  0.2528 -0.0738
28342OCT     C156683   5.917  20.371   3.053 -0.1633  0.1217 -0.0701
28342OCT     C256684   5.677  20.734   2.849  0.1624  0.0549 -0.3175
28343OCT     C156685  17.862   1.202  12.424  0.3561  0.1156 -0.1768
28343OCT     C256686  18.280   0.959  12.361  0.0199  0.1861 -0.0059
28344OCT     C156687   9.903  10.226   4.312 -0.0714  0.1027  0.3011
28344OCT     C256688   9.472  10.437   4.408  0.4897  0.1351 -0.0769
28345OCT     C156689  20.264  12.374   0.805 -0.0482  0.4457 -0.2000
28345OCT     C256690  20.046  12.778   0.727 -0.0008 -0.2068  0.1568
28346OCT     C156691  21.792  11.654   8.324 -0.2764 -0.1517  0.0987
28346OCT     C256692  22.090  11.881   8.037 -0.0160 -0.1599  0.0146
28347OCT     C156693   4.334  19.448   7.499 -0.1004  0.1879  0.1182
28347OCT     C256694   4.552  19.847   7.628  0.2698  0.0141  0.0261
28348OCT     C156695  14.890   6.138   1.988 -0.1570  0.1342 -0.0078
28348OCT     C256696  14.554   5.804   2.041  0.0602  0.2596 -0.1995
28349OCT     C156697   1.775  16.627  14.424  0.0866 -0.0829 -0.1526
28349OCT     C256698   1.780  16.681  14.867 -0.1325  0.2013  0.0762
28350OCT     C156699  11.447  23.639  14.825 -0.4083  0.0283  0.0190
28350OCT     C256700  11.216  23.206  14.811  0.0401  0.0174 -0.5781
28351OCT     C156701  11.343  23.055  20.536  0.0864  0.1853 -0.0351
28351OCT     C256702  11.316  23.519  20.523  0.0692 -0.2978  0.4435
28352OCT     C156703  22.428   4.875  19.191 -0.1396  0.0294  0.1712
28352OCT     C256704  22.499   4.443  18.974  0.1341  0.1998  0.1574
28353OCT     C156705   0.598  12.445  23.025  0.1602  0.3737  0.0258
28353OCT     C256706   0.719  12.822  22.877  0.1503 -0.1344  0.2971
28354OCT     C156707  13.543  14.786  16.641  0.2865  0.1660 -0.3607
28354OCT     C256708  13.226  14.957  16.348  0.2334 -0.3574 -0.3597
28355OCT     C156709  14.273  18.044   1.974 -0.1288 -0.1601 -0.0615
28355OCT     C256710  14.228  18.481   2.004 -0.3495 -0.0571 -0.0920
28356OCT     C156711   0.306   8.796  13.318 -0.0095  0.1023  0.0482
28356OCT     C256712   0.276   8.303  13.429  0.0054 -0.2382 -0.1154
28357OCT     C156713  18.112   7.790  10.585  0.0752 -0.1541 -0.4115
28357OCT     C256714  18.045   7.459  10.214  0.2287  0.1483  0.0446
28358OCT     C156715  22.811  19.198  16.830  0.0771 -0.0635 -0.2920
28358OCT     C256716  22.763  18.752  16.716  0.1438 -0.1223  0.1920
28359OCT     C156717   8.153   1.292  17.298 -0.3025  0.2784  0.2880
28359OCT     C256718   7.750   1.566  17.236  0.0294  0.0880 -0.1641
28360OCT     C156719  15.577   0.799  22.173  0.1025 -0.0497 -0.2505
28360OCT     C256720  15.202   0.966  21.979  0.2002  0.1067 -0.2570
28361OCT     C156721   3.140  15.132  23.061  0.0727  0.2310  0.0580
28361OCT     C256722   3.362  14.769  23.351 -0.2360 -0.2087 -0.2967
28362OCT     C156723  12.490  17.910  15.414  0.3201 -0.0641 -0.2816
28362OCT     C256724  12.068  18.065  15.635 -0.0877 -0.0439 -0.1841
28363OCT     C156725  16.959   7.703   9.565  0.0832  0.1730  0.2458
28363OCT     C256726  17.198   7.804   9.202  0.0421  0.2970 -0.1095
28364OCT     C156727  21.401  14.203   6.924 -0.1908 -0.4156  0.2267
28364OCT     C256728  21.716  14.373   6.610 -0.3047  0.2040 -0.0070
28365OCT     C156729  21.583   1.643  16.108  0.1483 -0.1116 -0.2941
28365OCT     C256730  21.864   1.672  15.746 -0.0889 -0.0176  0.3620
28366OCT     C156731  16.180   2.617   4.059 -0.2203  0.2059 -0.0549
28366OCT     C256732  16.575   2.394   4.152  0.2361  0.1562  0.0195
28367OCT     C156733  14.093  10.281   5.317 -0.2195  0.2479  0.1447
28367OCT     C256734  13.917  10.680   5.109  0.0650 -0.1027  0.2253
28368OCT     C156735   3.003   4.119   1.031  0.0855  0.0944 -0.6127
28368OCT     C256736   3.302   3.841   0.978 -0.1130 -0.0263 -0.0476
28369OCT     C156737   1.453  14.426   5.310 -0.0099 -0.0743  0.0501
28369OCT     C256738   1.780  14.050   5.211 -0.3185  0.1051  0.1789
28370OCT     C156739   0.036  17.684  16.148 -0.0662 -0.4803 -0.1703
28370OCT     C256740   0.320  17.371  16.247  0.3941 -0.1899  0.2613
28371OCT     C156741   9.072   6.934   2.958 -0.1492  0.1817  0.1199
28371OCT     C256742   8.900   6.656   3.343 -0.5840 -0.0256 -0.4171
28372OCT     C156743  20.456  21.851  15.387  0.1931  0.0259 -0.3465
28372OCT     C256744  20.180  22.172  15.546 -0.1621 -0.3609 -0.2281
28373OCT     C156745  15.746  12.740   0.889 -0.2873 -0.2850  0.1395
28373OCT     C256746  15.924  12.635   1.322  0.0489 -0.0542  0.6284
28374OCT     C156747   8.535  18.952  15.731  0.2651  0.3954  0.1548
28374OCT     C256748   8.981  18.829  15.767 -0.0775 -0.2135 -0.0241
28375OCT     C156749   9.192  11.211  19.479 -0.2288  0.1459 -0.0681
28375OCT     C256750   9.614  11.106  19.310  0.0867 -0.4488  0.1813
28376OCT     C156751  15.076   8.476  19.440  0.0177  0.1095  0.6380
28376OCT     C256752  14.757   8.140  19.339 -0.1976 -0.1968  0.1325
28377OCT     C156753  20.032   7.142   3.012 -0.0341 -0.0791  0.2898
28377OCT     C256754  20.060   7.194   3.464 -0.1001 -0.2172  0.2548
28378OCT     C156755  15.138  22.851  13.864 -0.2456  0.0321  0.2260
28378OCT     C256756  15.024  23.099  14.215 -0.1353 -0.0227 -0.0439
28379OCT     C156757   0.475   7.566  20.160 -0.1307  0.0876 -0.1712
28379OCT     C256758   0.826   7.292  20.031 -0.1782 -0.1087 -0.0150
28380OCT     C156759  20.951  16.076  13.488 -0.1281  0.1378  0.1480
28380OCT     C256760  20.515  16.167  13.407  0.0198 -0.3449  0.2332
28381OCT     C156761  11.755   1.692  21.938 -0.0018  0.3177  0.0957
28381OCT     C256762  12.103   1.652  22.262 -0.0411  0.1415  0.1808
28382OCT     C156763   2.465   0.542   7.696 -0.2932 -0.1686  0.1493
28382OCT     C256764   2.078   0.327   7.920 -0.0004  0.0635  0.1037
28383OCT     C156765   1.748  22.823  11.726 -0.1114 -0.0110 -0.0919
28383OCT     C256766   1.969  22.562  11.432 -0.2292 -0.0268 -0.0178
28384OCT     C156767  19.702   5.458  21.270 -0.4017  0.2023 -0.1598
28384OCT     C256768  19.971   5.332  21.674 -0.1135  0.3482 -0.2616
28385OCT     C156769   1.103   0.754  15.367 -0.1488  0.0712 -0.3184
28385OCT     C256770   0.939   0.695  15.804 -0.0470 -0.0790 -0.1396
28386OCT     C156771  22.190  21.463  18.228 -0.0614  0.3638 -0.0709
28386OCT     C256772  22.599  21.567  18.066  0.2230  0.1428  0.0969
28387OCT     C156773   8.468  22.596  13.037  0.0787  0.1135  0.1325
28387OCT     C256774   8.564  22.397  12.619  0.0015 -0.0469 -0.2608
28388OCT     C156775   2.208  17.434   6.088  0.0387 -0.2867 -0.2138
28388OCT     C256776   2.229  17.877   5.995  0.0126  0.4655 -0.0919
28389OCT     C156777   8.308   4.514  14.866 -0.0574 -0.4489  0.0668
28389OCT     C256778   7.957   4.278  14.647 -0.0882 -0.1617  0.0148
28390OCT     C156779  19.780  10.180   2.471 -0.1418  0.2691 -0.0385
28390OCT     C256780  19.442   9.846   2.391 -0.1801  0.2101  0.3204
28391OCT     C156781   4.521  23.505  13.518  0.0101 -0.2959 -0.0428
28391OCT     C256782   4.690  23.265  13.217  0.2896 -0.1683  0.0566
28392OCT     C156783  10.006   6.841   6.515  0.2840 -0.0157 -0.0325
28392OCT     C256784   9.778   6.848   6.917  0.0235  0.2899  0.0239
28393OCT     C156785   8.832  13.830  23.301 -0.0200  0.1250 -0.3467
28393OCT     C256786   8.834  14.148  23.630  0.0588 -0.0992  0.3480
28394OCT     C156787  11.161   0.656   8.053  0.2428  0.1162  0.0269
28394OCT     C256788  11.375   0.362   7.737 -0.5650  0.1979  0.5587
28395OCT     C156789  16.316   6.562  20.631 -0.0550  0.0536  0.1293
28395OCT     C256790  16.790   6.552  20.715  0.1388  0.0673  0.1301
28396OCT     C156791   1.458  19.039  10.211 -0.0619  0.0512 -0.1056
28396OCT     C256792   1.551  18.628   9.974 -0.5805 -0.2668  0.1789
28397OCT     C156793  12.654   4.854  21.958  0.6119 -0.0502  0.1171
28397OCT     C256794  12.680   5.007  22.385  0.0037 -0.1918 -0.2128
28398OCT     C156795   5.580   8.468  19.168  0.2002 -0.1105 -0.0755
28398OCT     C256796   5.318   8.887  19.115 -0.0283  0.1365 -0.1932
28399OCT     C156797   2.404  12.674   9.692 -0.1540 -0.0936  0.0860
28399OCT     C256798   1.978  12.745   9.697 -0.0148 -0.0319 -0.0261
28400OCT     C156799   7.983   4.268   7.079 -0.0034  0.2070 -0.0404
28400OCT     C256800   7.665   4.026   6.739  0.0321 -0.2492 -0.3310
28401OCT     C156801  10.966   5.178  12.692 -0.3504 -0.1755 -0.2712
28401OCT     C256802  10.733   5.065  13.102 -0.1276 -0.3326  0.1120
28402OCT     C156803   2.385  10.004  23.178  0.0774  0.0304 -0.3803
28402OCT     C256804   2.762  10.190  23.273 -0.2447  0.0825 -0.1126
28403OCT     C156805  13.011  23.634   7.947  0.0462 -0.1623 -0.0065
28403OCT     C256806  12.686  23.339   8.064  0.1369 -0.1185  0.0483
28404OCT     C156807  11.876   0.351  12.335 -0.1134  0.4271 -0.2168
28404OCT     C256808  11.565   0.070  12.147 -0.0057 -0.0566 -0.2949
28405OCT     C156809  10.976   7.690  16.532  0.1651 -0.0725  0.2371
28405OCT     C256810  10.550   7.874  16.413  0.1909  0.2426 -0.0929
28406OCT     C156811  19.151  10.635  23.351  0.0302  0.1453 -0.4801
28406OCT     C256812  18.787  10.875  23.122  0.1636 -0.0087 -0.0801
28407OCT     C156813   6.051   3.939  12.105 -0.0614  0.0787 -0.0030
28407OCT     C256814   6.298   3.548  12.253 -0.0277 -0.3548  0.1378
28408OCT     C156815   0.901   9.633   3.803  0.1868  0.4339  0.3115
28408OCT     C256816   0.795   9.548   4.256 -0.1458 -0.1544  0.1507
28409OCT     C156817  10.444   3.578   7.430 -0.1390  0.1573  0.3033
28409OCT     C256818  10.153   3.222   7.635  0.2629 -0.1668 -0.4283
28410OCT     C156819  13.507  11.630  10.518  0.2133  0.1056 -0.4437
28410OCT     C256820  13.102  11.569  10.333  0.2072 -0.0916 -0.0843
28411OCT     C156821   8.923   7.275   1.180 -0.3106 -0.1254 -0.3333
28411OCT     C256822   9.159   6.884   1.162 -0.0419  0.2343 -0.2072
28412OCT     C156823   3.749  15.936  21.556  0.1534 -0.0770 -0.1821
28412OCT     C256824   4.086  16.171  21.754  0.1749  0.0506  0.2778
28413OCT     C156825  17.806  22.764  21.948 -0.1451 -0.0862 -0.1979
28413OCT     C256826  17.367  22.761  22.098  0.1276 -0.0450 -0.2314
28414OCT     C156827  16.223   2.322  17.249  0.2074 -0.0134  0.3590
28414OCT     C256828  16.122   2.699  17.487 -0.0550 -0.2840  0.0484
28415OCT     C156829  21.883   1.334  20.774  0.3997  0.3338  0.1419
28415OCT     C256830  21.645   1.199  20.324  0.0067 -0.2001 -0.0499
28416OCT     C156831   3.339  17.206  22.312  0.3394  0.0022  0.2055
28416OCT     C256832   3.617  16.817  22.381 -0.1590 -0.0665 -0.1942
28417OCT     C156833  16.213  14.759  14.627 -0.0236 -0.0030  0.1996
28417OCT     C256834  15.766  14.715  14.760  0.4621 -0.0166 -0.1340
28418OCT     C156835   9.189  12.438   4.347 -0.1606  0.0444 -0.1572
28418OCT     C256836   9.564  12.333   4.073 -0.1092  0.1661 -0.1747
28419OCT     C156837  15.992  12.555   7.780  0.4721 -0.0724  0.1627
28419OCT     C256838  16.313  12.275   7.902 -0.2456 -0.0578 -0.0385
28420OCT     C156839  19.425   7.852  10.698 -0.0312  0.1224  0.0702
28420OCT     C256840  19.616   8.246  10.482 -0.0178  0.1747  0.1801
28421OCT     C156841  23.563   6.570   1.281 -0.0323  0.1004 -0.0062
28421OCT     C256842  23.450   6.980   1.484 -0.4598 -0.4105 -0.0269
28422OCT     C156843  16.524   9.225  21.840 -0.2248 -0.2522 -0.1661
28422OCT     C256844  16.137   9.423  21.639 -0.1089  0.1587 -0.0115
28423OCT     C156845   4.471  10.764  10.242  0.0247  0.1042  0.1081
28423OCT     C256846   4.777  10.995  10.078 -0.2074  0.2089  0.1357
28424OCT     C156847  17.552  16.561  14.226 -0.1180 -0.2744  0.1042
28424OCT     C256848  17.849  16.963  14.230 -0.1057  0.0449  0.1155
28425OCT     C156849   2.762  18.201   5.934  0.2121 -0.4746  0.0523
28425OCT     C256850   2.566  18.155   5.504 -0.3692 -0.2660  0.0214
28426OCT     C156851  11.255  22.947   0.825 -0.0941  0.2818  0.0042
28426OCT     C256852  10.912  23.123   0.472 -0.0323  0.6069 -0.2997
28427OCT     C156853  20.486   3.990   3.250  0.0730 -0.0661  0.3158
28427OCT     C256854  20.892   3.746   3.159  0.2146 -0.1707 -0.0104
28428OCT     C156855  20.866  10.485  19.837  0.0803  0.0231  0.1942
28428OCT     C256856  20.822  10.304  19.421 -0.2655 -0.3495  0.0672
28429OCT     C156857   4.706   7.764  12.834  0.0274  0.0701  0.1018
28429OCT     C256858   4.479   7.514  12.491 -0.5858  0.1217 -0.2515
28430OCT     C156859   0.187  11.663  23.644  0.1438 -0.1840  0.1083
28430OCT     C256860  23.706  11.228  23.589 -0.0656  0.2721  0.3607
28431OCT     C156861   3.987  23.245   4.883 -0.1552  0.0869 -0.2909
28431OCT     C256862   3.572  23.386   4.966 -0.1914 -0.0772 -0.0935
28432OCT     C156863  23.031   9.774   5.448 -0.3824  0.0841  0.2480
28432OCT     C256864  22.681   9.673   5.086 -0.0128 -0.0869 -0.0536
28433OCT     C156865   0.763  22.283  14.683  0.3611  0.4872 -0.0367
28433OCT     C256866   1.201  22.243  14.828 -0.2446 -0.2499  0.2066
28434OCT     C156867  22.352   8.354   9.759 -0.3344  0.1952 -0.1557
28434OCT     C256868  22.795   8.173   9.947 -0.0337 -0.0598 -0.0388
28435OCT     C156869  22.209  14.857  11.081  0.0620  0.1824  0.0721
28435OCT     C256870  21.862  14.984  11.365 -0.0640  0.0408  0.0450
28436OCT     C156871  21.111  10.269   2.857 -0.1328 -0.2183 -0.0856
28436OCT     C256872  21.463  10.273   3.223  0.0174 -0.2421  0.0067
28437OCT     C156873  12.547   3.324  17.987  0.1109  0.3845 -0.2202
28437OCT     C256874  12.609   3.599  18.324  0.1444 -0.0751  0.2075
28438OCT     C156875  12.940  18.465  14.049 -0.2592 -0.0051 -0.0179
28438OCT     C256876  13.238  18.105  14.084 -0.1113  0.0008  0.1110
28439OCT     C156877  22.915   1.162   6.603  0.3266  0.1545 -0.0263
28439OCT     C256878  22.622   1.003   6.303  0.3525  0.1959  0.0231
28440OCT     C156879   2.653   4.579  17.827 -0.2336 -0.0518 -0.1455
28440OCT     C256880   2.480   4.324  17.519 -0.5923 -0.1130 -0.2766
28441OCT     C156881  11.555   6.895  18.181  0.2150  0.0607 -0.4201
28441OCT     C256882  11.519   6.868  17.664  0.2076  0.3636 -0.2104
28442OCT     C156883  22.207   8.037  14.211 -0.0315 -0.0687 -0.3641
28442OCT     C256884  22.582   7.993  14.477 -0.4506 -0.2277  0.1445
28443OCT     C156885  17.638  14.779   7.809  0.2286 -0.0443  0.0727
28443OCT     C256886  17.229  14.774   7.642  0.0417  0.2863  0.3576
28444OCT     C156887   0.004   6.940  12.979 -0.2158  0.3006 -0.1531
28444OCT     C256888  23.476   7.114  13.356  0.3879 -0.0295  0.0362
28445OCT     C156889  19.408   9.008  19.900 -0.1467  0.4332  0.0474
28445OCT     C256890  19.033   9.034  20.142  0.1240 -0.1445 -0.2370
28446OCT     C156891   0.587   1.210  20.985 -0.2402  0.0853  0.1792
28446OCT     C256892   0.110   1.313  21.000 -0.1063  0.3519 -0.2313
28447OCT     C156893  12.621  18.075  13.554  0.1047  0.1030  0.0301
28447OCT     C256894  12.299  18.294  13.260  0.3093  0.1226 -0.0344
28448OCT     C156895  17.135   0.018  14.153 -0.2065 -0.2066 -0.0360
28448OCT     C256896  16.930  23.661  13.751  0.0900  0.0457  0.0796
28449OCT     C156897   1.011  18.447  18.296 -0.0417 -0.1260  0.1885
28449OCT     C256898   0.668  18.652  18.564  0.3787 -0.2701  0.2488
28450OCT     C156899   3.805   9.089  21.350  0.1676  0.2570 -0.0413
28450OCT     C256900   3.897   9.025  20.896  0.0613  0.5461  0.3356
28451OCT     C156901  21.056   9.556   0.223 -0.1402 -0.0553  0.2214
28451OCT     C256902  21.539   9.660   0.261  0.3579 -0.1053  0.0455
28452OCT     C156903   2.588  12.718  22.386  0.2639  0.0215  0.0295
28452OCT     C256904   2.323  12.552  22.021  0.3501  0.2868 -0.3551
28453OCT     C156905  22.355  18.615   2.353 -0.5391 -0.1544  0.1939
28453OCT     C256906  22.007  18.319   2.181  0.2173 -0.1382  0.0310
28454OCT     C156907   5.673   3.033  15.693 -0.2204  0.3974  0.0803
28454OCT     C256908   5.965   2.677  15.840 -0.2706  0.1996  0.0920
28455OCT     C156909  22.493   7.016   5.152  0.0685 -0.3091 -0.1359
28455OCT     C256910  22.928   7.230   5.334 -0.0920 -0.0750  0.1785
28456OCT     C156911  22.960  10.749  22.054  0.1159  0.2010  0.1137
28456OCT     C256912  22.703  10.483  21.844  0.0517  0.1490 -0.5619
28457OCT     C156913  13.041  11.804  11.943 -0.0257  0.5955  0.1123
28457OCT     C256914  13.228  12.224  11.855  0.1956 -0.0491 -0.0153
28458OCT     C156915   1.993  22.054  19.594 -0.0463 -0.3086 -0.1452
28458OCT     C256916   2.298  21.816  19.472 -0.2081  0.1362  0.1778
28459OCT     C156917   0.839  17.967   9.090 -0.1252  0.1585 -0.1346
28459OCT     C256918   1.277  17.801   9.047 -0.0713  0.0104 -0.4200
28460OCT     C156919  19.062  19.537   3.622 -0.0981 -0.2348 -0.0476
28460OCT     C256920  18.812  19.926   3.570 -0.2165 -0.1402 -0.1678
28461OCT     C156921  15.825   2.223   0.281 -0.1359 -0.2718 -0.1798
28461OCT     C256922  15.454   2.115   0.092 -0.3730 -0.0010  0.1078
28462OCT     C156923  18.136   5.920  17.082 -0.2127 -0.2302 -0.4334
28462OCT     C256924  18.232   5.941  16.615 -0.0897 -0.0665 -0.2532
28463OCT     C156925  15.941   5.698  20.091 -0.0557  0.0084  0.1486
28463OCT     C256926  16.246   5.428  19.884 -0.0302 -0.0883 -0.0985
28464OCT     C156927  16.038   1.246  19.572  0.0162  0.0190  0.3082
28464OCT     C256928  16.449   1.438  19.368 -0.1892 -0.0743  0.0655
28465OCT     C156929  17.468  19.142   5.838 -0.2086 -0.1673 -0.1392
28465OCT     C256930  17.134  19.301   6.069 -0.1292  0.3670  0.0271
28466OCT     C156931  10.986   0.060   0.058 -0.0810 -0.6635  0.1527
28466OCT     C256932  11.297  23.485   0.228 -0.0151 -0.4007  0.1960
28467OCT     C156933  12.131  16.255  14.117 -0.0781 -0.2461  0.0505
28467OCT     C256934  12.631  16.263  14.113  0.2926 -0.2504  0.2530
28468OCT     C156935  19.398   0.934  18.223  0.0368 -0.1945 -0.1127
28468OCT     C256936  19.542   1.376  18.262 -0.2711 -0.2030  0.1470
28469OCT     C156937   2.535   5.778   2.307  0.1184 -0.1517  0.1180
28469OCT     C256938   2.169   5.966   2.563  0.0481 -0.1675 -0.3013
28470OCT     C156939  22.921  22.209  19.039 -0.2440 -0.1397  0.1543
28470OCT     C256940  23.242  22.055  18.841  0.1055  0.0582 -0.1964
28471OCT     C156941   9.934   4.238  10.407 -0.1102  0.1025  0.0959
28471OCT     C256942  10.266   4.508  10.373  0.2052  0.1719 -0.4350
28472OCT     C156943  15.108  21.920   3.457  0.1973  0.0494  0.2957
28472OCT     C256944  15.196  22.410   3.391 -0.0883  0.3923 -0.0582
28473OCT     C156945   6.113  21.470   0.397 -0.1893 -0.3485 -0.3964
28473OCT     C256946   6.258  21.084   0.371 -0.1387 -0.1786  0.4617
28474OCT     C156947  21.834  10.407   7.599 -0.0130 -0.2666 -0.0946
28474OCT     C256948  21.978  10.882   7.685  0.2325  0.1558  0.0814
28475OCT     C156949   1.531  22.305   0.664  0.3460 -0.0856  0.4228
28475OCT     C256950   1.967  22.468   0.689  0.1419 -0.1470  0.0961
28476OCT     C156951   7.259   3.439   0.951  0.3267 -0.0661  0.1478
28476OCT     C256952   7.300   2.974   1.065 -0.3369 -0.1156  0.3920
28477OCT     C156953   9.529  22.985   2.614  0.1641  0.1433  0.1066
28477OCT     C256954   9.427  22.898   2.166  0.1384 -0.0720  0.0075
28478OCT     C156955   7.606   3.159  15.443  0.0735 -0.0336  0.0586
28478OCT     C256956   7.432   3.541  15.156 -0.1331 -0.0903  0.1886
28479OCT     C156957   3.364  16.843   3.946  0.0302  0.2559  0.0311
28479OCT     C256958   3.244  16.787   4.397 -0.0652 -0.1540  0.3772
28480OCT     C156959   4.611   2.295  15.866  0.3320 -0.3331  0.0161
28480OCT     C256960   4.315   2.593  16.026  0.1061 -0.0178  0.1773
28481OCT     C156961   7.821   1.149   4.626  0.1173  0.0069 -0.0412
28481OCT     C256962   8.165   0.983   4.913  0.0054 -0.1059 -0.1535
28482OCT     C156963   2.958   6.257  21.130  0.0525  0.0062  0.2678
28482OCT     C256964   3.408   6.403  21.158  0.1782  0.1748 -0.1264
28483OCT     C156965   2.667  22.472  19.096 -0.1460  0.3039  0.0336
28483OCT     C256966   2.745  22.248  19.503 -0.1747  0.0242  0.1598
28484OCT     C156967  20.905  14.076   0.173  0.3273 -0.0834 -0.0038
28484OCT     C256968  20.614  13.809   0.409 -0.2242  0.0173  0.2265
28485OCT     C156969  21.439   4.030   4.974  0.2149  0.0270 -0.1922
28485OCT     C256970  21.348   3.730   5.259 -0.0649  0.1352  0.1678
28486OCT     C156971   9.102   1.214  19.086  0.1539  0.1751  0.0673
28486OCT     C256972   8.852   1.588  18.931 -0.0442 -0.1794 -0.3927
28487OCT     C156973   0.523   7.507  22.582  0.0577  0.1318 -0.1036
28487OCT     C256974   0.977   7.560  22.656  0.2836  0.2587 -0.1212
28488OCT     C156975  21.343  11.102  13.908  0.0387 -0.0057 -0.2548
28488OCT     C256976  21.338  10.695  14.074 -0.0283 -0.1316  0.0932
28489OCT     C156977  16.346  12.299  22.503 -0.0992 -0.1804 -0.1452
28489OCT     C256978  16.398  11.878  22.296 -0.3457  0.1818 -0.4620
28490OCT     C156979  21.743   1.164  18.528 -0.6194 -0.2281  0.1686
28490OCT     C256980  22.051   0.769  18.506  0.5361  0.2209  0.2753
28491OCT     C156981  22.320  22.649  11.200 -0.0133 -0.2624  0.3214
28491OCT     C256982  22.230  22.618  11.662  0.2966  0.0440  0.0363
28492OCT     C156983   9.271  17.639   0.565 -0.2015  0.4768 -0.0432
28492OCT     C256984   9.020  17.261   0.397  0.0103  0.0858 -0.3394
28493OCT     C156985   7.185   0.964  22.171 -0.1572  0.3563  0.1247
28493OCT     C256986   7.644   0.823  22.142  0.0615  0.0580  0.0593
28494OCT     C156987  14.947  22.231  21.196  0.1741 -0.0051  0.0815
28494OCT     C256988  14.673  21.826  21.201  0.0138 -0.1865 -0.1576
28495OCT     C156989   1.333   7.878  23.351 -0.2185 -0.2020 -0.0720
28495OCT     C256990   1.215   7.392  23.399 -0.2227 -0.1808  0.3637
28496OCT     C156991   8.470  15.556  16.463  0.1136  0.0957  0.1130
28496OCT     C256992   8.302  15.967  16.627 -0.2606 -0.0231 -0.1361
28497OCT     C156993  11.249   4.289   0.408  0.0908  0.1531 -0.1169
28497OCT     C256994  11.550   4.652   0.487  0.1632 -0.3365  0.1098
28498OCT     C156995   1.061  21.989   6.522  0.3873 -0.3606  0.0591
28498OCT     C256996   1.453  21.766   6.585 -0.0886 -0.2253 -0.2300
28499OCT     C156997   1.050   0.807   7.322  0.2022  0.0508 -0.1225
28499OCT     C256998   1.085   1.259   7.221 -0.0832 -0.1600  0.0520
28500OCT     C156999  14.721   4.021  18.229 -0.3272  0.5305 -0.0105
28500OCT     C257000  15.112   4.054  18.530  0.4684 -0.2683 -0.5524
28501OCT     C157001   3.970   3.816   8.794  0.4555  0.1761  0.0965
28501OCT     C257002   4.223   4.174   8.717 -0.0745 -0.1372 -0.0670
28502OCT     C157003  15.567   5.436   1.908 -0.0314  0.0274 -0.0576
28502OCT     C257004  15.710   5.125   2.181 -0.0083 -0.0141 -0.0770
28503OCT     C157005   8.481  13.200  22.154 -0.4828  0.0065 -0.1365
28503OCT     C257006   8.089  13.388  22.169  0.0219  0.2101 -0.0936
28504OCT     C157007  10.117   1.062   3.569 -0.1678  0.3370  0.2775
28504OCT     C257008  10.022   0.800   3.954  0.2382  0.2716 -0.2862
28505OCT     C157009  10.739   8.553   0.792 -0.0416  0.1702  0.0691
28505OCT     C257010  10.831   8.282   0.431 -0.1722 -0.5648  0.0717
28506OCT     C157011   4.729  17.225  14.440  0.0991  0.0285 -0.2752
28506OCT     C257012   4.810  17.490  14.845 -0.0958 -0.2423 -0.2526
28507OCT     C157013  18.399   8.852  21.505 -0.2350 -0.3299  0.0253
28507OCT     C257014  18.064   8.537  21.464 -0.3571 -0.2790 -0.3079
28508OCT     C157015  18.881  21.411   1.436  0.4329 -0.0983  0.0010
28508OCT     C257016  18.602  21.529   1.026 -0.1209  0.0516  0.2190
28509OCT     C157017  21.659  19.402  15.563  0.0492 -0.0156 -0.1763
28509OCT     C257018  21.558  19.057  15.917  0.2068 -0.3999  0.1311
28510OCT     C157019  20.711  18.146  14.664 -0.0789  0.1604  0.1031
28510OCT     C257020  21.138  18.265  14.605 -0.0715 -0.0743 -0.0702
28511OCT     C157021   0.133   7.280  20.347  0.0246 -0.2674 -0.0229
28511OCT     C257022  23.505   7.043  20.100 -0.0900  0.1217 -0.0144
28512OCT     C157023  12.719   4.230   3.828 -0.0079  0.2762  0.3570
28512OCT     C257024  12.646   4.311   4.266  0.2857  0.0008 -0.0266
28513OCT     C157025  22.311   5.413  21.620 -0.3093 -0.2579  0.1689
28513OCT     C257026  22.132   5.783  21.805  0.2432 -0.1491  0.2347
28514OCT     C157027  19.452  21.933  21.910 -0.1201 -0.0797 -0.2540
28514OCT     C257028  19.558  21.730  21.532 -0.1753 -0.4037  0.0998
28515OCT     C157029  19.480  18.941  21.855 -0.0862  0.0007 -0.0141
28515OCT     C257030  19.116  19.116  21.627  0.1585  0.2296  0.0232
28516OCT     C157031  10.161  12.682  18.558 -0.1029 -0.0531  0.1274
28516OCT     C257032  10.031  12.409  18.209  0.1327  0.2587 -0.0097
28517OCT     C157033  20.581   7.150  22.528  0.0747 -0.2744 -0.3001
28517OCT     C257034  20.956   7.304  22.707  0.1997  0.2334 -0.0891
28518OCT     C157035   0.496  12.370   4.290 -0.0103  0.2982 -0.0600
28518OCT     C257036   0.315  12.668   4.609 -0.0346  0.5993  0.1296
28519OCT     C157037  18.347   6.428   1.502 -0.3071 -0.2499 -0.1340
28519OCT     C257038  18.740   6.674   1.529 -0.1045 -0.1127  0.1333
28520OCT     C157039  16.582  17.482  13.428 -0.1619 -0.1370  0.2083
28520OCT     C257040  16.968  17.742  13.459  0.0616 -0.1389 -0.0385
28521OCT     C157041   8.620  20.486  20.264 -0.2795 -0.0476 -0.2882
28521OCT     C257042   9.037  20.460  20.040  0.1282  0.3917 -0.1013
28522OCT     C157043   4.985  16.807  10.521 -0.1107  0.0625  0.1432
28522OCT     C257044   5.129  16.816  10.072  0.2318  0.2401  0.3472
28523OCT     C157045   9.570   2.768   4.683  0.7483  0.3977  0.2571
28523OCT     C257046   9.893   2.673   4.383  0.0499  0.0692 -0.1871
28524OCT     C157047   2.978   9.988   2.765 -0.1933  0.1553  0.0283
28524OCT     C257048   2.961   9.981   3.231  0.2873  0.0358 -0.5313
28525OCT     C157049  17.370   0.592   0.441 -0.3180  0.0729  0.1078
28525OCT     C257050  17.361   1.033   0.520  0.3091 -0.0706 -0.0984
28526OCT     C157051  18.350   3.900  18.991  0.1321  0.4496  0.1543
28526OCT     C257052  18.530   3.480  18.802 -0.0004  0.2834 -0.1833
28527OCT     C157053  21.518  10.662   1.108  0.1629 -0.3645 -0.0214
28527OCT     C257054  21.533  10.828   1.539 -0.2936  0.1821 -0.0499
28528OCT     C157055  12.747   6.767  14.843 -0.0129 -0.0534  0.1574
28528OCT     C257056  12.309   6.712  14.948  0.2605  0.1028 -0.1383
28529OCT     C157057  10.283  20.728   9.628 -0.3102 -0.0532 -0.2753
28529OCT     C257058  10.637  20.918   9.369  0.1629  0.0258 -0.2284
28530OCT     C157059   0.927  10.454   1.557  0.0289 -0.1483 -0.0693
28530OCT     C257060   0.696  10.868   1.387 -0.2246  0.1751  0.2603
28531OCT     C157061  14.118  20.340  20.276  0.1189 -0.1659 -0.0359
28531OCT     C257062  14.404  19.995  20.377 -0.2021 -0.1058 -0.2376
28532OCT     C157063  18.127   0.814  13.098 -0.3050 -0.1855 -0.1472
28532OCT     C257064  18.194   0.506  12.790 -0.0041  0.3493 -0.3090
28533OCT     C157065  20.588   6.933   0.198  0.1121 -0.0078 -0.0874
28533OCT     C257066  20.416   6.893   0.618 -0.2570 -0.1660  0.1673
28534OCT     C157067  17.234   1.763   7.382  0.0384 -0.2959  0.2980
28534OCT     C257068  17.577   1.736   7.684 -0.0846  0.1043  0.0270
28535OCT     C157069  15.363   8.059  15.721  0.0458  0.3663 -0.0093
28535OCT     C257070  15.611   8.342  15.446 -0.0140  0.0669  0.0203
28536OCT     C157071   7.212  15.208  18.230  0.0558 -0.3220 -0.0903
28536OCT     C257072   7.560  15.375  17.956  0.2595 -0.2334  0.2213
28537OCT     C157073  18.134   0.085   7.478  0.1024  0.0662  0.1118
28537OCT     C257074  18.166   0.510   7.681 -0.2298 -0.1424  0.1570
28538OCT     C157075  11.570  23.408  10.114  0.1460 -0.0184  0.3043
28538OCT     C257076  11.600   0.105   9.998 -0.0456  0.0549 -0.0593
28539OCT     C157077   4.677  22.479   6.825  0.0384 -0.2324  0.4411
28539OCT     C257078   4.548  22.016   6.896  0.0438 -0.1194  0.1480
28540OCT     C157079  19.266   0.706   1.092 -0.3066 -0.1711  0.0910
28540OCT     C257080  19.779   0.660   1.014 -0.0740 -0.4120 -0.1657
28541OCT     C157081  23.416  23.738  14.257  0.2677  0.2413 -0.2975
28541OCT     C257082  23.071   0.115  14.487  0.1201 -0.0591  0.1798
28542OCT     C157083  13.902   7.304  20.530 -0.2192  0.1516 -0.0651
28542OCT     C257084  13.753   7.656  20.760 -0.0203 -0.2063 -0.1020
28543OCT     C157085   2.999   3.076   6.970 -0.1214 -0.1366 -0.2921
28543OCT     C257086   2.654   3.346   6.759  0.0050  0.0327  0.0670
28544OCT     C157087  13.417  18.685   9.095 -0.1978 -0.1105 -0.3532
28544OCT     C257088  13.495  18.648   9.546 -0.1686  0.1003 -0.0375
28545OCT     C157089   0.400   7.878   0.768  0.4113 -0.0112 -0.0262
28545OCT     C257090   0.343   7.648   0.367  0.1825  0.0418  0.3399
28546OCT     C157091   6.979  10.547  15.964 -0.1859  0.4560 -0.1474
28546OCT     C257092   6.524  10.413  15.918 -0.2250 -0.1253 -0.2535
28547OCT     C157093  11.909  18.956  20.630  0.0851 -0.2122 -0.4207
28547OCT     C257094  11.700  19.196  20.915 -0.1365 -0.0910 -0.1471
28548OCT     C157095  21.916   5.529   8.748 -0.1831  0.2176 -0.0974
28548OCT     C257096  21.632   5.564   8.417 -0.0397  0.2672  0.2061
28549OCT     C157097  14.903  22.596  20.917  0.2166  0.0656 -0.2934
28549OCT     C257098  15.274  22.601  21.197 -0.1439  0.3221 -0.1319
28550OCT     C157099  23.531  13.505  15.836  0.1109  0.0070  0.0199
28550OCT     C257100  23.678  13.405  16.266 -0.2208 -0.0862  0.2687
28551OCT     C157101  17.934   2.792  22.331  0.0260  0.0429  0.1433
28551OCT     C257102  18.071   2.561  22.746 -0.0828  0.1714  0.3423
28552OCT     C157103  10.059   7.468   5.405 -0.3302 -0.1486 -0.3288
28552OCT     C257104   9.631   7.610   5.290 -0.2741  0.1059  0.2168
28553OCT     C157105   0.988  18.210   2.070  0.0192  0.0947  0.0153
28553OCT     C257106   0.763  18.550   2.333  0.0424 -0.1227 -0.5524
28554OCT     C157107  14.113  15.827  15.892 -0.1153  0.1424 -0.0609
28554OCT     C257108  14.512  15.681  16.039 -0.3850  0.0530 -0.2231
28555OCT     C157109  16.851   7.053  13.283  0.1309 -0.0835 -0.0823
28555OCT     C257110  16.448   7.332  13.377  0.2330 -0.1138  0.1862
28556OCT     C157111  21.877  14.640  15.690  0.1879  0.0545 -0.0296
28556OCT     C257112  22.253  14.737  15.421  0.0554  0.0756 -0.2108
28557OCT     C157113  17.725   9.549   0.824 -0.2071 -0.1958  0.2909
28557OCT     C257114  17.769   9.985   0.634  0.2397 -0.6847  0.4771
28558OCT     C157115  21.982   3.929   8.483 -0.2454  0.0067 -0.3523
28558OCT     C257116  22.086   3.642   8.134 -0.4652 -0.1012  0.1629
28559OCT     C157117  10.649   8.762   6.959 -0.2040  0.2730  0.0748
28559OCT     C257118  11.077   8.616   6.778 -0.2918 -0.0557  0.0138
28560OCT     C157119   5.568   4.435   9.860 -0.0495  0.4805 -0.2577
28560OCT     C257120   5.233   4.159   9.860 -0.0568 -0.3911  0.3934
28561OCT     C157121   2.401   5.658  21.941 -0.0888  0.4601 -0.1498
28561OCT     C257122   2.366   6.008  21.625 -0.1638  0.2800 -0.4900
28562OCT     C157123   2.360   4.297  18.436  0.3330 -0.3154  0.0299
28562OCT     C257124   2.331   4.775  18.410  0.2637  0.0071 -0.0395
28563OCT     C157125  14.932  22.111  12.971  0.2306  0.2231  0.0228
28563OCT     C257126  15.358  22.199  13.002  0.1499  0.0012 -0.0372
28564OCT     C157127  14.883  12.278  14.969  0.1969 -0.4014 -0.1138
28564OCT     C257128  14.677  11.880  14.958 -0.0663  0.1547  0.2321
28565OCT     C157129   2.830   0.786  20.351 -0.0431 -0.0549 -0.1583
28565OCT     C257130   3.187   1.046  20.215 -0.3165 -0.3511 -0.2318
28566OCT     C157131  11.102   5.762   9.816  0.4248 -0.1682  0.0710
28566OCT     C257132  11.212   6.132   9.968 -0.3321 -0.1150  0.0701
28567OCT     C157133   7.950   8.726  21.243  0.0156 -0.0430  0.1838
28567OCT     C257134   7.973   8.415  21.481 -0.0727 -0.0615 -0.2231
28568OCT     C157135  14.297  16.640   1.365  0.0384 -0.2020  0.0758
28568OCT     C257136  14.402  16.791   0.892 -0.0915  0.0413 -0.5190
28569OCT     C157137  16.037   0.821  11.056  0.0747 -0.0833  0.0236
28569OCT     C257138  16.117   0.421  10.790  0.2580 -0.3664 -0.0504
28570OCT     C157139  17.794   7.191  10.579  0.0193  0.1182 -0.0044
28570OCT     C257140  18.144   7.024  10.814  0.0086 -0.2398 -0.2574
28571OCT     C157141   2.763  12.912  14.124 -0.1001  0.1638 -0.3041
28571OCT     C257142   2.773  12.670  14.489  0.2102  0.3244 -0.2536
28572OCT     C157143  17.810  20.978   4.693  0.1859 -0.0982 -0.2728
28572OCT     C257144  17.774  20.511   4.909 -0.3281 -0.1103 -0.2320
28573OCT     C157145   3.563   5.740  21.982  0.2366  0.1422 -0.0324
28573OCT     C257146   3.937   6.023  21.923  0.2749  0.1791  0.2468
28574OCT     C157147  16.801   9.295   1.094  0.1954 -0.3951  0.0154
28574OCT     C257148  16.778   9.691   1.387  0.1379 -0.3603  0.1897
28575OCT     C157149  15.991   4.119  18.254 -0.2120 -0.0518 -0.3008
28575OCT     C257150  15.902   3.715  18.038 -0.0956  0.1838  0.0160
28576OCT     C157151  21.916   5.648  13.068 -0.1554  0.0493  0.1532
28576OCT     C257152  22.023   6.075  12.858 -0.0757  0.1004  0.0156
28577OCT     C157153  13.124  18.861   8.679 -0.0369  0.2249  0.0557
28577OCT     C257154  12.885  19.029   9.088  0.3383 -0.3278 -0.0238
28578OCT     C157155   1.381   3.546  21.176  0.3054  0.0525 -0.1229
28578OCT     C257156   1.064   3.284  20.954  0.1758 -0.1399 -0.2962
28579OCT     C157157  17.630  19.677  22.894  0.0290 -0.1665 -0.0297
28579OCT     C257158  17.991  19.832  22.606  0.0461 -0.3589  0.0846
28580OCT     C157159  14.408  20.559  11.900  0.2683  0.0907  0.0233
28580OCT     C257160  13.984  20.572  11.784  0.0453  0.1813  0.0313
28581OCT     C157161   8.567   4.614   5.059 -0.1489 -0.0673 -0.4315
28581OCT     C257162   8.735   4.866   4.686 -0.0125 -0.2200  0.2403
28582OCT     C157163  10.244  20.816   7.768 -0.2177  0.1274 -0.0680
28582OCT     C257164  10.601  21.085   7.992  0.2445  0.1250  0.1866
28583OCT     C157165  13.865   8.585  18.198 -0.1717 -0.1771 -0.0285
28583OCT     C257166  13.876   8.422  18.650  0.5524 -0.3235  0.1497
28584OCT     C157167  23.290   9.488  20.859  0.0236 -0.4065 -0.0439
28584OCT     C257168  22.873   9.434  21.105  0.2446 -0.1111 -0.0888
28585OCT     C157169  17.440  20.205   2.694 -0.0278 -0.2034 -0.2157
28585OCT     C257170  17.457  20.386   2.269 -0.1134 -0.1789 -0.0248
28586OCT     C157171  17.159  14.016  16.435  0.1469 -0.1051 -0.1244
28586OCT     C257172  16.786  14.017  16.217 -0.1515 -0.2159  0.0535
28587OCT     C157173   7.863  17.925  12.605  0.0966 -0.0297 -0.1024
28587OCT     C257174   7.600  17.672  12.846  0.1156  0.4206  0.0223
28588OCT     C157175   9.702  17.315  23.320  0.2851 -0.0798 -0.0099
28588OCT     C257176  10.143  17.085  23.171 -0.0111 -0.1283  0.0523
28589OCT     C157177  19.565  13.491  12.307  0.2214 -0.0369  0.3150
28589OCT     C257178  19.909  13.292  12.577  0.1175  0.1158 -0.0899
28590OCT     C157179   7.035  13.476  17.474  0.3620  0.4638 -0.1607
28590OCT     C257180   7.445  13.524  17.224  0.3386  0.1518 -0.2523
28591OCT     C157181  17.954   6.513  15.442 -0.0218 -0.1963  0.1901
28591OCT     C257182  17.721   6.923  15.322  0.3475  0.0387 -0.2104
28592OCT     C157183   6.993   8.325  14.785  0.0736  0.0147 -0.3004
28592OCT     C257184   7.265   7.999  14.950  0.1709  0.0788 -0.1367
28593OCT     C157185   6.088  12.479  23.125  0.4729 -0.1682  0.1554
28593OCT     C257186   6.268  12.629  23.537 -0.2403 -0.3452  0.2270
28594OCT     C157187   2.533  10.511  15.964 -0.2969 -0.0139 -0.0663
28594OCT     C257188   2.821  10.305  15.708 -0.0208  0.0713  0.0967
28595OCT     C157189   3.468  12.563  13.441  0.1077  0.1833  0.3038
28595OCT     C257190   3.927  12.569  13.305 -0.3368  0.3248 -0.1875
28596OCT     C157191  22.841   1.581  10.225  0.1891 -0.1173  0.2363
28596OCT     C257192  22.888   1.224   9.917  0.1686  0.1532 -0.0344
28597OCT     C157193  14.648   8.249   7.714 -0.3100  0.3406 -0.2423
28597OCT     C257194  14.411   8.547   7.893  0.0490 -0.1951 -0.0495
28598OCT     C157195   2.327  12.366   3.023 -0.0419  0.2740 -0.0073
28598OCT     C257196   2.054  12.703   3.082  0.1252 -0.0531  0.0886
28599OCT     C157197   0.797  15.774  10.245  0.1299 -0.2256 -0.2351
28599OCT     C257198   0.688  15.367  10.477  0.0749  0.2882  0.2352
28600OCT     C157199   2.195   7.666   1.323  0.1664  0.1240  0.0465
28600OCT     C257200   2.351   8.048   1.474 -0.2658 -0.1931  0.0977
28601OCT     C157201  17.807  22.674  13.918  0.1055 -0.2476 -0.2840
28601OCT     C257202  17.588  22.881  14.242  0.3668 -0.0698 -0.0744
28602OCT     C157203   9.008  20.306  23.062  0.0149 -0.0299 -0.0186
28602OCT     C257204   9.312  20.652  22.906  0.3308  0.2241  0.2650
28603OCT     C157205  11.045  15.414  18.741 -0.3499 -0.0242  0.0902
28603OCT     C257206  11.281  15.058  18.638  0.3883  0.0827 -0.4030
28604OCT     C157207   5.525  19.731  20.285  0.1163  0.0824 -0.2283
28604OCT     C257208   5.273  20.063  20.076  0.0506  0.1266 -0.1520
28605OCT     C157209  13.350   9.998  14.263 -0.1273 -0.2773 -0.0057
28605OCT     C257210  13.341  10.462  14.415  0.2528 -0.1054  0.0991
28606OCT     C157211  21.980  10.590  14.876  0.4385  0.0021 -0.1655
28606OCT     C257212  21.630  10.563  14.564 -0.0224 -0.2750 -0.0325
28607OCT     C157213  12.316  14.467  14.618  0.4424  0.3191  0.1182
28607OCT     C257214  11.930  14.329  14.414 -0.0168 -0.0070 -0.2803
28608OCT     C157215  15.732  21.590  22.146 -0.1505 -0.2878 -0.2532
28608OCT     C257216  16.015  21.892  22.399 -0.1356  0.1738 -0.1362
28609OCT     C157217  15.540  15.095  10.929  0.1654 -0.0344  0.0005
28609OCT     C257218  15.257  15.296  10.612 -0.4798 -0.0199 -0.3890
28610OCT     C157219  19.085  19.842  11.433 -0.3819 -0.2065  0.0663
28610OCT     C257220  18.838  19.521  11.654 -0.0999  0.0027 -0.0092
28611OCT     C157221   6.390   4.357  15.268  0.1176 -0.0027  0.2859
28611OCT     C257222   6.272   4.799  15.067  0.0954  0.1432  0.0674
28612OCT     C157223  17.147  13.580  13.688 -0.0579 -0.1264 -0.2990
28612OCT     C257224  17.472  13.223  13.620 -0.1358  0.1086  0.2617
28613OCT     C157225  21.753  16.377   4.137  0.0817 -0.0249 -0.0644
28613OCT     C257226  21.458  16.159   4.425 -0.0940 -0.2155 -0.0143
28614OCT     C157227   9.047  23.435   3.457  0.2172 -0.0668 -0.0083
28614OCT     C257228   8.827   0.055   3.330  0.2341 -0.0843  0.3905
28615OCT     C157229  17.641   8.336  12.147  0.1938  0.2425 -0.1054
28615OCT     C257230  17.641   7.912  11.913 -0.1720 -0.2293 -0.3847
28616OCT     C157231   1.519   5.920   0.786 -0.0170  0.1168 -0.1264
28616OCT     C257232   1.944   6.051   0.919 -0.1586 -0.3164  0.0647
28617OCT     C157233   1.805   6.221  20.607  0.2367  0.0785  0.2867
28617OCT     C257234   2.184   6.524  20.463 -0.0809  0.1725 -0.1034
28618OCT     C157235  19.745  14.728   9.449  0.3425  0.1736 -0.1374
28618OCT     C257236  19.960  14.611   9.838  0.1335  0.2016  0.0527
28619OCT     C157237   0.393   1.486  10.825  0.1188 -0.1661 -0.3032
28619OCT     C257238  23.715   1.501  10.654 -0.1271  0.1757 -0.0189
28620OCT     C157239  10.563  15.256  23.739  0.0863  0.3526  0.2911
28620OCT     C257240  10.726  14.771   0.038 -0.1250  0.2304  0.0461
28621OCT     C157241  17.292   3.255  15.408 -0.0310 -0.1487 -0.1974
28621OCT     C257242  17.054   3.058  15.762 -0.1161 -0.2492  0.1891
28622OCT     C157243   2.395   2.925  15.486 -0.3728  0.1442 -0.0454
28622OCT     C257244   2.865   2.784  15.467  0.1844  0.2465 -0.0620
28623OCT     C157245  11.635   1.420   9.631 -0.0309 -0.2880 -0.0225
28623OCT     C257246  12.017   1.620   9.456 -0.0228  0.1870  0.3054
28624OCT     C157247   9.968  15.594  14.645 -0.1526 -0.1160 -0.2368
28624OCT     C257248  10.101  15.946  14.902  0.1247 -0.3207  0.0225
28625OCT     C157249  16.225  19.925  17.731 -0.0928 -0.0205  0.0759
28625OCT     C257250  15.785  19.913  17.705  0.0136  0.1600 -0.0724
28626OCT     C157251  23.133  17.788  22.540  0.2418  0.0828 -0.2046
28626OCT     C257252  22.898  18.200  22.546  0.2974  0.1050 -0.1591
28627OCT     C157253  10.812   4.194   6.826  0.1487  0.1640 -0.0537
28627OCT     C257254  10.335   4.248   6.728  0.1409 -0.3124 -0.0323
28628OCT     C157255   3.473   8.758   3.638  0.2692  0.1852 -0.2436
28628OCT     C257256   3.774   8.716   3.298 -0.0450 -0.5169  0.0573
28629OCT     C157257  16.884   1.718  14.047 -0.0571 -0.0252  0.2486
28629OCT     C257258  17.127   1.360  14.227  0.0183 -0.4336  0.2709
28630OCT     C157259  17.875   2.091   2.642 -0.1165  0.0286  0.1081
28630OCT     C257260  18.277   2.399   2.628 -0.0242  0.1202 -0.1393
28631OCT     C157261  13.152  10.389   0.210  0.1751  0.0389 -0.0286
28631OCT     C257262  12.702  10.280   0.214 -0.1411  0.4248  0.2042
28632OCT     C157263   0.957   7.743  10.748 -0.2781 -0.0200  0.1484
28632OCT     C257264   0.629   7.898  10.441  0.2469  0.0823 -0.1109
28633OCT     C157265  23.409   6.324   6.742 -0.1411 -0.0289  0.2592
28633OCT     C257266  23.441   6.117   7.147 -0.1853  0.2261 -0.2994
28634OCT     C157267   0.152   1.556   8.613  0.0969  0.2422  0.3981
28634OCT     C257268  23.662   1.822   8.907 -0.0886 -0.1921  0.4562
28635OCT     C157269  13.023   6.237   0.083 -0.6039  0.1470 -0.2124
28635OCT     C257270  12.760   5.995  23.595  0.0138 -0.2720  0.2698
28636OCT     C157271   3.212   2.464  15.568 -0.1892 -0.0572  0.1186
28636OCT     C257272   3.291   2.862  15.774 -0.0443 -0.0415  0.1814
28637OCT     C157273  17.486   5.898  14.485 -0.4903 -0.1068 -0.0186
28637OCT     C257274  17.434   6.383  14.399 -0.4080  0.0543 -0.0949
28638OCT     C157275   9.281  22.276   4.956 -0.1400 -0.0196 -0.0875
28638OCT     C257276   9.492  21.853   4.859  0.2680 -0.1430  0.0937
28639OCT     C157277  15.569   3.652   3.804 -0.0487  0.0796 -0.4570
28639OCT     C257278  15.109   3.509   3.762 -0.1151  0.1642 -0.1045
28640OCT     C157279   1.402  18.198   8.777  0.0019  0.1801  0.1209
28640OCT     C257280   1.727  18.352   8.475  0.1497  0.1072 -0.0371
28641OCT     C157281  10.782  16.172  12.423  0.1410 -0.0634  0.0505
28641OCT     C257282  11.140  15.880  12.684  0.0957 -0.2951  0.0908
28642OCT     C157283   0.375  15.008  14.554  0.0648 -0.2942 -0.3179
28642OCT     C257284   0.738  14.921  14.813 -0.3784  0.0389 -0.1169
28643OCT     C157285  23.200  14.626   4.435  0.2373 -0.1877 -0.0382
28643OCT     C257286  23.675  14.756   4.461 -0.0388 -0.1041 -0.2694
28644OCT     C157287   2.390   9.473   1.929  0.1442  0.0889  0.0177
28644OCT     C257288   2.259   9.944   1.978  0.3281 -0.1388 -0.1305
28645OCT     C157289   6.390  13.078  16.668 -0.1150  0.0733  0.1047
28645OCT     C257290   6.307  12.625  16.406 -0.0305  0.2506  0.0598
28646OCT     C157291  12.046   8.593   3.209  0.0689 -0.2758  0.5091
28646OCT     C257292  11.843   8.617   3.590 -0.1036  0.0688 -0.1769
28647OCT     C157293   0.039   1.404   5.663 -0.3292  0.1460 -0.0875
28647OCT     C257294   0.158   1.731   5.969 -0.2747  0.3059  0.1093
28648OCT     C157295  23.604  12.039  18.543  0.0768 -0.0241  0.0669
28648OCT     C257296   0.211  12.222  18.839  0.2538 -0.1390 -0.0842
28649OCT     C157297   8.677  17.104   2.958  0.0325 -0.2134 -0.2230
28649OCT     C257298   8.884  16.900   2.598  0.0920  0.1414 -0.3518
28650OCT     C157299   0.206   2.717   0.488 -0.1660 -0.2987 -0.0808
28650OCT     C257300   0.028   2.284   0.526  0.1929  0.0555 -0.1541
28651OCT     C157301  23.664  22.728   4.292 -0.0785  0.2012  0.0863
28651OCT     C257302   0.032  22.873   4.679 -0.1772  0.2821  0.0207
28652OCT     C157303   7.622  12.634   3.462  0.1658  0.2954  0.0739
28652OCT     C257304   7.195  12.795   3.559 -0.2276 -0.0527  0.1443
28653OCT     C157305  13.750  21.336  20.704 -0.1977 -0.1423 -0.2916
28653OCT     C257306  13.984  21.644  20.957  0.0128  0.0238  0.0161
28654OCT     C157307  23.185  23.443  15.272  0.4145 -0.1917  0.0068
28654OCT     C257308  23.048  23.014  15.386 -0.4098  0.0192  0.0658
28655OCT     C157309  15.352   6.113  12.820 -0.2684  0.0163  0.1926
28655OCT     C257310  15.126   6.100  13.209  0.5032 -0.1989  0.1097
28656OCT     C157311   6.138   1.168   5.922  0.2335  0.3080 -0.0144
28656OCT     C257312   6.114   1.576   6.107 -0.1071  0.0515 -0.1630
28657OCT     C157313   6.556   9.113   8.039  0.3605 -0.2274  0.2610
28657OCT     C257314   6.681   8.657   8.287 -0.6475 -0.0039  0.2233
28658OCT     C157315   6.097   8.629  22.840 -0.1416 -0.0501  0.0524
28658OCT     C257316   6.538   8.503  22.781  0.2857 -0.3343  0.2534
28659OCT     C157317  18.285   0.753  18.096  0.3358 -0.2843 -0.0578
28659OCT     C257318  18.676   0.759  17.872  0.1161 -0.4341 -0.2495
28660OCT     C157319   7.612  13.884  23.359 -0.3906  0.1118 -0.2892
28660OCT     C257320   7.319  14.115  23.635  0.4031  0.2696 -0.0066
28661OCT     C157321  22.510  10.794   2.842  0.1504 -0.0200  0.0431
28661OCT     C257322  22.525  10.455   3.172 -0.1279 -0.5411 -0.5657
28662OCT     C157323  16.418  11.417   4.353  0.0886  0.0509 -0.2986
28662OCT     C257324  16.577  11.566   3.904  0.0926  0.0049 -0.0114
28663OCT     C157325  16.080   6.172  18.455  0.4440 -0.0320  0.4329
28663OCT     C257326  16.218   6.056  18.898  0.0983  0.2826 -0.2047
28664OCT     C157327   0.688  22.224   7.438  0.1062 -0.2342  0.0700
28664OCT     C257328   0.316  22.503   7.427  0.2647  0.1704  0.0658
28665OCT     C157329   2.995   6.056   2.361 -0.1424 -0.0422 -0.3081
28665OCT     C257330   2.932   5.750   2.029 -0.0958  0.0902  0.3461
28666OCT     C157331  16.207   0.637  16.658  0.0391 -0.2600 -0.0279
28666OCT     C257332  16.362   0.750  17.075 -0.1340 -0.0464 -0.1486
28667OCT     C157333  20.198  16.255  18.355 -0.1309  0.0337  0.0624
28667OCT     C257334  20.136  16.176  17.880  0.0894 -0.1545  0.1903
28668OCT     C157335  18.422  10.237  23.275  0.4394 -0.0461  0.0210
28668OCT     C257336  18.551  10.004  22.836  0.4209 -0.3181 -0.1996
28669OCT     C157337  12.465   7.281  21.617 -0.2337 -0.1802  0.4076
28669OCT     C257338  12.141   7.398  21.270 -0.2131  0.4007 -0.0162
28670OCT     C157339  10.878   9.823  19.369 -0.1058 -0.0344  0.1368
28670OCT     C257340  10.454  10.051  19.325 -0.0619  0.2867  0.0752
28671OCT     C157341  15.295  18.327  22.356  0.0262  0.0319 -0.0131
28671OCT     C257342  14.924  18.095  22.465 -0.0777 -0.1584 -0.2895
28672OCT     C157343  18.789   1.650  16.858  0.1731 -0.0282  0.1327
28672OCT     C257344  19.003   1.241  17.026 -0.1061 -0.0987  0.1682
28673OCT     C157345  22.132  13.660  18.186  0.1015  0.1941 -0.0630
28673OCT     C257346  21.939  14.074  18.032  0.4317  0.0354  0.1540
28674OCT     C157347   9.956  10.151   4.820  0.0914 -0.0692  0.2160
28674OCT     C257348   9.858   9.800   5.100 -0.1114 -0.3148  0.2648
28675OCT     C157349   6.782  17.038  18.923 -0.0965 -0.3324 -0.0126
28675OCT     C257350   7.090  17.268  18.740  0.0427 -0.2515 -0.0550
28676OCT     C157351  22.732  17.491  22.449  0.2066  0.0592  0.2119
28676OCT     C257352  22.300  17.353  22.500  0.4412 -0.2412  0.1627
28677OCT     C157353  13.400  15.127  20.270 -0.3494  0.0083 -0.2517
28677OCT     C257354  12.931  15.004  20.265  0.1314  0.1342  0.0017
28678OCT     C157355   4.817   9.169  19.260 -0.2481 -0.1022 -0.2921
28678OCT     C257356   4.432   9.053  19.448 -0.1774  0.3720 -0.4441
28679OCT     C157357  19.890  13.851  12.819 -0.0981  0.1043  0.1311
28679OCT     C257358  19.802  13.474  13.060  0.1302  0.1192 -0.0304
28680OCT     C157359   7.631  20.168  12.421 -0.0958 -0.2162  0.0302
28680OCT     C257360   7.361  19.896  12.284  0.1473  0.0493 -0.0957
28681OCT     C157361  12.328   8.662   7.629 -0.0216  0.1864  0.0702
28681OCT     C257362  12.460   9.086   7.782  0.3397 -0.3080  0.3692
28682OCT     C157363  16.526  15.980  20.846 -0.2357 -0.1497  0.2093
28682OCT     C257364  16.698  16.415  20.740  0.0918  0.2845 -0.2891
28683OCT     C157365   0.057  17.493   9.077 -0.2045 -0.0565  0.1750
28683OCT     C257366   0.342  17.851   8.905 -0.0466  0.1195  0.1518
28684OCT     C157367   1.216  15.897   9.082 -0.1084 -0.1577  0.0937
28684OCT     C257368   1.563  15.877   8.787  0.1788 -0.2355  0.1309
28685OCT     C157369  12.663  16.200   9.014 -0.1161 -0.0566 -0.4614
28685OCT     C257370  12.699  15.946   9.475 -0.0754 -0.0793 -0.1086
28686OCT     C157371   3.783  22.994  13.647  0.2294 -0.2739  0.1108
28686OCT     C257372   3.401  23.308  13.745  0.1019 -0.2694  0.3773
28687OCT     C157373  16.962  13.766  21.456 -0.1359  0.1526  0.2547
28687OCT     C257374  17.208  13.397  21.234  0.1581 -0.3817  0.1514
28688OCT     C157375   4.093   5.322  11.740  0.0261 -0.0537  0.1214
28688OCT     C257376   3.987   5.300  11.241  0.2460  0.0384  0.0495
28689OCT     C157377  16.223   0.457   6.276 -0.0978  0.3183 -0.1768
28689OCT     C257378  15.754   0.578   6.402  0.1910  0.1201  0.1581
28690OCT     C157379   7.507  23.008   3.765  0.0757 -0.1593  0.0888
28690OCT     C257380   7.377  22.579   3.788  0.3171 -0.3569  0.0441
28691OCT     C157381  20.196  20.483  21.748  0.5763 -0.0466 -0.3007
28691OCT     C257382  20.599  20.563  21.990  0.5894 -0.1130 -0.0526
28692OCT     C157383  23.086   9.300  22.965 -0.4129 -0.5145  0.2056
28692OCT     C257384  23.029   9.715  23.192 -0.0375 -0.0923 -0.2835
28693OCT     C157385   5.208  18.513   7.465  0.3728  0.4030 -0.2775
28693OCT     C257386   4.863  18.803   7.478  0.0955 -0.2425  0.1504
28694OCT     C157387  20.086  11.805  19.322  0.2370  0.1151 -0.0026
28694OCT     C257388  19.967  11.966  19.739 -0.2040  0.0488  0.0696
28695OCT     C157389   6.792   1.541  14.270 -0.0949 -0.0428 -0.5137
28695OCT     C257390   6.613   1.935  14.510 -0.2187  0.1010 -0.0544
28696OCT     C157391  21.035   4.133   8.172  0.1766 -0.0589 -0.0310
28696OCT     C257392  20.644   3.981   7.991  0.0375 -0.1081  0.2938
28697OCT     C157393   7.758  10.335   1.184 -0.0000 -0.2063  0.5733
28697OCT     C257394   7.935   9.915   1.381 -0.0252 -0.0120 -0.1217
28698OCT     C157395   5.903  17.232   4.109 -0.3545  0.0739  0.3858
28698OCT     C257396   5.622  16.858   4.032  0.2489  0.0821  0.1490
28699OCT     C157397  16.131   9.351   8.778 -0.5008  0.2990  0.0899
28699OCT     C257398  16.154   9.803   8.585  0.0490 -0.1210  0.0432
28700OCT     C157399  16.825  14.410   3.287 -0.3883 -0.1706 -0.1124
28700OCT     C257400  16.442  14.177   3.283  0.0209  0.2370  0.2833
28701OCT     C157401   9.959  17.260   8.872  0.2073 -0.5623  0.1064
28701OCT     C257402  10.317  17.155   8.683 -0.0115  0.0232  0.0569
28702OCT     C157403   4.311   9.559  10.555 -0.1894 -0.3257  0.2796
28702OCT     C257404   4.615   9.736  10.262  0.1135 -0.0504 -0.0498
28703OCT     C157405  23.713  22.039  16.005 -0.0408  0.1014  0.0802
28703OCT     C257406   0.200  22.382  15.794 -0.1034 -0.1172  0.1119
28704OCT     C157407   1.089  14.392  20.887 -0.0058  0.4303  0.0887
28704OCT     C257408   1.159  13.960  20.700 -0.0843  0.0092  0.3233
28705OCT     C157409   6.367  23.735   9.704 -0.0949 -0.2919  0.0035
28705OCT     C257410   6.493   0.082   9.274  0.1862 -0.3703  0.1493
28706OCT     C157411   0.591   6.122  22.322  0.0076  0.2380  0.3640
28706OCT     C257412   0.374   6.013  22.720 -0.3623 -0.2754 -0.2631
28707OCT     C157413   1.375  13.704   1.933  0.1199  0.2728  0.1226
28707OCT     C257414   0.964  13.402   1.854 -0.0906 -0.1307  0.2816
28708OCT     C157415  19.214  16.399  17.600 -0.2455  0.0403 -0.3354
28708OCT     C257416  18.840  16.603  17.773 -0.0267  0.0227 -0.0252
28709OCT     C157417   0.742   8.359  19.114  0.0589 -0.2108  0.0026
28709OCT     C257418   0.963   8.776  19.154 -0.1156 -0.3262 -0.1072
28710OCT     C157419  22.706  11.637   2.553  0.1937 -0.4026  0.2942
28710OCT     C257420  22.632  12.088   2.522  0.0952 -0.0889 -0.0816
28711OCT     C157421   7.617  15.208  17.399  0.0349  0.1994  0.0561
28711OCT     C257422   7.774  14.795  17.537  0.5288 -0.4332  0.0849
28712OCT     C157423  15.063  12.935  21.914 -0.4318 -0.1496  0.0224
28712OCT     C257424  14.682  12.936  22.202 -0.1786 -0.1416 -0.3276
28713OCT     C157425  19.219  13.527  23.700 -0.0037  0.0366 -0.0196
28713OCT     C257426  19.143  13.958  23.716 -0.2623 -0.1376 -0.0341
28714OCT     C157427   4.821  11.054  12.923  0.0807 -0.0948  0.0742
28714OCT     C257428   4.665  10.832  13.269  0.4421  0.2423 -0.3232
28715OCT     C157429  21.901  10.434   4.023 -0.0805 -0.1445  0.1102
28715OCT     C257430  21.746  10.126   3.676 -0.0316  0.2215  0.1028
28716OCT     C157431  20.896  17.218  14.171 -0.1427 -0.0995 -0.2725
28716OCT     C257432  20.751  17.160  14.582  0.0241 -0.2841  0.1421
28717OCT     C157433   8.606  16.254  20.511 -0.3427  0.0396  0.0658
28717OCT     C257434   8.611  15.888  20.200 -0.3743  0.3430  0.3014
28718OCT     C157435   4.701   9.588  20.984 -0.2539  0.0590  0.0224
28718OCT     C257436   4.943   9.462  20.578 -0.5218 -0.2150 -0.1553
28719OCT     C157437  20.362  15.572   9.522  0.1371 -0.3289 -0.1070
28719OCT     C257438  20.646  15.910   9.649 -0.0324 -0.2584 -0.2114
28720OCT     C157439  21.779  17.687  21.063 -0.0560 -0.1245  0.0453
28720OCT     C257440  21.431  18.007  21.173  0.0544 -0.1745  0.0458
28721OCT     C157441  13.930  11.662  13.916 -0.2275  0.0730  0.2724
28721OCT     C257442  14.044  11.959  14.305  0.0552  0.0479 -0.0942
28722OCT     C157443  11.884  17.631  14.158  0.1208 -0.5093  0.1017
28722OCT     C257444  11.907  17.743  14.562 -0.4729  0.0040 -0.2359
28723OCT     C157445   0.824   8.959   6.480  0.0499 -0.1247  0.2690
28723OCT     C257446   1.074   9.131   6.825  0.2657 -0.0916 -0.0537
28724OCT     C157447   6.978   6.204   3.573 -0.1646 -0.0818 -0.2452
28724OCT     C257448   6.559   6.027   3.444 -0.0804  0.1256  0.1981
28725OCT     C157449  19.259   3.658  22.326  0.1036 -0.1908  0.1629
28725OCT     C257450  19.356   3.827  22.753  0.2269  0.1207  0.4020
28726OCT     C157451  12.862  22.546  19.803  0.2750  0.0470  0.1175
28726OCT     C257452  12.981  22.963  19.806  0.0411 -0.0722  0.0897
28727OCT     C157453   4.839  19.987  20.753  0.1270 -0.5475 -0.3956
28727OCT     C257454   4.472  19.819  21.051 -0.2061 -0.2174 -0.1072
28728OCT     C157455   0.724  14.436  14.768  0.0612 -0.0637  0.1418
28728OCT     C257456   1.041  14.304  14.449 -0.1161  0.0606 -0.1271
28729OCT     C157457   0.940   5.456   5.489 -0.2759  0.4220  0.3437
28729OCT     C257458   1.230   5.164   5.351  0.1918 -0.0970  0.0348
28730OCT     C157459   8.949  19.144  19.958  0.0393 -0.0208 -0.1460
28730OCT     C257460   9.358  19.181  19.688  0.0960  0.3362 -0.0417
28731OCT     C157461  22.787   6.138  11.470  0.0159 -0.2069 -0.1250
28731OCT     C257462  23.141   6.245  11.231  0.1681  0.0200 -0.1824
28732OCT     C157463   1.177   9.811   5.925 -0.4273 -0.1064  0.0707
28732OCT     C257464   1.617   9.748   5.819 -0.0654  0.2506  0.2941
28733OCT     C157465  16.862   1.955  22.413  0.0304  0.0770  0.1598
28733OCT     C257466  17.203   2.085  22.122 -0.1707  0.1785 -0.3561
28734OCT     C157467  11.142  13.160   7.463 -0.4780 -0.0005  0.2489
28734OCT     C257468  10.831  13.249   7.128 -0.5153 -0.0452  0.2336
28735OCT     C157469  18.121  14.485  23.640  0.0086  0.0883  0.0001
28735OCT     C257470  18.563  14.617   0.006 -0.1375 -0.1640  0.0549
28736OCT     C157471   5.769   5.424   9.610 -0.0383  0.5332 -0.1584
28736OCT     C257472   5.839   5.377  10.053 -0.2474  0.2619 -0.1951
28737OCT     C157473  16.942  16.204  13.496  0.0137  0.1245 -0.1197
28737OCT     C257474  16.709  16.061  13.909 -0.2260 -0.1572 -0.2171
28738OCT     C157475  20.248   4.882   0.282 -0.1382 -0.1523 -0.0612
28738OCT     C257476  20.404   5.037  23.632  0.1463 -0.2009  0.0749
28739OCT     C157477  19.077  19.516  16.168 -0.2025  0.1364  0.1819
28739OCT     C257478  19.507  19.434  16.287 -0.2596 -0.3322 -0.0349
28740OCT     C157479   5.451   2.995   0.549 -0.2127  0.1087  0.0363
28740OCT     C257480   5.728   2.951   0.155  0.1763 -0.0771  0.1259
28741OCT     C157481  11.895  22.117   0.096 -0.3848 -0.2566  0.0112
28741OCT     C257482  12.383  22.107   0.094  0.0708  0.0795 -0.1346
28742OCT     C157483   8.322  17.867  21.461  0.1343 -0.4536 -0.1069
28742OCT     C257484   7.970  17.771  21.156 -0.2297 -0.1457  0.2346
28743OCT     C157485  12.301   7.594   3.405  0.4054 -0.0151 -0.2189
28743OCT     C257486  12.167   8.046   3.532  0.0375 -0.0714 -0.0926
28744OCT     C157487   2.298  17.901  13.160  0.0611  0.3486  0.1660
28744OCT     C257488   2.676  18.167  13.146 -0.1135 -0.2136 -0.2738
28745OCT     C157489  11.018   4.026   3.300  0.1413 -0.2236 -0.0066
28745OCT     C257490  10.982   3.795   3.711 -0.0331 -0.3469  0.1261
28746OCT     C157491  20.006  19.838  17.946 -0.4487  0.2731 -0.1522
28746OCT     C257492  19.563  19.798  17.856  0.0833 -0.2699 -0.0720
28747OCT     C157493  21.975  21.275  17.837  0.1901 -0.0365 -0.1171
28747OCT     C257494  22.363  21.206  17.788 -0.1349 -0.0801  0.1066
28748OCT     C157495   3.360  11.717  22.103  0.1184  0.0645 -0.0083
28748OCT     C257496   3.673  12.057  22.027 -0.2164  0.2371 -0.2581
28749OCT     C157497   7.169   3.537  23.183 -0.0437  0.1109 -0.0335
28749OCT     C257498   7.325   3.990  23.306 -0.0035 -0.2041 -0.0595
28750OCT     C157499  10.130  11.237  19.495  0.1533 -0.0629 -0.0124
28750OCT     C257500   9.809  11.108  19.792  0.1286 -0.3207  0.1344
28751OCT     C157501  12.068   3.260  19.627  0.1635 -0.1538 -0.1377
28751OCT     C257502  12.050   3.655  19.914  0.0449 -0.5333 -0.3698
28752OCT     C157503  18.739  23.408  11.901  0.3832 -0.0729 -0.0591
28752OCT     C257504  18.676  23.606  11.433  0.0970 -0.2043  0.2518
28753OCT     C157505  19.516  17.878  19.579  0.2507 -0.2577 -0.2053
28753OCT     C257506  19.332  17.686  19.238 -0.0771  0.2940 -0.2868
28754OCT     C157507  12.039  11.134   3.577  0.0622  0.0523  0.6845
28754OCT     C257508  11.639  10.927   3.629  0.0325  0.1705 -0.2978
28755OCT     C157509   4.422  18.794  21.194 -0.3417  0.2148  0.2646
28755OCT     C257510   4.640  18.759  20.792 -0.3139  0.3232  0.0159
28756OCT     C157511   7.510   0.556  23.079  0.1736 -0.0009 -0.1388
28756OCT     C257512   7.574   0.993  23.040 -0.0956  0.5680 -0.0417
28757OCT     C157513  13.931  19.224   0.347  0.1282 -0.0784 -0.2708
28757OCT     C257514  14.101  19.065   0.729  0.3137  0.2558  0.0915
28758OCT     C157515  12.025  12.689   8.220  0.2331  0.1820  0.2219
28758OCT     C257516  12.139  12.311   8.500  0.0258  0.1537 -0.1303
28759OCT     C157517  20.204  13.215   2.863  0.1702  0.0431  0.2964
28759OCT     C257518  20.379  13.059   2.449 -0.2312 -0.0705 -0.0542
28760OCT     C157519  15.402   3.616   7.460 -0.2483  0.1117 -0.2289
28760OCT     C257520  15.497   3.738   7.020 -0.2804  0.4489 -0.2872
28761OCT     C157521   1.219  22.620  12.705 -0.2673 -0.1365 -0.4052
28761OCT     C257522   1.051  22.213  12.939  0.2136 -0.0853  0.2174
28762OCT     C157523  11.437  21.492  22.092 -0.1871  0.1548  0.0653
28762OCT     C257524  11.100  21.406  22.430 -0.0300 -0.2928  0.2106
28763OCT     C157525   4.076  21.916   8.283  0.1643  0.0775 -0.2092
28763OCT     C257526   3.676  21.908   8.543 -0.1090 -0.0438 -0.1605
28764OCT     C157527   5.595  13.393   2.287  0.0637 -0.2261 -0.1054
28764OCT     C257528   5.316  13.781   2.334 -0.2533  0.2455  0.0860
28765OCT     C157529   8.893  12.125   5.897  0.3455  0.0856 -0.1121
28765OCT     C257530   8.580  11.835   5.737  0.0612  0.0378 -0.2704
28766OCT     C157531   9.269  19.255  10.720  0.3120  0.4231 -0.3224
28766OCT     C257532   9.333  18.856  10.949 -0.3685 -0.3510 -0.2412
28767OCT     C157533   1.598   1.517   6.919 -0.2936 -0.1227  0.0072
28767OCT     C257534   1.465   1.077   6.929 -0.0540  0.0510  0.1274
28768OCT     C157535  16.432  10.587  21.442  0.2829  0.0017 -0.1657
28768OCT     C257536  16.578  10.732  20.945  0.1230 -0.0708  0.0814
28769OCT     C157537  14.767  10.616  17.600  0.2234  0.1394 -0.1667
28769OCT     C257538  14.436  10.719  17.940  0.0740 -0.2804  0.0605
28770OCT     C157539  12.694  11.621  13.870 -0.1145  0.0717 -0.0333
28770OCT     C257540  12.459  11.762  13.490  0.1051 -0.0716  0.4065
28771OCT     C157541   9.201  14.951  13.602 -0.2626 -0.0772 -0.0608
28771OCT     C257542   9.359  15.365  13.840 -0.1451  0.1594  0.0311
28772OCT     C157543  13.083   3.648  10.854 -0.1128  0.0887 -0.0589
28772OCT     C257544  13.017   3.521  11.289 -0.2121 -0.0072  0.2015
28773OCT     C157545   9.664   6.791  18.012 -0.2949 -0.3928  0.0215
28773OCT     C257546   9.459   7.190  18.260 -0.0680  0.2894 -0.0867
28774OCT     C157547   3.552   1.552   6.595 -0.0264 -0.2863 -0.1461
28774OCT     C257548   3.805   1.862   6.798  0.0488 -0.1053  0.1746
28775OCT     C157549   4.564  11.823  16.850  0.0352  0.5019  0.1694
28775OCT     C257550   4.563  12.250  17.079  0.1239 -0.0113 -0.2715
28776OCT     C157551  20.231   8.081   5.287  0.1921  0.1217 -0.4226
28776OCT     C257552  20.100   8.024   5.725 -0.0648 -0.1012 -0.0246
28777OCT     C157553   6.147  11.958   0.742  0.1515 -0.1364  0.1389
28777OCT     C257554   6.133  11.620   0.937  0.1549 -0.1722  0.4048
28778OCT     C157555  21.329   9.182  12.559 -0.0184 -0.0818  0.2570
28778OCT     C257556  21.635   9.414  12.292 -0.3748 -0.1679 -0.0316
28779OCT     C157557  18.828   7.646   7.458 -0.0438 -0.3410  0.0226
28779OCT     C257558  18.515   7.834   7.710  0.2210  0.1284  0.3312
28780OCT     C157559   5.581   0.957  12.546 -0.6204 -0.0550  0.0803
28780OCT     C257560   5.922   0.970  12.857  0.2826  0.1619 -0.1580
28781OCT     C157561   4.793  18.200   3.503  0.1956 -0.6903 -0.0106
28781OCT     C257562   4.615  17.881   3.249 -0.1312 -0.0798 -0.2044
28782OCT     C157563  16.718  18.895  17.552 -0.2852 -0.2878  0.1635
28782OCT     C257564  16.286  18.741  17.531 -0.0067 -0.2256  0.3791
28783OCT     C157565   5.965   2.937   9.830 -0.4207  0.1569  0.1197
28783OCT     C257566   6.362   2.746   9.693 -0.0107  0.1266  0.0260
28784OCT     C157567  22.244   8.384  22.756  0.3123  0.2635 -0.2617
28784OCT     C257568  22.307   8.157  22.284  0.2090  0.0242  0.0974
28785OCT     C157569   8.833  19.842   3.635 -0.5030  0.0619  0.0540
28785OCT     C257570   9.094  19.494   3.794 -0.0812  0.1759  0.1987
28786OCT     C157571  14.492  23.288  22.975 -0.1131  0.0339  0.3169
28786OCT     C257572  14.175  23.553  22.793 -0.0221 -0.2388 -0.2812
28787OCT     C157573  11.597  19.040  19.910  0.0095  0.4836 -0.1861
28787OCT     C257574  11.575  18.737  20.253 -0.1009 -0.1557 -0.2095
28788OCT     C157575   7.884  17.962   0.041  0.0397  0.0326  0.1461
28788OCT     C257576   7.412  18.032  23.669 -0.1507 -0.3198 -0.1929
28789OCT     C157577  19.486  20.722  19.028 -0.2242  0.1970  0.1088
28789OCT     C257578  19.592  21.094  18.743 -0.3286 -0.0655  0.0858
28790OCT     C157579   6.798  20.922   9.294 -0.2300  0.0963 -0.1074
28790OCT     C257580   6.534  21.242   9.414  0.0933  0.0195 -0.3292
28791OCT     C157581   5.432   0.079  19.622  0.0256  0.2676  0.0309
28791OCT     C257582   5.597   0.177  19.222 -0.1253  0.1693 -0.1719
28792OCT     C157583   7.747   9.827   7.123  0.0694  0.0478  0.0555
28792OCT     C257584   8.104  10.094   7.329  0.0490 -0.0569  0.4232
28793OCT     C157585  22.703   1.598   6.405 -0.0611  0.1609 -0.3981
28793OCT     C257586  22.598   1.435   6.869  0.4096 -0.1327 -0.2179
28794OCT     C157587  17.196  11.778   5.792  0.0546 -0.3478  0.1315
28794OCT     C257588  17.588  11.636   5.995 -0.1444 -0.0460 -0.0103
28795OCT     C157589  12.011  19.975  17.901  0.0346 -0.0105 -0.3113
28795OCT     C257590  11.691  20.032  18.282 -0.0861  0.0529 -0.4066
28796OCT     C157591  11.671   5.222  18.674 -0.1094  0.0413 -0.2715
28796OCT     C257592  11.617   5.660  18.849 -0.1791 -0.2532  0.3666
28797OCT     C157593   9.865  16.595  18.291 -0.0179  0.0004  0.3098
28797OCT     C257594   9.508  16.616  17.967  0.0706 -0.4644 -0.2530
28798OCT     C157595  18.689   9.566  13.943  0.1623 -0.0908 -0.0631
28798OCT     C257596  18.388   9.525  13.563  0.0509 -0.5537 -0.1259
28799OCT     C157597  22.426  12.642  19.459 -0.0559  0.0069 -0.1780
28799OCT     C257598  22.640  12.855  19.124  0.0168 -0.0256  0.1419
28800OCT     C157599   0.168  10.618   4.580  0.0306 -0.0555 -0.1017
28800OCT     C257600   0.543  10.714   4.859  0.0440  0.2159  0.2368
28801OCT     C157601   8.042  13.355  21.481 -0.1074  0.1730 -0.0284
28801OCT     C257602   8.101  13.001  21.821 -0.0708  0.1091  0.0267
28802OCT     C157603   5.945   8.032   0.882  0.0852  0.1895 -0.2435
28802OCT     C257604   6.327   7.767   0.725  0.0200 -0.1244 -0.1948
28803OCT     C157605  19.426   4.673  11.267  0.1264 -0.0380  0.1822
28803OCT     C257606  19.083   4.593  11.553 -0.1698  0.4855 -0.0904
28804OCT     C157607   3.262  20.433   0.219 -0.1517 -0.1466 -0.2130
28804OCT     C257608   3.395  20.031   0.249 -0.1917 -0.3442  0.1589
28805OCT     C157609   4.434   6.608   4.025 -0.0870 -0.2554 -0.1892
28805OCT     C257610   4.499   6.367   3.680 -0.0606  0.1287 -0.0675
28806OCT     C157611  23.187  11.459   9.352 -0.0821  0.0648  0.0092
28806OCT     C257612  23.518  11.794   9.303  0.0910  0.3395 -0.2217
28807OCT     C157613  12.622   1.301  14.368 -0.2209  0.2498  0.2984
28807OCT     C257614  12.722   1.061  14.735  0.2837 -0.0467  0.0403
28808OCT     C157615  20.450   2.098   7.880 -0.0193 -0.2359  0.0571
28808OCT     C257616  20.414   1.886   8.279  0.0995 -0.0281 -0.0209
28809OCT     C157617   8.026  16.921   9.888 -0.2975  0.0014  0.0839
28809OCT     C257618   8.072  16.457  10.093  0.0541 -0.0896 -0.1648
28810OCT     C157619   0.850  14.621  22.166 -0.0378 -0.2172 -0.0374
28810OCT     C257620   0.572  14.546  21.811  0.2426 -0.0843  0.1505
28811OCT     C157621  19.297   4.852  23.655  0.3473  0.3899  0.0689
28811OCT     C257622  19.565   4.598  23.404  0.1533  0.0317 -0.0967
28812OCT     C157623  11.190  18.298  11.508  0.0069 -0.2771 -0.2841
28812OCT     C257624  10.940  18.702  11.426 -0.0567 -0.2232 -0.2690
28813OCT     C157625  21.856  15.101   4.431 -0.0672 -0.2156  0.2222
28813OCT     C257626  21.526  15.341   4.193 -0.2692 -0.3231 -0.1418
28814OCT     C157627  14.009  19.801  15.506  0.1961 -0.2646 -0.1775
28814OCT     C257628  13.985  20.299  15.510  0.1766  0.0054 -0.0707
28815OCT     C157629  12.563  10.415  13.899 -0.0872 -0.0005 -0.5648
28815OCT     C257630  12.995  10.347  14.036  0.0350 -0.0953 -0.0111
28816OCT     C157631  18.411  13.284   2.349  0.0824  0.4494  0.3398
28816OCT     C257632  18.888  13.256   2.184 -0.1407 -0.2250  0.1453
28817OCT     C157633  17.898  13.393  17.256 -0.0015  0.0460  0.0186
28817OCT     C257634  18.336  13.633  17.362  0.1246  0.1983  0.0528
28818OCT     C157635   9.317   1.418   2.057  0.1472  0.0675  0.0094
28818OCT     C257636   9.176   1.189   2.448 -0.6413  0.0335  0.1211
28819OCT     C157637  17.419   9.379  23.560 -0.0307 -0.0407 -0.5050
28819OCT     C257638  17.034   9.381   0.107  0.1744  0.3055  0.3582
28820OCT     C157639   6.331   0.207  11.939 -0.2145 -0.3709 -0.0504
28820OCT     C257640   6.760   0.257  11.816 -0.1307  0.1644  0.1039
28821OCT     C157641  20.163  18.042   8.096 -0.3712 -0.1575 -0.2415
28821OCT     C257642  20.170  18.072   7.667  0.0638 -0.0749  0.0423
28822OCT     C157643   5.502   0.605  10.992 -0.1235 -0.0953 -0.1165
28822OCT     C257644   5.714   0.301  10.708  0.2209  0.1025 -0.1093
28823OCT     C157645   1.387   3.710  17.132  0.2441 -0.0910  0.0189
28823OCT     C257646   1.504   4.157  17.136 -0.1085 -0.0321 -0.2117
28824OCT     C157647  20.103  22.401   4.696  0.1251  0.0719 -0.2402
28824OCT     C257648  20.089  22.448   5.124 -0.2219  0.0116 -0.3174
28825OCT     C157649  14.786  19.405   5.768  0.2805 -0.5319  0.3277
28825OCT     C257650  14.411  19.120   5.581  0.0135  0.0384 -0.0647
28826OCT     C157651  18.760   5.548  11.471  0.1013 -0.1198  0.2308
28826OCT     C257652  19.028   5.941  11.660  0.2381 -0.0188  0.2807
28827OCT     C157653   7.499   2.473   2.320  0.0578 -0.0951  0.0105
28827OCT     C257654   7.214   2.625   2.706 -0.0226  0.1613  0.1543
28828OCT     C157655  23.651   4.591  14.971 -0.2380  0.1340 -0.1478
28828OCT     C257656   0.411   4.634  15.071 -0.2413 -0.3880  0.2665
28829OCT     C157657  18.172  19.108  16.224 -0.1494  0.0765  0.0054
28829OCT     C257658  17.842  18.790  16.252 -0.0023  0.1031  0.2180
28830OCT     C157659  10.411  18.056  17.877  0.2880  0.2031  0.3089
28830OCT     C257660  10.479  18.359  17.542 -0.1966 -0.3608  0.3390
28831OCT     C157661   8.423  10.935   9.629 -0.2202 -0.4687 -0.1115
28831OCT     C257662   8.089  10.672   9.742  0.0983 -0.2218 -0.3433
28832OCT     C157663   3.729  14.220  12.110  0.0396  0.2268 -0.2766
28832OCT     C257664   4.127  14.360  12.390 -0.2471 -0.2784  0.1044
28833OCT     C157665   1.591  13.174   9.354 -0.1278 -0.2027  0.3274
28833OCT     C257666   1.791  13.062   8.943 -0.1060 -0.1563 -0.3307
28834OCT     C157667  19.966   6.379   0.675  0.1332  0.0922 -0.0151
28834OCT     C257668  19.935   6.799   0.413 -0.2177  0.1044 -0.0166
28835OCT     C157669  18.900   8.629  16.838 -0.5028  0.1055  0.0992
28835OCT     C257670  18.740   8.206  16.991  0.0538 -0.1341 -0.0645
28836OCT     C157671  11.366   2.273   0.196 -0.1949 -0.0459 -0.1373
28836OCT     C257672  10.985   2.456   0.234  0.2422  0.0254  0.1884
28837OCT     C157673   8.390   0.726  10.730 -0.0362  0.1184 -0.2513
28837OCT     C257674   8.052   0.849  10.487 -0.0734 -0.1796 -0.0068
28838OCT     C157675   3.881  14.439   9.233  0.0120 -0.4134  0.1283
28838OCT     C257676   4.288  14.294   9.252  0.2258 -0.3334 -0.2215
28839OCT     C157677  22.146   3.764  16.631 -0.0000  0.0904 -0.5882
28839OCT     C257678  22.272   4.007  16.226  0.2449  0.0313  0.3510
28840OCT     C157679   0.936   0.073   1.420  0.0218 -0.0222  0.0028
28840OCT     C257680   1.172   0.396   1.661  0.1224 -0.1340 -0.2129
28841OCT     C157681   4.308  17.512   8.026 -0.4472  0.2046 -0.0397
28841OCT     C257682   3.894  17.443   7.748  0.0123 -0.2553  0.2279
28842OCT     C157683  20.025  17.753  21.737  0.2845 -0.0710 -0.1496
28842OCT     C257684  20.501  17.721  21.648  0.2485 -0.4532 -0.3075
28843OCT     C157685  19.458  16.445  20.552 -0.2896  0.2156  0.2659
28843OCT     C257686  19.336  16.685  20.908  0.2903  0.2595  0.1497
28844OCT     C157687  11.948  14.267  23.303 -0.4470  0.1450  0.2137
28844OCT     C257688  12.285  14.268  23.018 -0.2992  0.0208 -0.1131
28845OCT     C157689  19.325  22.652  21.332  0.2136 -0.1932 -0.3150
28845OCT     C257690  19.647  22.334  21.284  0.0949  0.3876 -0.4212
28846OCT     C157691  19.474  22.795  23.689 -0.1267 -0.1627 -0.1146
28846OCT     C257692  19.043  22.987   0.030 -0.2018 -0.1708 -0.1033
28847OCT     C157693  15.998  10.374   3.543 -0.3469 -0.2032  0.0768
28847OCT     C257694  15.643  10.208   3.853 -0.2407 -0.1875 -0.2485
28848OCT     C157695  22.844  20.001  21.465 -0.0551 -0.0220  0.1207
28848OCT     C257696  22.429  19.780  21.612 -0.1880 -0.2162 -0.3573
28849OCT     C157697   9.852  14.730  21.111 -0.3041  0.2016 -0.0014
28849OCT     C257698  10.207  14.654  21.431  0.0860  0.0854  0.1798
28850OCT     C157699  21.265   8.127   0.653  0.2322 -0.3020 -0.3059
28850OCT     C257700  21.558   7.913   0.964 -0.1138  0.2614 -0.1273
28851OCT     C157701   3.917  11.042   0.737 -0.0173 -0.0325  0.1912
28851OCT     C257702   3.538  11.258   0.596 -0.0622  0.1684  0.0856
28852OCT     C157703  21.237  20.302  14.759  0.1426  0.2671 -0.1296
28852OCT     C257704  21.293  19.846  14.551  0.0177 -0.2436  0.0871
28853OCT     C157705  21.483   4.109  18.239  0.1030 -0.0228 -0.2642
28853OCT     C257706  21.472   3.650  18.131 -0.0481 -0.0155 -0.0035
28854OCT     C157707   8.117   2.212  23.417  0.0416 -0.0440 -0.0444
28854OCT     C257708   7.953   2.441   0.051  0.2848 -0.0403  0.1115
28855OCT     C157709  15.484   3.842  16.176  0.1794 -0.2091 -0.2353
28855OCT     C257710  15.429   3.439  16.286 -0.1134 -0.1649  0.3038
28856OCT     C157711   4.669  17.729  13.588 -0.1693  0.2153 -0.0127
28856OCT     C257712   4.282  17.486  13.686  0.2513  0.2645 -0.0795
28857OCT     C157713  13.136   8.843  18.991  0.0013 -0.2933 -0.0964
28857OCT     C257714  13.401   8.940  19.405 -0.0918  0.0176 -0.1888
28858OCT     C157715   4.268  17.280   7.480  0.0043 -0.2571  0.0982
28858OCT     C257716   4.457  17.726   7.363 -0.2174 -0.1410  0.0947
28859OCT     C157717   1.752   4.665   6.297  0.1229 -0.1699  0.1218
28859OCT     C257718   2.229   4.587   6.364 -0.3191 -0.1259  0.0781
28860OCT     C157719  14.845  22.589   9.170  0.3188  0.0357 -0.3334
28860OCT     C257720  15.183  22.350   9.040 -0.2641  0.2621  0.0464
28861OCT     C157721  13.563  18.459   2.521  0.0541 -0.1503 -0.0347
28861OCT     C257722  13.331  18.164   2.772 -0.0682 -0.1261 -0.3224
28862OCT     C157723  10.582  15.814  15.559  0.0364 -0.0105 -0.3990
28862OCT     C257724  10.191  15.862  15.762 -0.1325  0.0083 -0.1342
28863OCT     C157725   1.474  14.568  21.280 -0.3653 -0.3683  0.1325
28863OCT     C257726   1.588  14.197  21.586  0.2600  0.1203 -0.1631
28864OCT     C157727   4.780   5.715   1.308  0.0291  0.2287  0.0328
28864OCT     C257728   5.110   6.016   1.419 -0.2780 -0.1844 -0.2841
28865OCT     C157729  22.736  23.114  19.344  0.0151 -0.1033  0.2154
28865OCT     C257730  22.561  22.838  18.985  0.2275  0.0555 -0.6737
28866OCT     C157731  15.505   4.692  17.822 -0.5810 -0.0096  0.1190
28866OCT     C257732  15.794   5.002  17.934 -0.0355  0.1224 -0.1414
28867OCT     C157733   6.037  22.938  19.156 -0.2382 -0.0862 -0.0251
28867OCT     C257734   5.685  22.984  19.427  0.2222 -0.2184  0.2095
28868OCT     C157735   5.847  11.837   1.610  0.1461  0.3198  0.2758
28868OCT     C257736   5.385  11.808   1.538  0.2932 -0.0778 -0.0595
28869OCT     C157737  15.070  20.571  10.078 -0.0121  0.1152  0.1832
28869OCT     C257738  15.056  20.439  10.492 -0.3367  0.0889 -0.2115
28870OCT     C157739   2.945  23.269  22.469 -0.0225  0.2513 -0.4730
28870OCT     C257740   2.746  23.569  22.747  0.2280 -0.1383 -0.2308
28871OCT     C157741  17.793  10.780   0.866 -0.0684 -0.2853 -0.1294
28871OCT     C257742  17.617  10.862   1.336 -0.0757  0.0507 -0.0949
28872OCT     C157743  17.679  18.696   9.651 -0.0944  0.1688  0.1879
28872OCT     C257744  18.049  18.577   9.879 -0.0563  0.1725 -0.0401
28873OCT     C157745  20.225  12.359   2.777 -0.1519 -0.3921  0.1706
28873OCT     C257746  19.966  12.742   2.841  0.0161 -0.2691 -0.0016
28874OCT     C157747  11.095  14.409  21.605  0.1105 -0.1951 -0.0819
28874OCT     C257748  10.902  14.007  21.494  0.3502 -0.4105 -0.1438
28875OCT     C157749  16.054  15.251  20.500  0.0796  0.1056  0.2321
28875OCT     C257750  16.264  15.557  20.708 -0.2073 -0.1764  0.1176
28876OCT     C157751   8.464  18.916  10.100  0.0985 -0.0617 -0.3880
28876OCT     C257752   8.525  18.697  10.501 -0.0075 -0.0741  0.1239
28877OCT     C157753  16.520   3.562  21.438 -0.1246 -0.0348  0.3082
28877OCT     C257754  16.242   3.869  21.237 -0.0463 -0.0458  0.3410
28878OCT     C157755   3.952  11.376  11.329 -0.1350 -0.0850 -0.3681
28878OCT     C257756   3.962  11.857  11.249 -0.0891  0.1286 -0.1024
28879OCT     C157757   8.286  19.527  16.314  0.0501 -0.2355 -0.0754
28879OCT     C257758   8.336  19.918  16.595 -0.1717  0.3503 -0.1269
28880OCT     C157759   1.252  16.645   3.214  0.1686 -0.0115 -0.0530
28880OCT     C257760   1.704  16.552   3.404 -0.4600  0.1229  0.0153
28881OCT     C157761   2.189   2.754  15.985 -0.2502  0.1069  0.1178
28881OCT     C257762   1.862   2.956  16.232  0.0255 -0.1975 -0.2846
28882OCT     C157763   3.846   0.558   3.180 -0.2184 -0.0463  0.4385
28882OCT     C257764   3.533   0.918   3.070  0.1359 -0.1467  0.0337
28883OCT     C157765  11.762   6.540   6.583  0.0829 -0.0429 -0.0866
28883OCT     C257766  11.382   6.555   6.929  0.0257  0.2528 -0.1869
28884OCT     C157767  21.389   6.884   7.482 -0.1147  0.1266 -0.1016
28884OCT     C257768  21.279   6.748   7.033 -0.0261  0.1500 -0.1352
28885OCT     C157769  10.566  21.132   7.464  0.1410  0.2593 -0.1678
28885OCT     C257770  10.991  20.960   7.663  0.2067 -0.1615 -0.0863
28886OCT     C157771   9.446   9.952   6.159 -0.3853  0.0643 -0.0055
28886OCT     C257772   9.242  10.349   6.213  0.2132 -0.0307  0.0841
28887OCT     C157773  23.342   9.629   9.033 -0.0818 -0.5927  0.1608
28887OCT     C257774  22.888   9.476   9.089 -0.2015  0.2695 -0.1747
28888OCT     C157775  11.994  17.729  12.221 -0.2256  0.0868 -0.2144
28888OCT     C257776  12.080  17.524  11.796  0.2634 -0.2569 -0.0520
28889OCT     C157777   3.250  15.603  10.204 -0.0174  0.0175 -0.0577
28889OCT     C257778   2.916  15.490   9.880  0.0652 -0.2177 -0.2562
28890OCT     C157779  10.431  18.582  18.291 -0.1300 -0.1034 -0.0471
28890OCT     C257780  10.389  18.121  18.344 -0.0186  0.2164 -0.1699
28891OCT     C157781  13.695  11.143  11.845  0.1488 -0.0416  0.0884
28891OCT     C257782  13.294  11.365  11.769  0.3612 -0.0261 -0.0005
28892OCT     C157783  16.570  20.964  22.293  0.0590 -0.2054 -0.1394
28892OCT     C257784  16.949  20.809  22.445 -0.0777 -0.0233 -0.2915
28893OCT     C157785  23.019   9.878  21.085  0.4023 -0.0976  0.0347
28893OCT     C257786  22.983   9.954  21.607 -0.1122  0.1222 -0.0549
28894OCT     C157787  22.842  22.355  17.735 -0.0959 -0.2457  0.2457
28894OCT     C257788  22.792  22.124  18.141 -0.0306 -0.1692  0.0743
28895OCT     C157789   1.586   7.246   0.991  0.1296  0.3428 -0.0523
28895OCT     C257790   1.152   7.233   0.815  0.3493 -0.0846 -0.1632
28896OCT     C157791   5.674   7.816  16.957 -0.3368 -0.0159  0.0059
28896OCT     C257792   5.257   7.983  16.977  0.1829  0.5860  0.0931
28897OCT     C157793  14.044  16.062  22.933  0.1197 -0.1081 -0.1527
28897OCT     C257794  13.836  15.890  22.611  0.1146  0.1044 -0.2134
28898OCT     C157795   6.933  19.574   9.650 -0.2713 -0.2417 -0.1155
28898OCT     C257796   6.551  19.769   9.515 -0.2356 -0.0715  0.1270
28899OCT     C157797  11.174  11.166  13.798 -0.0398 -0.0195  0.0682
28899OCT     C257798  11.413  11.145  13.405  0.1493 -0.0841 -0.0479
28900OCT     C157799   9.166  15.963   3.328 -0.1543 -0.2840  0.1821
28900OCT     C257800   9.500  15.949   3.669  0.0909 -0.3031 -0.2986
28901OCT     C157801   1.391   0.605  21.098 -0.1835  0.1278  0.0502
28901OCT     C257802   1.357   1.038  21.225 -0.3466 -0.3150 -0.2041
28902OCT     C157803  16.491  13.823  11.577 -0.0096  0.0230 -0.0109
28902OCT     C257804  16.802  13.446  11.779  0.3885  0.0800  0.1662
28903OCT     C157805  17.566  23.353   7.541 -0.1611 -0.0118 -0.1232
28903OCT     C257806  17.520  23.042   7.206 -0.1494 -0.0502  0.0242
28904OCT     C157807   0.745  19.720  20.623  0.2183 -0.1510  0.1309
28904OCT     C257808   1.031  19.461  20.328 -0.4705  0.0058 -0.1249
28905OCT     C157809  10.049   4.038   5.818  0.0186 -0.2681 -0.4141
28905OCT     C257810  10.435   3.809   5.962 -0.0994 -0.0121 -0.2158
28906OCT     C157811  10.707  14.691  18.046  0.0093 -0.1075 -0.0900
28906OCT     C257812  11.021  14.634  18.378 -0.0056  0.0938 -0.0120
28907OCT     C157813   1.245   8.371  19.058 -0.0911  0.3068 -0.8406
28907OCT     C257814   1.034   8.005  18.788 -0.2067  0.0872 -0.4075
28908OCT     C157815  23.245   9.219   6.741  0.3551  0.0189  0.5454
28908OCT     C257816  23.571   9.542   6.824 -0.1182  0.2399  0.1012
28909OCT     C157817  14.711   6.385   9.707  0.0776 -0.1703  0.1402
28909OCT     C257818  14.572   6.644  10.022  0.0651  0.2444 -0.0058
28910OCT     C157819   5.013  15.472   6.445 -0.1308  0.0593 -0.0163
28910OCT     C257820   5.259  15.284   6.793 -0.4046  0.0190 -0.0153
28911OCT     C157821   7.598  22.856  17.504 -0.2781 -0.1021  0.2817
28911OCT     C257822   7.728  22.441  17.519 -0.2241 -0.3202  0.1517
28912OCT     C157823  20.013  16.337   7.491  0.0290  0.4772  0.3825
28912OCT     C257824  20.121  16.716   7.748  0.0275  0.2399 -0.2050
28913OCT     C157825   8.139  21.694  13.030  0.1593 -0.0116  0.4944
28913OCT     C257826   8.224  21.527  12.584  0.1665 -0.1662 -0.1250
28914OCT     C157827   7.194  21.193  14.898 -0.1562 -0.0527  0.0195
28914OCT     C257828   7.274  21.275  14.475  0.0142 -0.2055 -0.0917
28915OCT     C157829  14.783  18.260  12.692  0.0614  0.0752 -0.0212
28915OCT     C257830  14.868  18.415  12.231 -0.1216 -0.0227 -0.1477
28916OCT     C157831   3.325   4.555   9.339  0.2007  0.2634 -0.1513
28916OCT     C257832   3.220   4.222   9.654 -0.0817  0.0158 -0.0691
28917OCT     C157833   4.055   2.341  12.970  0.3136  0.0482  0.0415
28917OCT     C257834   4.381   2.009  12.951 -0.0231 -0.2087  0.1931
28918OCT     C157835  18.061  22.795  22.392  0.2053  0.0202  0.2717
28918OCT     C257836  17.961  22.343  22.215 -0.2994  0.0619 -0.1436
28919OCT     C157837  11.337  14.343  22.069 -0.1437  0.1280 -0.2443
28919OCT     C257838  11.579  14.117  21.758  0.2650  0.0140 -0.0072
28920OCT     C157839   6.157  15.476   7.177 -0.0121 -0.0320 -0.1585
28920OCT     C257840   5.971  15.395   6.732  0.2580 -0.3984  0.0295
28921OCT     C157841  15.758  23.481   8.836  0.2245 -0.0798 -0.1514
28921OCT     C257842  15.868   0.123   8.562  0.0972 -0.1377 -0.1913
28922OCT     C157843  21.022   3.667   3.904  0.0237 -0.0426  0.0631
28922OCT     C257844  20.672   3.727   3.617  0.0640 -0.2126 -0.1967
28923OCT     C157845  19.009   2.682  11.119  0.0034  0.0912  0.0286
28923OCT     C257846  19.425   2.845  11.159 -0.0721 -0.1553  0.0424
28924OCT     C157847  13.777  20.956  18.977 -0.0427 -0.0677 -0.0821
28924OCT     C257848  13.906  21.243  18.578  0.1168  0.4675  0.3342
28925OCT     C157849  19.024   2.324  17.652 -0.5329  0.2338  0.4406
28925OCT     C257850  18.630   2.216  17.941 -0.1326 -0.1122  0.3703
28926OCT     C157851  10.299   5.358  10.774  0.2972  0.0682 -0.1597
28926OCT     C257852  10.029   5.104  11.005  0.5064 -0.1335 -0.1322
28927OCT     C157853  19.165   4.726  10.800 -0.2444 -0.1764  0.0455
28927OCT     C257854  19.288   4.326  10.595 -0.0713 -0.1403  0.1608
28928OCT     C157855  20.163  22.940   1.637  0.2920 -0.5789 -0.1122
28928OCT     C257856  20.197  22.915   2.107  0.0648  0.0136  0.0937
28929OCT     C157857  16.579  21.965  20.303 -0.2600  0.0666  0.1677
28929OCT     C257858  16.919  22.284  20.277  0.1316 -0.1089 -0.3689
28930OCT     C157859  22.685   2.669  17.769 -0.0820 -0.4358  0.1695
28930OCT     C257860  22.834   2.824  18.184  0.1423 -0.0157 -0.1498
28931OCT     C157861  21.154   7.935  23.366 -0.0386  0.2213  0.3494
28931OCT     C257862  21.527   8.186  23.614  0.1548 -0.1217  0.0730
28932OCT     C157863  17.158  23.076  18.064  0.0823 -0.4896  0.4262
28932OCT     C257864  17.164  22.715  17.775 -0.0785 -0.3049 -0.0585
28933OCT     C157865   0.823  22.668  23.130  0.3299 -0.0560 -0.2861
28933OCT     C257866   0.473  22.933  23.002  0.0382 -0.0871 -0.0141
28934OCT     C157867  20.828  21.962  13.397  0.2091 -0.4721  0.1248
28934OCT     C257868  21.160  22.267  13.474 -0.1060  0.0292 -0.4961
28935OCT     C157869   6.854   5.225   4.151  0.0483  0.2662 -0.1998
28935OCT     C257870   7.097   5.566   4.296 -0.0915 -0.4620 -0.0754
28936OCT     C157871  16.586   0.315   1.047 -0.2403  0.0523  0.3845
28936OCT     C257872  16.250   0.030   1.203  0.0581 -0.1565  0.0456
28937OCT     C157873  22.208  11.392   8.355 -0.0163  0.1031  0.4188
28937OCT     C257874  21.985  11.382   8.820 -0.0494 -0.1116  0.1719
28938OCT     C157875   3.021  15.092   4.845 -0.0965  0.1459  0.0572
28938OCT     C257876   3.374  15.310   4.688  0.1174 -0.1897  0.0869
28939OCT     C157877   2.378  15.319   4.766 -0.1896 -0.0870  0.0223
28939OCT     C257878   2.184  14.961   4.511  0.1346  0.2730  0.2681
28940OCT     C157879  21.615  22.217  20.794 -0.2020  0.4398  0.0040
28940OCT     C257880  21.958  22.042  21.078 -0.1987  0.3987 -0.1957
28941OCT     C157881  12.162   0.554  23.692 -0.2556 -0.0438 -0.0208
28941OCT     C257882  12.508   0.812  23.635 -0.0375 -0.1049 -0.0102
28942OCT     C157883  13.786   2.431  19.169 -0.2146  0.3074  0.1292
28942OCT     C257884  13.666   2.003  19.090 -0.0224  0.1045 -0.0489
28943OCT     C157885  19.806   2.931   4.445  0.1767 -0.3106 -0.0248
28943OCT     C257886  20.250   3.151   4.461  0.2552  0.3547  0.3078
28944OCT     C157887  13.550  20.477  12.076 -0.3441  0.1449  0.3202
28944OCT     C257888  13.438  20.511  12.563 -0.0750  0.0575  0.3269
28945OCT     C157889   6.352   0.767  13.187  0.1272 -0.1428  0.3123
28945OCT     C257890   6.429   1.249  13.141 -0.0269 -0.1360 -0.1156
28946OCT     C157891  20.696  18.845   8.223  0.1597  0.1022 -0.2100
28946OCT     C257892  20.775  18.441   8.001  0.2762  0.0468 -0.4095
28947OCT     C157893   5.318  10.038  22.736 -0.1701  0.0125 -0.2413
28947OCT     C257894   5.291   9.596  22.809  0.1452 -0.1930 -0.1527
28948OCT     C157895   5.415   0.036  12.529  0.1165 -0.2198  0.0081
28948OCT     C257896   5.670   0.168  12.799  0.4121 -0.0464 -0.1001
28949OCT     C157897   2.709  20.631  10.509  0.0280 -0.0137  0.0833
28949OCT     C257898   2.241  20.679  10.470 -0.1766  0.0074 -0.1274
28950OCT     C157899   9.492   0.963  10.728 -0.0813  0.1521 -0.2521
28950OCT     C257900   9.158   1.246  10.771  0.0671  0.1428 -0.1718
28951OCT     C157901   4.008  22.061  10.193 -0.1366  0.0194 -0.1931
28951OCT     C257902   3.927  22.122   9.754 -0.2635  0.2773  0.0469
28952OCT     C157903   5.810  10.813  23.148  0.2089 -0.1717 -0.1573
28952OCT     C257904   5.611  10.459  22.940 -0.0561  0.0810  0.0282
28953OCT     C157905   2.187   2.543   3.880 -0.0077  0.1756 -0.2832
28953OCT     C257906   1.993   2.870   4.146  0.3053  0.3098 -0.1162
28954OCT     C157907  23.083   4.112  11.078  0.3129  0.0791 -0.0644
28954OCT     C257908  23.074   4.334  11.481 -0.1211 -0.1073 -0.5768
28955OCT     C157909  10.594  16.867  18.778  0.0330  0.0099  0.0101
28955OCT     C257910  10.226  16.869  19.035 -0.1550  0.3076 -0.2227
28956OCT     C157911   5.134   2.677   0.336 -0.0238  0.4947  0.0982
28956OCT     C257912   4.922   2.399   0.037  0.1395  0.0341 -0.5737
28957OCT     C157913   2.869   4.431  15.646 -0.2482  0.0213 -0.2178
28957OCT     C257914   2.425   4.209  15.566  0.0159  0.0567  0.3410
28958OCT     C157915  23.553   1.847   2.071 -0.1778 -0.3459 -0.1449
28958OCT     C257916  23.735   1.754   1.639  0.2263 -0.0014  0.0591
28959OCT     C157917  16.076  14.867  13.041  0.0681 -0.0672 -0.1626
28959OCT     C257918  16.405  15.204  12.966 -0.1238 -0.0147 -0.3449
28960OCT     C157919   0.401  15.540   2.692  0.1656 -0.0578  0.3690
28960OCT     C257920   0.285  15.967   2.720 -0.0160  0.1249 -0.0570
28961OCT     C157921   3.674  16.861  15.802 -0.2327 -0.0765  0.0778
28961OCT     C257922   3.317  17.045  15.525 -0.0622  0.1755  0.0305
28962OCT     C157923   7.483  13.971  12.628  0.0897  0.3435 -0.1519
28962OCT     C257924   7.790  13.931  13.008  0.0509 -0.0169 -0.0488
28963OCT     C157925   6.560  17.114   6.265  0.2245  0.2107 -0.3976
28963OCT     C257926   6.614  16.926   5.857 -0.1641  0.0033  0.2338
28964OCT     C157927  14.072   3.651  14.991 -0.0035  0.3076  0.0875
28964OCT     C257928  14.233   3.593  15.453 -0.0601  0.1991  0.1312
28965OCT     C157929  12.159  22.838   6.611  0.1205  0.0148  0.1962
28965OCT     C257930  12.118  23.298   6.745 -0.1566  0.1695  0.2256
28966OCT     C157931   1.780  13.198  13.709 -0.2452  0.1987  0.1986
28966OCT     C257932   1.560  13.438  13.344  0.2806 -0.1033 -0.1767
28967OCT     C157933  22.307  17.714   6.913 -0.1405 -0.0484  0.1922
28967OCT     C257934  22.660  17.412   7.106 -0.3786 -0.1049  0.0074
28968OCT     C157935  21.765  15.605  17.270 -0.2344 -0.2786  0.0533
28968OCT     C257936  21.373  15.866  17.139  0.2129  0.0065 -0.0535
28969OCT     C157937  20.832   0.019  20.387  0.3553  0.6198 -0.0421
28969OCT     C257938  20.687   0.440  20.608 -0.0711 -0.0972 -0.0809
28970OCT     C157939   5.827  19.746  15.973 -0.0417  0.3483 -0.1098
28970OCT     C257940   5.637  19.685  15.541 -0.3293 -0.0659  0.0167
28971OCT     C157941   7.801   2.552  20.494 -0.3222 -0.1350  0.1640
28971OCT     C257942   8.123   2.856  20.476 -0.0480 -0.0630  0.0962
28972OCT     C157943  20.773  16.939  15.095  0.0303  0.3192 -0.4143
28972OCT     C257944  20.531  16.723  15.447 -0.1004  0.0498  0.2049
28973OCT     C157945   6.087  20.358   7.789 -0.3066  0.0550 -0.0997
28973OCT     C257946   5.935  20.494   7.358  0.0165  0.0365 -0.4847
28974OCT     C157947   2.981  18.334  14.313 -0.1474  0.0607  0.2859
28974OCT     C257948   3.180  18.652  14.042  0.2617  0.0942  0.2286
28975OCT     C157949   5.809  12.333  18.196 -0.0401 -0.1352  0.1729
28975OCT     C257950   5.352  12.286  18.181  0.2953  0.1836 -0.2640
28976OCT     C157951   7.245  22.575  22.415  0.2220 -0.0339 -0.0673
28976OCT     C257952   7.144  22.176  22.651 -0.0727 -0.0559  0.2306
28977OCT     C157953  12.757  20.628   9.231  0.0800 -0.0840  0.2338
28977OCT     C257954  12.354  20.799   9.239  0.2679  0.0451 -0.0668
28978OCT     C157955   5.453  15.636   0.197 -0.0331 -0.0802 -0.0456
28978OCT     C257956   5.478  16.022  23.633 -0.0117 -0.2542 -0.2150
28979OCT     C157957  11.752  10.548  20.468 -0.0510 -0.0640  0.0486
28979OCT     C257958  11.625  10.081  20.612 -0.0332  0.2680  0.3128
28980OCT     C157959  16.894  10.097  19.119  0.0828 -0.0503 -0.0506
28980OCT     C257960  17.312  10.365  19.215 -0.0111 -0.0959  0.4074
28981OCT     C157961  13.013  16.570  14.089 -0.2251  0.0182  0.3086
28981OCT     C257962  13.360  16.737  13.829 -0.1021 -0.1040  0.0623
28982OCT     C157963   7.716   2.038  19.267 -0.3352  0.3664 -0.1506
28982OCT     C257964   7.813   2.501  19.107  0.3879  0.2956  0.1127
28983OCT     C157965   6.705   3.018   7.836 -0.2099  0.0531 -0.1400
28983OCT     C257966   6.993   2.930   8.180  0.2443 -0.2361  0.1293
28984OCT     C157967  10.347  10.173  15.235  0.1704 -0.0429  0.1910
28984OCT     C257968  10.562   9.798  15.021  0.1400 -0.0183 -0.1048
28985OCT     C157969   3.045  12.387   5.564 -0.0274  0.1762  0.0755
28985OCT     C257970   3.044  12.150   5.144  0.2296 -0.0616 -0.0572
28986OCT     C157971   8.324  18.899   7.938 -0.2400  0.0584  0.3430
28986OCT     C257972   8.370  18.975   8.398 -0.1382 -0.6303 -0.0662
28987OCT     C157973  13.644  15.985  18.603  0.3001 -0.1000 -0.0593
28987OCT     C257974  13.894  16.443  18.722  0.1409  0.1097  0.3827
28988OCT     C157975   5.356   8.752   6.440  0.1072 -0.0105  0.1460
28988OCT     C257976   5.240   8.911   6.853 -0.1147  0.1965 -0.0555
28989OCT     C157977  17.134   5.465  14.482  0.1116 -0.0624  0.1828
28989OCT     C257978  16.966   5.936  14.562 -0.0418  0.1927 -0.0147
28990OCT     C157979   6.370   1.489  23.408 -0.2409  0.0053 -0.1748
28990OCT     C257980   6.205   1.753  23.648  0.0114 -0.4743  0.0760
28991OCT     C157981   9.465  15.315  20.298 -0.0916 -0.0887 -0.4170
28991OCT     C257982   9.784  15.452  20.545 -0.2300  0.2406  0.0916
28992OCT     C157983  12.788   0.747   8.537  0.0109 -0.2344 -0.0962
28992OCT     C257984  12.768   0.579   8.950  0.0128 -0.0038  0.2882
28993OCT     C157985  12.993  18.115   0.318 -0.0187  0.0748 -0.0635
28993OCT     C257986  12.937  18.378  23.647 -0.0183  0.1240  0.3514
28994OCT     C157987  16.452  23.052  17.482 -0.2669 -0.3174 -0.1718
28994OCT     C257988  16.853  23.180  17.283 -0.2605 -0.3234 -0.3037
28995OCT     C157989  15.857   1.777   4.735 -0.3692  0.0175  0.2131
28995OCT     C257990  16.114   1.577   5.095  0.0305  0.0991 -0.5566
28996OCT     C157991   4.182  19.291  12.773  0.0270  0.0869 -0.0634
28996OCT     C257992   3.849  18.915  12.885 -0.0663  0.2695 -0.1008
28997OCT     C157993  11.435   1.010   9.421  0.0237 -0.4840 -0.0173
28997OCT     C257994  11.227   0.625   9.682 -0.0439  0.0482 -0.0604
28998OCT     C157995  21.324  16.395  14.933 -0.0060 -0.2530 -0.1166
28998OCT     C257996  21.227  16.771  14.757  0.3131  0.0537  0.4794
28999OCT     C157997  22.168  19.293   5.324 -0.1230 -0.1436  0.0916
28999OCT     C257998  22.576  19.504   5.494 -0.3094 -0.1668 -0.2371
29000OCT     C157999   7.783  10.749  23.072 -0.1347  0.2415  0.0645
29000OCT     C258000   7.636  11.117  22.992  0.1921 -0.3848  0.2714
29001OCT     C158001  12.438  14.236  17.411  0.0480 -0.2157  0.1842
29001OCT     C258002  12.411  13.724  17.534  0.2789 -0.1060  0.2550
29002OCT     C158003  18.090   9.683  12.180 -0.3609 -0.1386  0.2870
29002OCT     C258004  18.277   9.360  12.479 -0.2436  0.2057  0.0597
29003OCT     C158005   3.981   2.656   4.306  0.6049 -0.3095  0.1100
29003OCT     C258006   4.368   2.892   4.432 -0.0185 -0.4100 -0.0664
29004OCT     C158007   0.456  17.863  20.265 -0.0454  0.0426  0.0555
29004OCT     C258008   0.895  17.724  20.358  0.0893 -0.2687  0.1552
29005OCT     C158009   8.260  17.197  17.925  0.1888  0.2476 -0.0158
29005OCT     C258010   7.920  17.533  17.902  0.2865  0.0598 -0.1525
29006OCT     C158011   2.231  20.346  13.615 -0.1299  0.2545 -0.0008
29006OCT     C258012   2.235  20.569  13.266 -0.0398 -0.2643 -0.2212
29007OCT     C158013  12.788  14.699  13.924  0.4488 -0.1366  0.4183
29007OCT     C258014  12.838  14.568  14.358  0.0284 -0.1175 -0.3679
29008OCT     C158015   1.783  12.215  13.661 -0.0971  0.0172  0.3073
29008OCT     C258016   1.413  11.960  13.656 -0.0780  0.2311 -0.1305
29009OCT     C158017  11.137   2.449   7.758  0.1650  0.2108 -0.0115
29009OCT     C258018  10.756   2.170   7.768 -0.0072 -0.2743  0.0143
29010OCT     C158019   9.207  12.802  20.240  0.2471  0.1956 -0.1574
29010OCT     C258020   9.299  12.844  20.734  0.4292  0.1402 -0.1528
29011OCT     C158021   8.980  22.702  15.308  0.1502 -0.2112  0.0956
29011OCT     C258022   9.368  22.847  15.381  0.1358  0.2339 -0.0688
29012OCT     C158023  21.460   4.749  14.591 -0.0229  0.3372 -0.2100
29012OCT     C258024  21.620   4.633  14.207 -0.1327  0.0743  0.0494
29013OCT     C158025   8.503  19.888   8.395 -0.5225 -0.0361  0.0077
29013OCT     C258026   8.368  20.333   8.415 -0.0462 -0.2425  0.0374
29014OCT     C158027   0.059  14.878  18.164  0.1599 -0.2126  0.0192
29014OCT     C258028   0.095  15.288  18.432 -0.0662 -0.1897 -0.2002
29015OCT     C158029  20.152   5.349  21.185  0.5116  0.0041  0.0436
29015OCT     C258030  20.035   5.276  20.737  0.1115  0.0115 -0.0691
29016OCT     C158031  16.853  10.445   1.709  0.1591 -0.0084 -0.0502
29016OCT     C258032  16.510  10.478   1.995  0.1588 -0.2064  0.2741
29017OCT     C158033   5.438  20.744   9.089  0.0402  0.0040 -0.0872
29017OCT     C258034   5.708  21.126   8.975 -0.0544 -0.1953 -0.0083
29018OCT     C158035  22.411   0.733   6.653  0.0085  0.0862 -0.1641
29018OCT     C258036  22.100   0.969   6.424  0.0728  0.0741 -0.0226
29019OCT     C158037   6.066   4.324   7.362 -0.0136  0.1005  0.1151
29019OCT     C258038   5.817   4.483   7.751  0.1077  0.0423  0.1477
29020OCT     C158039  16.481  18.629  18.798 -0.0876  0.1776  0.1147
29020OCT     C258040  16.661  18.282  19.069  0.0745  0.0570  0.0960
29021OCT     C158041  12.819  10.201  18.033 -0.1235  0.0176  0.1992
29021OCT     C258042  13.270  10.155  18.261  0.2894 -0.1535  0.0099
29022OCT     C158043   5.221  18.017  12.656  0.0520 -0.1588 -0.0362
29022OCT     C258044   5.583  18.036  12.404  0.0109 -0.0052  0.1470
29023OCT     C158045   8.040   9.057   3.017 -0.2119 -0.2534  0.0845
29023OCT     C258046   8.365   9.374   2.878 -0.0378 -0.2674 -0.0685
29024OCT     C158047  15.223  21.887  12.169 -0.0825 -0.2496  0.0393
29024OCT     C258048  14.963  21.501  12.198  0.2531  0.0523  0.2015
29025OCT     C158049  13.277  17.421  15.541  0.0397  0.1529 -0.0235
29025OCT     C258050  13.211  17.706  15.170 -0.0598  0.1348  0.0558
29026OCT     C158051   1.902  10.025  17.840 -0.0193  0.2460 -0.0603
29026OCT     C258052   1.922   9.509  17.795 -0.1327 -0.3197 -0.1820
29027OCT     C158053   7.368  15.007   7.876  0.1367 -0.1805 -0.3905
29027OCT     C258054   6.952  14.916   7.615 -0.0373 -0.3158 -0.1644
29028OCT     C158055  17.572  14.171  20.195 -0.1029  0.3579  0.1672
29028OCT     C258056  17.977  14.002  20.325 -0.1736 -0.0669 -0.1262
29029OCT     C158057   7.037  14.133   9.284  0.3429 -0.3832  0.2066
29029OCT     C258058   7.239  13.851   8.981 -0.1396 -0.0998  0.0805
29030OCT     C158059  12.624   1.336   8.935 -0.0447  0.3757 -0.0021
29030OCT     C258060  12.599   1.809   8.952 -0.1013  0.2427  0.0465
29031OCT     C158061  11.887   7.718   1.463 -0.2949 -0.1077  0.0997
29031OCT     C258062  11.911   8.087   1.725 -0.2436 -0.0022 -0.1258
29032OCT     C158063   3.980   6.471   5.237 -0.1605  0.1097 -0.1665
29032OCT     C258064   4.297   6.317   4.926 -0.2284 -0.4381 -0.1380
29033OCT     C158065  15.638   0.614   0.011  0.3940 -0.2565  0.3921
29033OCT     C258066  15.529   1.010  23.578  0.0872  0.0528  0.3302
29034OCT     C158067  22.190   3.724  12.402  0.0813 -0.2481 -0.0729
29034OCT     C258068  22.336   3.520  12.047 -0.0962 -0.0603  0.0790
29035OCT     C158069   5.058   7.116  16.814  0.1266  0.2306 -0.0005
29035OCT     C258070   4.712   6.875  16.832  0.0480  0.6396  0.2631
29036OCT     C158071   5.848   9.981  11.301 -0.1293  0.2109  0.1242
29036OCT     C258072   5.624  10.327  11.440 -0.3645 -0.1401  0.2285
29037OCT     C158073  20.625  17.236  11.695  0.2976 -0.0431 -0.0629
29037OCT     C258074  20.438  16.863  11.444 -0.0910  0.1656  0.2464
29038OCT     C158075  21.996  20.845   6.309 -0.1446  0.0271 -0.1857
29038OCT     C258076  22.260  21.131   6.640  0.0878  0.2003  0.1777
29039OCT     C158077   5.530  15.843  22.704 -0.1218 -0.0669  0.1538
29039OCT     C258078   5.631  15.383  22.901 -0.1005  0.3131 -0.0368
29040OCT     C158079   1.426   6.612  20.539 -0.1697  0.1883  0.1698
29040OCT     C258080   1.744   6.884  20.361  0.3007 -0.2653 -0.0047
29041OCT     C158081  18.875  21.229  11.964  0.3064  0.2100 -0.0335
29041OCT     C258082  18.754  20.877  12.158 -0.0740 -0.0850 -0.3162
29042OCT     C158083   5.918  11.011  22.302  0.0586 -0.1675  0.0106
29042OCT     C258084   5.737  11.417  22.461  0.2079  0.1322  0.2269
29043OCT     C158085  22.979   9.703   6.782  0.4764 -0.4638  0.3554
29043OCT     C258086  22.900   9.822   7.225 -0.3132 -0.1360  0.0455
29044OCT     C158087  22.369   8.273   7.065 -0.3118  0.3217  0.0409
29044OCT     C258088  22.524   8.032   7.435  0.0278 -0.0065 -0.1457
29045OCT     C158089  17.811  15.504  12.041 -0.1992 -0.0733 -0.2463
29045OCT     C258090  17.351  15.643  11.968  0.1413  0.2821 -0.5248
29046OCT     C158091  16.666  18.425   5.185  0.3982 -0.1464  0.1798
29046OCT     C258092  16.705  18.537   5.592  0.0542 -0.3009 -0.2466
29047OCT     C158093  21.687  12.303   0.016  0.0833  0.3127 -0.0165
29047OCT     C258094  21.939  12.569  23.403  0.5622 -0.0271  0.0291
29048OCT     C158095   7.351   4.454   5.786 -0.0413  0.1236  0.1231
29048OCT     C258096   7.554   4.463   5.349 -0.0404  0.1478  0.1332
29049OCT     C158097  22.553   7.959  19.096 -0.0451 -0.3146  0.1440
29049OCT     C258098  22.596   8.106  18.637  0.4651 -0.0247 -0.2568
29050OCT     C158099  16.626  11.894   6.461 -0.1282  0.0362 -0.0754
29050OCT     C258100  16.674  12.174   6.098  0.2324  0.0452 -0.1889
29051OCT     C158101   4.484  10.739  15.943  0.0831  0.2031  0.1828
29051OCT     C258102   4.836  10.483  16.034 -0.3150 -0.1367 -0.0995
29052OCT     C158103   0.698   3.159   6.581  0.0963  0.1503 -0.2939
29052OCT     C258104   0.460   2.993   6.987  0.2812 -0.1172  0.1848
29053OCT     C158105  23.461   1.592  11.780  0.1884  0.0416 -0.2004
29053OCT     C258106  23.007   1.546  11.574  0.1531  0.1903 -0.2695
29054OCT     C158107  22.073  15.469   8.734 -0.5510 -0.3733  0.2562
29054OCT     C258108  21.696  15.611   8.974 -0.0439  0.0489  0.2653
29055OCT     C158109  23.645   3.936  18.532  0.1870  0.0118  0.2040
29055OCT     C258110  23.220   4.046  18.601  0.1451 -0.6267 -0.2102
29056OCT     C158111  22.300  15.224  22.246  0.0018  0.0831  0.3278
29056OCT     C258112  22.546  15.603  22.184 -0.0942 -0.4526 -0.3911
29057OCT     C158113  17.484   7.037   6.927 -0.2319 -0.3305  0.2905
29057OCT     C258114  17.477   6.556   7.075 -0.2696  0.1358 -0.0608
29058OCT     C158115   0.679  18.023   5.115 -0.3759  0.1731  0.1533
29058OCT     C258116   0.444  17.656   5.001  0.1822 -0.0954  0.1062
29059OCT     C158117   0.385  18.329  12.013  0.2383 -0.0064 -0.1406
29059OCT     C258118   0.808  18.092  12.035  0.0853 -0.3306 -0.1972
29060OCT     C158119  20.622   9.646   0.808  0.0187  0.1737 -0.0184
29060OCT     C258120  20.284   9.945   0.690  0.1452 -0.0866 -0.3989
29061OCT     C158121  13.003   8.435  22.858  0.3504 -0.2215  0.1948
29061OCT     C258122  13.218   8.684  23.152 -0.2168  0.1006  0.0586
29062OCT     C158123   5.485  10.814   3.020 -0.1177  0.0738 -0.2676
29062OCT     C258124   5.632  11.039   3.424 -0.3641  0.1039  0.1028
29063OCT     C158125   2.057   3.716  15.228  0.1521 -0.1412 -0.1968
29063OCT     C258126   1.895   3.580  14.786 -0.0800 -0.1882  0.0852
29064OCT     C158127   7.519  10.338  16.873 -0.0938  0.0949 -0.1418
29064OCT     C258128   7.961  10.204  16.684  0.0283  0.2836  0.4993
29065OCT     C158129  15.166   7.612   5.712  0.3715  0.3358  0.0536
29065OCT     C258130  14.797   7.888   5.749 -0.2764  0.1562 -0.0635
29066OCT     C158131   8.918  15.200  12.607  0.2556  0.0713 -0.0595
29066OCT     C258132   9.197  14.920  12.451  0.0497 -0.2021  0.4003
29067OCT     C158133  10.905   1.684  20.593  0.0252  0.0245 -0.0661
29067OCT     C258134  10.616   1.967  20.750 -0.2442 -0.1074  0.1949
29068OCT     C158135  20.630   6.172   4.922  0.0864  0.1403 -0.0952
29068OCT     C258136  20.501   6.068   5.368  0.0862 -0.2733 -0.0615
29069OCT     C158137   1.043  18.281   6.502 -0.4906  0.2258  0.0325
29069OCT     C258138   0.824  17.953   6.266 -0.1007 -0.2629 -0.0926
29070OCT     C158139   7.672  13.374  20.192 -0.0870  0.1445 -0.1828
29070OCT     C258140   8.105  13.431  20.379 -0.0876  0.0191  0.0713
29071OCT     C158141   4.562  23.392  21.932  0.3248  0.1642  0.1691
29071OCT     C258142   4.367   0.046  22.095  0.0543 -0.2239  0.1395
29072OCT     C158143   6.574  14.584  17.503 -0.0838  0.1092  0.2779
29072OCT     C258144   6.963  14.501  17.736 -0.0707 -0.2330 -0.1749
29073OCT     C158145   4.985  21.410   8.546 -0.2659  0.1577  0.0674
29073OCT     C258146   5.475  21.486   8.695  0.0659 -0.2479  0.1914
29074OCT     C158147  17.021  12.081  11.496  0.0552 -0.0948  0.1645
29074OCT     C258148  16.866  11.889  11.148  0.1827 -0.0484  0.4314
29075OCT     C158149  12.137   6.591   9.838 -0.4183  0.1886 -0.0070
29075OCT     C258150  12.391   6.868   9.694 -0.2576  0.0617 -0.0156
29076OCT     C158151  11.641   4.592   9.574 -0.1513  0.0415  0.2297
29076OCT     C258152  11.400   4.951   9.453 -0.1328  0.1839 -0.2816
29077OCT     C158153   7.378   0.361  15.451 -0.0175 -0.0713  0.0645
29077OCT     C258154   7.796   0.624  15.484  0.1755  0.0228  0.3317
29078OCT     C158155  23.563  23.699  15.830 -0.0882  0.1943  0.1998
29078OCT     C258156   0.151   0.253  15.884  0.0497  0.1950  0.1137
29079OCT     C158157   1.951   3.498  19.985 -0.0112 -0.2956 -0.1836
29079OCT     C258158   1.983   3.276  20.339 -0.0747  0.3905 -0.2106
29080OCT     C158159  18.497   1.184   5.070 -0.0485  0.0353 -0.0067
29080OCT     C258160  18.439   0.741   4.940 -0.0249  0.0068  0.2275
29081OCT     C158161  19.561  23.668  10.826  0.0448 -0.0153 -0.1870
29081OCT     C258162  19.483   0.330  10.638  0.0083  0.2264 -0.2524
29082OCT     C158163   9.048   5.752   4.500  0.2362  0.1764  0.2910
29082OCT     C258164   9.065   6.127   4.188 -0.3063 -0.0576  0.1519
29083OCT     C158165   5.074   7.867   9.557  0.1685 -0.2580 -0.0110
29083OCT     C258166   5.410   7.522   9.616  0.1603 -0.0990 -0.0287
29084OCT     C158167   9.353  20.749  12.966  0.1990  0.0920  0.0878
29084OCT     C258168   9.649  20.398  12.999  0.1815 -0.3406 -0.1693
29085OCT     C158169  11.642  17.828   6.383 -0.0759  0.0095 -0.0367
29085OCT     C258170  11.479  18.188   6.101  0.5387  0.1528 -0.3317
29086OCT     C158171   7.372   4.231  17.615  0.1699  0.2772  0.4235
29086OCT     C258172   7.770   4.299  17.615 -0.2662  0.4167  0.2425
29087OCT     C158173   5.430  11.530  16.455 -0.1065 -0.0624 -0.0869
29087OCT     C258174   5.196  11.484  16.055  0.2232  0.0298  0.1028
29088OCT     C158175  11.607   0.210  21.162 -0.0725  0.1206 -0.0809
29088OCT     C258176  12.014   0.390  21.025  0.3174  0.0617 -0.0639
29089OCT     C158177  21.753  19.571  21.272 -0.0019 -0.0017  0.1849
29089OCT     C258178  21.960  19.700  21.647 -0.0740 -0.0624 -0.0796
29090OCT     C158179   5.145   2.303  10.337  0.0284  0.2153 -0.3178
29090OCT     C258180   5.185   1.901  10.050 -0.0747 -0.2205  0.0419
29091OCT     C158181  18.849   0.968  21.720 -0.3274 -0.0407 -0.1001
29091OCT     C258182  19.190   1.031  22.051  0.1016 -0.0328  0.0554
29092OCT     C158183   6.061   1.915   2.035 -0.0735 -0.1658  0.0386
29092OCT     C258184   6.062   1.633   1.654 -0.2608  0.3689  0.0826
29093OCT     C158185   0.422   9.480  16.823 -0.1089 -0.0110 -0.2426
29093OCT     C258186   0.421   9.265  16.375 -0.2032  0.2710  0.2097
29094OCT     C158187  14.926  12.015  18.171 -0.2087  0.2150 -0.2443
29094OCT     C258188  14.778  12.405  18.262 -0.2049  0.0450 -0.0098
29095OCT     C158189   1.692   8.275  12.261  0.0906  0.3127 -0.2667
29095OCT     C258190   2.097   8.471  12.457 -0.2183  0.2554  0.1247
29096OCT     C158191   0.931  12.750   7.355  0.1521 -0.2329  0.1180
29096OCT     C258192   1.373  12.928   7.344 -0.1259 -0.2394  0.2149
29097OCT     C158193   8.983  11.732  23.063 -0.0419 -0.1471  0.2659
29097OCT     C258194   9.304  11.377  22.896 -0.2333 -0.1402 -0.1722
29098OCT     C158195   9.488  16.672   2.836  0.0365 -0.2805  0.0139
29098OCT     C258196   9.889  16.632   2.730  0.1887  0.0668 -0.0711
29099OCT     C158197  12.058   1.336   7.032 -0.0828 -0.2898 -0.0525
29099OCT     C258198  12.414   1.038   6.954  0.1855 -0.0028 -0.0617
29100OCT     C158199   3.129   1.171   0.256 -0.2409  0.2008  0.0477
29100OCT     C258200   2.772   1.502   0.279  0.2777 -0.0639  0.3228
29101OCT     C158201  15.176   1.750  19.575 -0.0721  0.0908 -0.3266
29101OCT     C258202  15.174   2.055  19.252  0.0115 -0.0521 -0.0712
29102OCT     C158203   1.270  12.026   8.791  0.3960  0.0576 -0.1890
29102OCT     C258204   1.229  11.824   9.234  0.0150  0.3392 -0.4541
29103OCT     C158205   6.614  13.777   3.215  0.1709  0.0489 -0.0394
29103OCT     C258206   6.510  14.183   3.354 -0.0428 -0.0994 -0.1873
29104OCT     C158207  21.276  19.847  21.904  0.2502 -0.0162 -0.0724
29104OCT     C258208  20.906  19.620  22.132  0.0396 -0.0095 -0.0554
29105OCT     C158209   1.764  15.080  20.885 -0.2517  0.0493 -0.2162
29105OCT     C258210   2.082  14.956  20.548 -0.2651 -0.0742 -0.1198
29106OCT     C158211  19.806  12.863  19.446 -0.0137  0.2642 -0.2087
29106OCT     C258212  19.829  12.471  19.668  0.5847 -0.0783 -0.0532
29107OCT     C158213  13.789   4.607   9.837 -0.0057  0.0240 -0.0505
29107OCT     C258214  14.185   4.497   9.580  0.1371  0.2077 -0.1420
29108OCT     C158215  22.440  15.121  18.636  0.1570  0.0589 -0.1357
29108OCT     C258216  22.183  15.252  19.018 -0.0343 -0.1848 -0.0820
29109OCT     C158217   0.161   3.687  23.519  0.0552 -0.0203 -0.2988
29109OCT     C258218  23.560   3.985  23.484  0.0526 -0.3066  0.4310
29110OCT     C158219  11.238  15.441  18.135  0.3176  0.0778  0.2779
29110OCT     C258220  11.490  15.430  17.760  0.1906 -0.0335  0.1113
29111OCT     C158221  12.316   6.120  16.773  0.1656 -0.0087 -0.0401
29111OCT     C258222  12.761   6.044  16.892  0.3011  0.1732 -0.0166
29112OCT     C158223   2.616   9.522  18.365  0.2114  0.1476 -0.0427
29112OCT     C258224   2.395   9.195  18.528 -0.1859  0.2643 -0.0657
29113OCT     C158225   3.585   0.278  22.690  0.0055 -0.1093 -0.3003
29113OCT     C258226   3.747   0.091  22.280 -0.3012 -0.1234 -0.3832
29114OCT     C158227  19.918  19.389  11.235  0.0031  0.0289 -0.1841
29114OCT     C258228  20.261  19.406  11.541  0.1591 -0.2584 -0.0875
29115OCT     C158229   8.283   4.834   0.379 -0.0734  0.2204 -0.0546
29115OCT     C258230   8.249   4.400   0.524  0.0544 -0.0923 -0.1483
29116OCT     C158231  22.714  20.283  13.170 -0.2295  0.0195 -0.0466
29116OCT     C258232  22.893  19.839  13.087 -0.2332 -0.0597  0.0902
29117OCT     C158233  14.388  16.551   9.437  0.0859  0.0107 -0.0577
29117OCT     C258234  14.590  16.955   9.560 -0.2765  0.1930  0.3946
29118OCT     C158235  16.199  20.668  20.463 -0.1258 -0.1148 -0.0948
29118OCT     C258236  16.585  20.556  20.707 -0.1814 -0.0807 -0.1269
29119OCT     C158237  12.651   9.575  13.613  0.2123 -0.2171 -0.0165
29119OCT     C258238  13.037   9.365  13.801 -0.0588  0.4319 -0.0120
29120OCT     C158239   8.488   7.427  20.339  0.0605  0.1765 -0.1095
29120OCT     C258240   8.146   7.474  19.986  0.1514 -0.2791 -0.1080
29121OCT     C158241  14.303  15.779   0.151  0.1756  0.0578  0.0766
29121OCT     C258242  14.220  15.319   0.109  0.1212 -0.5166  0.1696
29122OCT     C158243   9.642  17.400   6.265 -0.2489 -0.1829 -0.0183
29122OCT     C258244   9.284  17.584   5.974  0.0778 -0.2292 -0.2224
29123OCT     C158245  20.047   5.472  19.884 -0.3460 -0.2582 -0.0507
29123OCT     C258246  20.044   5.948  19.825 -0.2343  0.0649  0.0254
29124OCT     C158247  14.219  16.336  12.389  0.2809  0.0044 -0.1081
29124OCT     C258248  14.111  16.713  12.195  0.1320  0.0421  0.2987
29125OCT     C158249  23.146  12.402  12.159 -0.0942 -0.2488  0.2429
29125OCT     C258250  23.368  12.656  12.462 -0.3093 -0.1708 -0.0122
29126OCT     C158251  10.770  19.572   0.505  0.1173 -0.0222 -0.1032
29126OCT     C258252  11.054  19.168   0.575  0.2590  0.1895  0.0667
29127OCT     C158253  19.640   4.811   2.005 -0.2124  0.1137 -0.2650
29127OCT     C258254  19.835   4.771   2.465  0.0878  0.1406 -0.1543
29128OCT     C158255  21.535  13.193   6.851  0.0879  0.3085 -0.4945
29128OCT     C258256  21.939  13.234   7.138  0.0640  0.3631 -0.0280
29129OCT     C158257   0.031   5.473   8.679  0.2032 -0.1262  0.0734
29129OCT     C258258   0.140   5.969   8.514 -0.0282  0.0542  0.2127
29130OCT     C158259  12.861  22.364  17.028  0.3130  0.1871  0.1015
29130OCT     C258260  12.477  22.140  16.912  0.0237 -0.2028  0.1298
29131OCT     C158261  16.517  13.055   6.045  0.0824 -0.0332  0.2152
29131OCT     C258262  16.744  12.967   5.647  0.1357  0.2632 -0.1401
29132OCT     C158263   3.271   8.755   2.393  0.3079 -0.2967 -0.2076
29132OCT     C258264   3.383   9.192   2.403  0.1258 -0.2114  0.3704
29133OCT     C158265  13.589   1.675  23.395 -0.1046 -0.0890 -0.2233
29133OCT     C258266  14.070   1.671  23.381  0.0506 -0.3043  0.1680
29134OCT     C158267   6.709  19.259   0.209  0.1730 -0.2080 -0.0121
29134OCT     C258268   7.141  19.264   0.055  0.3110  0.0416  0.3047
29135OCT     C158269   6.288   3.520  21.875 -0.0628  0.0044  0.1616
29135OCT     C258270   6.116   3.866  21.629 -0.0542  0.1254 -0.1652
29136OCT     C158271  12.562   6.590  16.959 -0.0860 -0.3926  0.3292
29136OCT     C258272  12.553   6.308  17.316  0.0860 -0.0777  0.3772
29137OCT     C158273   1.091  14.179   7.114  0.1449  0.0808 -0.0357
29137OCT     C258274   0.726  14.041   7.352 -0.0413  0.3974 -0.1243
29138OCT     C158275   6.686   6.703  21.865 -0.2066  0.2699 -0.0317
29138OCT     C258276   7.031   6.548  22.251  0.0444  0.1155 -0.1040
29139OCT     C158277   9.830   8.376  14.194 -0.1598  0.0641 -0.0719
29139OCT     C258278   9.758   8.652  14.539  0.4297  0.0738  0.0259
29140OCT     C158279  10.367   0.310  14.975  0.1159 -0.1103  0.2425
29140OCT     C258280  10.354   0.483  15.415  0.4233 -0.0886 -0.2738
29141OCT     C158281  22.901  16.503  17.072 -0.0876  0.3347 -0.2766
29141OCT     C258282  22.780  16.981  16.973  0.2014  0.2104 -0.4961
29142OCT     C158283   1.428   6.594  10.862 -0.2252 -0.2521 -0.2252
29142OCT     C258284   1.486   6.715  10.444 -0.1045 -0.1212  0.3229
29143OCT     C158285  19.577  21.286   3.387  0.1120 -0.0833 -0.0945
29143OCT     C258286  19.350  21.143   3.039  0.0562 -0.2249 -0.1332
29144OCT     C158287  13.102  18.497  19.143 -0.0999  0.0330 -0.1393
29144OCT     C258288  12.844  18.898  19.024  0.0984 -0.0436  0.2816
29145OCT     C158289   8.053  14.600  14.172 -0.1921 -0.5190 -0.1137
29145OCT     C258290   8.281  15.029  14.012 -0.0865 -0.0330  0.1573
29146OCT     C158291  17.920   4.729  16.584 -0.1036  0.3325 -0.0309
29146OCT     C258292  17.471   4.923  16.429  0.1999 -0.2855 -0.0943
29147OCT     C158293  11.135  17.521   1.454  0.3288  0.0846  0.1405
29147OCT     C258294  10.707  17.659   1.265 -0.1585  0.0085  0.1294
29148OCT     C158295   7.589  22.913  19.144  0.1861 -0.1856  0.2663
29148OCT     C258296   7.741  22.584  18.864 -0.0719 -0.0535  0.2739
29149OCT     C158297  21.367  13.825  11.741 -0.0491 -0.0396  0.0566
29149OCT     C258298  21.644  13.962  12.112 -0.0922 -0.1470 -0.2609
29150OCT     C158299  21.378   7.426  19.165  0.1929 -0.1133 -0.1058
29150OCT     C258300  21.462   7.561  19.641 -0.1222  0.5160 -0.0281
29151OCT     C158301  17.759   2.813  23.134 -0.3552  0.1505  0.0112
29151OCT     C258302  17.549   2.788  22.733 -0.0976  0.1467 -0.3833
29152OCT     C158303   7.088  22.839  12.595  0.2822 -0.0818 -0.0935
29152OCT     C258304   7.486  22.945  12.804 -0.2137  0.0315 -0.2719
29153OCT     C158305  15.965   1.061   6.460  0.0008  0.1872 -0.1483
29153OCT     C258306  15.516   1.016   6.526  0.0808  0.3573  0.1140
29154OCT     C158307   6.586   9.939   6.746  0.1513  0.0464  0.2623
29154OCT     C258308   6.884   9.617   6.742  0.0327  0.0959  0.0124
29155OCT     C158309  13.680  23.251  11.883  0.0397  0.1782  0.0431
29155OCT     C258310  13.295  23.283  11.659  0.2324 -0.0143 -0.0699
29156OCT     C158311   7.202   4.202   6.712 -0.2954  0.0356  0.0034
29156OCT     C258312   7.296   4.044   7.116 -0.0494  0.2481  0.1419
29157OCT     C158313   1.876   5.747   8.590 -0.2311  0.3207 -0.0483
29157OCT     C258314   2.053   5.841   8.191 -0.5144 -0.2299  0.0050
29158OCT     C158315  19.836  16.524  21.108 -0.0918 -0.4476  0.3787
29158OCT     C258316  20.052  16.905  21.027 -0.0995  0.2114  0.0537
29159OCT     C158317   2.906  16.414  14.942  0.0616  0.4053  0.1337
29159OCT     C258318   3.026  16.174  15.367 -0.0038  0.0716  0.0786
29160OCT     C158319  15.800   3.700  12.216  0.3357  0.2093 -0.1191
29160OCT     C258320  15.657   3.221  12.058  0.0027  0.3134 -0.2739
29161OCT     C158321   1.576  23.400  16.390  0.0146 -0.0757 -0.2145
29161OCT     C258322   1.863  23.609  16.057  0.0657  0.0688 -0.0439
29162OCT     C158323  21.606  20.195  19.194  0.4723  0.1237  0.2782
29162OCT     C258324  21.153  20.246  19.267 -0.1401 -0.0521  0.2749
29163OCT     C158325   6.725   3.256   3.416  0.0925  0.1736 -0.0424
29163OCT     C258326   6.996   3.006   3.700 -0.0141  0.4273  0.1593
29164OCT     C158327   2.783   5.274   5.293 -0.2066 -0.1675 -0.0255
29164OCT     C258328   2.770   5.296   5.755  0.2669 -0.1210  0.1931
29165OCT     C158329  16.207  13.094   4.845 -0.0287 -0.2316  0.3260
29165OCT     C258330  16.435  13.199   5.276  0.1518 -0.0323 -0.0279
29166OCT     C158331  18.490  19.277  10.996 -0.3737  0.1490  0.1242
29166OCT     C258332  18.366  18.843  11.169  0.0800 -0.0120 -0.2544
29167OCT     C158333  10.859  10.794  22.708 -0.4364  0.3082  0.2356
29167OCT     C258334  11.188  10.801  22.363 -0.2237 -0.3626 -0.0744
29168OCT     C158335   2.496  17.462  17.543 -0.1319  0.0916 -0.1647
29168OCT     C258336   2.897  17.523  17.792 -0.0497  0.2394 -0.0260
29169OCT     C158337  21.211  10.878  11.459 -0.1567 -0.0196  0.1913
29169OCT     C258338  21.240  10.431  11.402 -0.1304  0.4611 -0.2680
29170OCT     C158339  14.325   5.296   2.382 -0.0153 -0.4243 -0.0567
29170OCT     C258340  14.665   5.048   2.152 -0.3409 -0.1764  0.0317
29171OCT     C158341  13.838  12.270  13.872 -0.1686  0.2513  0.0825
29171OCT     C258342  13.540  12.039  14.126 -0.1308  0.0834  0.0369
29172OCT     C158343   6.186   4.813  14.066  0.1874  0.4449  0.0008
29172OCT     C258344   5.732   4.899  14.029  0.2042 -0.1016  0.3444
29173OCT     C158345  15.624   2.843  12.369  0.0315 -0.3603  0.2454
29173OCT     C258346  15.821   2.435  12.280  0.0147  0.0389  0.0566
29174OCT     C158347  17.354  19.765   4.191 -0.0768 -0.0275  0.0783
29174OCT     C258348  17.075  20.143   4.199 -0.0417  0.0376  0.1079
29175OCT     C158349   9.905  19.913   7.389 -0.0105 -0.4223 -0.1273
29175OCT     C258350  10.277  19.833   7.182 -0.1024  0.0636  0.0179
29176OCT     C158351  22.920   8.585  14.254 -0.0835 -0.1546  0.3994
29176OCT     C258352  22.956   8.117  14.235  0.0929  0.2287  0.1716
29177OCT     C158353   8.683   4.052   6.977  0.3129 -0.3069 -0.1125
29177OCT     C258354   8.744   3.581   7.012 -0.0026  0.1886 -0.0258
29178OCT     C158355   4.713  20.996   2.565 -0.0483  0.0768  0.0061
29178OCT     C258356   4.932  21.220   2.888  0.4075  0.0920  0.2470
29179OCT     C158357  12.739  23.150  20.263  0.1505  0.1543  0.2806
29179OCT     C258358  12.750  23.512  19.973  0.1220 -0.3008  0.0488
29180OCT     C158359  10.847  23.037   6.917 -0.0146  0.4262 -0.0618
29180OCT     C258360  10.797  23.472   7.108 -0.0014  0.0513 -0.1054
29181OCT     C158361   5.878   1.976   4.495  0.0331 -0.1013  0.0035
29181OCT     C258362   6.099   1.718   4.165 -0.3636 -0.1594  0.2681
29182OCT     C158363  12.223  21.810   5.328  0.0816 -0.1815  0.2569
29182OCT     C258364  11.756  21.711   5.483 -0.0070 -0.1303  0.2391
29183OCT     C158365  12.753  20.625  11.077 -0.0472  0.0660 -0.0438
29183OCT     C258366  13.176  20.557  10.841 -0.2586  0.1716  0.0226
29184OCT     C158367   6.534  21.579  23.223  0.3850 -0.1296 -0.3238
29184OCT     C258368   6.467  21.473  22.795 -0.0549 -0.0330 -0.0472
29185OCT     C158369   0.183  13.605  17.328  0.1889  0.3859 -0.0922
29185OCT     C258370   0.281  13.993  17.537 -0.0881 -0.2264  0.1963
29186OCT     C158371  23.359   3.228   8.520 -0.3475 -0.3335  0.2999
29186OCT     C258372  23.354   2.810   8.555 -0.3002  0.1521 -0.0907
29187OCT     C158373  21.729  20.674  12.381 -0.2212  0.1653 -0.0108
29187OCT     C258374  21.515  20.291  12.187  0.1658  0.2763  0.2964
29188OCT     C158375  14.472   3.810  23.198  0.1636  0.2367 -0.3554
29188OCT     C258376  14.479   3.369  23.432  0.1824  0.2762 -0.1723
29189OCT     C158377  10.819   0.497   6.005 -0.2350  0.1077 -0.1160
29189OCT     C258378  11.269   0.476   5.984 -0.0910 -0.4825  0.1964
29190OCT     C158379  11.773  18.872   8.183 -0.0419  0.1043  0.0533
29190OCT     C258380  11.410  18.827   7.868 -0.0208  0.1646  0.2985
29191OCT     C158381  12.938  21.979  19.715 -0.2875 -0.5149  0.1427
29191OCT     C258382  13.307  22.252  19.789 -0.1250 -0.1855 -0.1730
29192OCT     C158383   8.202  19.171  22.671 -0.1179 -0.0175  0.0829
29192OCT     C258384   8.027  19.363  22.350  0.0075  0.0081  0.2647
29193OCT     C158385   6.987   3.943   7.480 -0.4393  0.1581  0.3510
29193OCT     C258386   7.310   3.980   7.788 -0.0399 -0.0210 -0.2537
29194OCT     C158387  18.141  12.147   7.634 -0.2821 -0.2545  0.0325
29194OCT     C258388  17.972  12.566   7.737 -0.1191  0.0043  0.2058
29195OCT     C158389  22.948  14.078   6.351  0.0843 -0.3150  0.3299
29195OCT     C258390  22.717  13.689   6.274 -0.0630  0.2549 -0.1073
29196OCT     C158391  18.141   3.137  11.989  0.2774 -0.3606  0.2184
29196OCT     C258392  17.750   3.322  11.834 -0.0869  0.2100 -0.0032
29197OCT     C158393   0.371   4.565  21.803  0.3942 -0.4967 -0.1175
29197OCT     C258394   0.408   4.804  21.419  0.0884 -0.1090  0.1276
29198OCT     C158395   6.769  22.833   0.054 -0.0499  0.1970  0.0437
29198OCT     C258396   6.362  23.016  23.507 -0.3546  0.0367  0.1071
29199OCT     C158397  20.525   8.373   2.067 -0.1645 -0.0096  0.0480
29199OCT     C258398  20.327   8.391   2.505  0.1119  0.0628 -0.0536
29200OCT     C158399  10.705   4.479   6.348 -0.0253  0.1354  0.0114
29200OCT     C258400  10.883   4.751   6.035 -0.2274 -0.0372  0.0100
29201OCT     C158401  16.303  15.591  15.861 -0.0646 -0.1089  0.1026
29201OCT     C258402  16.502  15.822  15.451  0.1773 -0.0713 -0.3168
29202OCT     C158403  18.428  18.540  12.511  0.2924 -0.1658  0.0468
29202OCT     C258404  18.321  18.173  12.792  0.1337 -0.0777 -0.0138
29203OCT     C158405  20.123  22.331  21.340  0.0875  0.0602 -0.5229
29203OCT     C258406  19.985  22.033  21.683 -0.0036 -0.1245 -0.2104
29204OCT     C158407   7.482   3.932   9.114  0.1508  0.1341  0.1694
29204OCT     C258408   7.659   3.559   9.332 -0.1452 -0.1118 -0.4912
29205OCT     C158409   7.331  10.420  20.311  0.0147  0.0206 -0.1043
29205OCT     C258410   6.871  10.412  20.172  0.0661 -0.4432  0.0916
29206OCT     C158411  11.894   4.043  21.073 -0.2587  0.3992  0.0088
29206OCT     C258412  11.566   3.933  21.432 -0.0462 -0.5204  0.1096
29207OCT     C158413  20.671   9.210  18.894 -0.0106  0.1118  0.2580
29207OCT     C258414  20.682   9.455  18.400 -0.3364  0.0426  0.0384
29208OCT     C158415   9.927   1.340  17.060  0.2202 -0.0622  0.2723
29208OCT     C258416   9.804   1.732  17.213 -0.1364  0.2124 -0.0975
29209OCT     C158417   7.054   1.939  21.465  0.0361 -0.2306 -0.1855
29209OCT     C258418   7.129   2.085  21.020 -0.4259  0.2656  0.3784
29210OCT     C158419   6.647   7.348   7.313  0.3951 -0.0112 -0.1846
29210OCT     C258420   6.562   7.838   7.436  0.1471  0.0891  0.4961
29211OCT     C158421   8.460   9.901   3.141  0.0557  0.1711  0.1381
29211OCT     C258422   8.691   9.512   3.263  0.0468  0.2216  0.0003
29212OCT     C158423   2.152  13.015   1.637  0.0501 -0.3739  0.3387
29212OCT     C258424   2.128  12.735   1.263  0.1987 -0.0434  0.0220
29213OCT     C158425   3.548   7.691  19.531 -0.1473  0.0067 -0.0349
29213OCT     C258426   3.159   7.582  19.819  0.2995  0.0986 -0.1956
29214OCT     C158427   5.305  11.716  23.361 -0.1181  0.2209  0.2474
29214OCT     C258428   4.922  11.859  23.165 -0.1284  0.1866  0.0596
29215OCT     C158429   2.260  11.372   9.405 -0.0639 -0.2601  0.2296
29215OCT     C258430   2.646  11.150   9.393  0.2635 -0.0535 -0.0478
29216OCT     C158431  17.538   1.131   5.759 -0.1937 -0.3597 -0.3595
29216OCT     C258432  17.472   0.780   5.482  0.1013  0.3089  0.1985
29217OCT     C158433   3.376  13.556   9.839 -0.0089  0.0775  0.0635
29217OCT     C258434   3.346  13.989   9.987  0.0872  0.2827  0.4730
29218OCT     C158435  14.772   6.704  10.531  0.1957 -0.0038  0.2580
29218OCT     C258436  15.123   6.543  10.649 -0.0138 -0.0753 -0.0821
29219OCT     C158437   9.667   2.141  19.056 -0.0127 -0.4105 -0.0887
29219OCT     C258438   9.503   2.527  18.924 -0.1839 -0.1073 -0.2536
29220OCT     C158439   2.497  23.517  21.393  0.0278 -0.0255  0.0189
29220OCT     C258440   2.036  23.270  21.343  0.1380 -0.2718  0.1285
29221OCT     C158441   2.410  23.586   9.038  0.0510 -0.1631  0.3131
29221OCT     C258442   2.241  23.117   9.052 -0.3191 -0.0555  0.0145
29222OCT     C158443   0.363   6.071  10.625  0.4025  0.1233 -0.0967
29222OCT     C258444   0.059   5.787  10.473  0.0336 -0.2701  0.4436
29223OCT     C158445  12.527  17.835  21.918 -0.2425 -0.0263 -0.2205
29223OCT     C258446  12.850  17.461  22.009 -0.3192  0.1140  0.1446
29224OCT     C158447   7.374  22.096  16.867  0.2479 -0.4893 -0.1648
29224OCT     C258448   7.493  22.026  17.351  0.0070  0.2746  0.2152
29225OCT     C158449  10.357  14.951   4.235  0.0565 -0.0743 -0.1347
29225OCT     C258450  10.412  15.362   4.493 -0.0158  0.2571  0.1027
29226OCT     C158451   1.590  14.708  18.310 -0.1731  0.0508 -0.1439
29226OCT     C258452   1.306  14.727  17.955  0.1979  0.1620 -0.0236
29227OCT     C158453   3.164   8.188  17.095 -0.1259  0.3105 -0.2220
29227OCT     C258454   2.829   7.912  17.343  0.1439  0.0347  0.4486
29228OCT     C158455  18.506   0.727  14.271  0.1192 -0.1932 -0.4448
29228OCT     C258456  18.648   0.556  14.706  0.3195 -0.0573 -0.1800
29229OCT     C158457   8.751  17.083  12.240  0.0741 -0.2547  0.1290
29229OCT     C258458   8.906  16.688  11.976 -0.3484  0.0674  0.1245
29230OCT     C158459  13.547  13.308   3.474  0.0078 -0.0411 -0.0224
29230OCT     C258460  14.006  13.201   3.467 -0.0549 -0.4468 -0.1788
29231OCT     C158461  12.580  22.197  19.390  0.1573  0.1095 -0.0335
29231OCT     C258462  12.618  21.733  19.429 -0.2850  0.1774  0.2496
29232OCT     C158463  13.793   1.814  22.531  0.2292  0.2317  0.2155
29232OCT     C258464  13.971   1.777  22.098  0.2830  0.0341 -0.0817
29233OCT     C158465   5.562  12.537  11.854 -0.6020  0.0627 -0.3954
29233OCT     C258466   5.251  12.871  11.810 -0.0110  0.2227  0.0105
29234OCT     C158467   3.883   7.137  11.349  0.1919  0.1443  0.0506
29234OCT     C258468   3.650   7.296  10.950  0.2085  0.0311 -0.1076
29235OCT     C158469  17.405  18.064   0.428  0.0930 -0.1358  0.2328
29235OCT     C258470  17.544  17.868   0.083  0.1970  0.5042  0.0678
29236OCT     C158471  20.834   3.578  17.431 -0.0190 -0.1811 -0.2451
29236OCT     C258472  21.008   3.222  17.198 -0.0750 -0.1208 -0.0721
29237OCT     C158473   8.797  19.852  22.906 -0.0424 -0.2041 -0.0332
29237OCT     C258474   8.371  19.827  23.219 -0.0738  0.1151 -0.0837
29238OCT     C158475  19.870  13.722   5.029  0.1696 -0.3289  0.0132
29238OCT     C258476  19.552  14.015   4.854 -0.1061 -0.2026  0.0429
29239OCT     C158477  11.937  20.064  21.718  0.1257  0.4190  0.1600
29239OCT     C258478  11.851  20.459  21.596 -0.0179  0.0449 -0.1557
29240OCT     C158479  14.355  15.754   5.176  0.0008 -0.3813 -0.1576
29240OCT     C258480  14.135  15.393   5.329 -0.1575 -0.3514  0.1465
29241OCT     C158481  13.590   4.186  21.574 -0.0701  0.2720  0.0586
29241OCT     C258482  13.270   3.828  21.738  0.2364 -0.2875 -0.3391
29242OCT     C158483  20.024  10.061  18.899  0.0219 -0.2467 -0.1354
29242OCT     C258484  19.540  10.180  18.800 -0.1982 -0.1037  0.1874
29243OCT     C158485  20.560   5.806  11.892  0.3939 -0.2432  0.1137
29243OCT     C258486  21.007   5.722  11.767 -0.2455  0.1529  0.1047
29244OCT     C158487   5.320  22.177  21.645  0.0237 -0.1134  0.1299
29244OCT     C258488   5.549  22.576  21.670 -0.2641 -0.1458 -0.3646
29245OCT     C158489   5.123  23.581  12.892 -0.4443 -0.0809  0.1555
29245OCT     C258490   5.109   0.316  12.870  0.2944 -0.0293  0.3072
29246OCT     C158491   2.644  18.597   1.425 -0.1503 -0.4246 -0.4200
29246OCT     C258492   2.598  18.221   1.206  0.0332  0.4463 -0.0781
29247OCT     C158493  13.393   1.866  10.278 -0.1024 -0.1395 -0.1614
29247OCT     C258494  13.598   1.981  10.627  0.0261  0.0973 -0.1030
29248OCT     C158495  21.396  21.024   7.655 -0.1728 -0.1128  0.1485
29248OCT     C258496  21.720  20.889   7.866 -0.2229 -0.4525 -0.1251
29249OCT     C158497   7.075   4.934   7.160  0.0297  0.1068 -0.0884
29249OCT     C258498   6.947   4.463   7.059 -0.0877 -0.0340  0.4028
29250OCT     C158499  21.198  11.185  22.264  0.0691 -0.0877  0.0447
29250OCT     C258500  21.249  11.470  21.875  0.1337 -0.1493 -0.1298
29251OCT     C158501   4.023  10.322   8.554  0.0294  0.0001  0.1145
29251OCT     C258502   4.079  10.325   9.028  0.3102 -0.1183 -0.0828
29252OCT     C158503  14.231  20.510   5.574  0.1309 -0.0306  0.3068
29252OCT     C258504  14.229  20.977   5.694 -0.0535  0.2567 -0.2366
29253OCT     C158505   0.931  13.612  20.344 -0.3182  0.0448 -0.1352
29253OCT     C258506   0.635  13.829  20.642 -0.0273  0.0917 -0.2427
29254OCT     C158507  11.532  10.136  22.899  0.3954 -0.2919 -0.1486
29254OCT     C258508  11.425  10.068  22.464  0.0321 -0.1986 -0.1013
29255OCT     C158509   8.347   6.336  21.977  0.1906  0.0105 -0.3593
29255OCT     C258510   7.964   6.636  21.927 -0.0203  0.0727  0.3207
29256OCT     C158511   1.106  22.071  11.345  0.1773 -0.0651  0.0868
29256OCT     C258512   0.952  21.813  11.677 -0.1148  0.1188 -0.1925
29257OCT     C158513   8.870  16.707  12.541  0.0207  0.2501 -0.0298
29257OCT     C258514   9.195  16.656  12.863  0.1836 -0.1090  0.1637
29258OCT     C158515   9.608  22.629  20.086 -0.4183 -0.2218 -0.0465
29258OCT     C258516   9.161  22.675  20.159 -0.1230 -0.2259  0.1777
29259OCT     C158517  22.320  16.774   3.514  0.1990 -0.0165 -0.0541
29259OCT     C258518  21.935  16.995   3.460  0.3541 -0.0225  0.0233
29260OCT     C158519   8.079   0.056  10.166 -0.0337  0.0818  0.4220
29260OCT     C258520   8.144   0.334   9.785 -0.0117  0.0262  0.2402
29261OCT     C158521   4.138   4.303  16.901 -0.1599  0.3647 -0.1373
29261OCT     C258522   4.473   4.095  16.676  0.1515  0.0692 -0.2830
29262OCT     C158523   2.983  22.785   5.661 -0.2701  0.0368 -0.0803
29262OCT     C258524   3.043  22.877   5.212 -0.2888  0.0903  0.0514
29263OCT     C158525   6.397  20.196   3.261  0.1269  0.3166  0.0400
29263OCT     C258526   6.847  20.133   3.312  0.2101  0.1760 -0.0706
29264OCT     C158527   9.349  21.868  10.286  0.2039 -0.2438  0.5160
29264OCT     C258528   8.923  22.086  10.407  0.0590 -0.0860 -0.0698
29265OCT     C158529  10.551   7.672   3.760 -0.2115 -0.2981  0.1182
29265OCT     C258530  10.206   7.416   3.599 -0.1951  0.0397  0.0512
29266OCT     C158531   2.048   5.639  15.530  0.2662 -0.0627  0.1420
29266OCT     C258532   2.096   5.530  15.059  0.1797  0.1152 -0.4344
29267OCT     C158533  19.551   1.690   7.597 -0.0672 -0.4245  0.0341
29267OCT     C258534  19.752   1.440   7.253  0.2274 -0.2904  0.0701
29268OCT     C158535   1.008  18.406  14.267  0.1170 -0.0842  0.0803
29268OCT     C258536   1.044  18.559  14.682 -0.2256  0.1036 -0.1946
29269OCT     C158537   2.519   9.129  15.388 -0.0302  0.1536  0.0930
29269OCT     C258538   2.828   9.394  15.238  0.0517  0.0052  0.0485
29270OCT     C158539   6.202   6.634  14.875  0.1489 -0.2589  0.1160
29270OCT     C258540   6.629   6.651  14.709 -0.1102  0.1260 -0.3539
29271OCT     C158541  16.733  11.440  22.361 -0.0062  0.2066 -0.3627
29271OCT     C258542  17.098  11.629  22.074 -0.2219 -0.0561  0.3039
29272OCT     C158543   1.519  13.263   1.806  0.1652  0.3054 -0.0444
29272OCT     C258544   1.864  13.470   2.064  0.0245  0.0769  0.2187
29273OCT     C158545  22.757   0.201  10.652  0.1348 -0.1368 -0.4409
29273OCT     C258546  22.525  23.623  10.484 -0.1124  0.1930 -0.1668
29274OCT     C158547   4.029   7.632  10.959 -0.2652 -0.1646  0.2115
29274OCT     C258548   3.996   7.890  10.621  0.0429  0.1981  0.0748
29275OCT     C158549  21.112   1.577  18.195 -0.0818 -0.3523  0.0003
29275OCT     C258550  20.950   1.267  17.909  0.3836 -0.0890 -0.2471
29276OCT     C158551   8.961   3.458   6.177  0.4128  0.0590  0.0282
29276OCT     C258552   9.321   3.181   6.289  0.4390 -0.1455  0.3642
29277OCT     C158553  14.771  12.245   4.722 -0.1320 -0.1375 -0.1083
29277OCT     C258554  14.604  12.387   5.112  0.3813 -0.3432  0.5704
29278OCT     C158555   0.859  23.329   6.385  0.0964 -0.1217  0.1392
29278OCT     C258556   0.858  23.702   6.670 -0.0261  0.0396  0.1688
29279OCT     C158557  18.453   2.308  10.965  0.0398 -0.2397 -0.2106
29279OCT     C258558  18.879   2.047  10.957  0.0493  0.0832  0.5334
29280OCT     C158559   5.571   7.834  21.515 -0.0386 -0.1657  0.1194
29280OCT     C258560   5.123   7.630  21.544 -0.2474  0.1249 -0.3068
29281OCT     C158561   7.909  15.775   2.924  0.0178  0.1530  0.1786
29281OCT     C258562   7.820  15.346   2.771 -0.0003  0.2051  0.1873
29282OCT     C158563   4.370  20.072  15.950 -0.0626  0.0833  0.1002
29282OCT     C258564   4.733  19.781  15.844 -0.1286  0.1029  0.1424
29283OCT     C158565  16.203  21.339  11.512  0.0910 -0.2362  0.2869
29283OCT     C258566  16.524  21.646  11.738 -0.1834 -0.0409  0.0117
29284OCT     C158567   6.108  22.561  16.407 -0.0617 -0.2351 -0.2354
29284OCT     C258568   6.275  22.437  15.971  0.1779 -0.0854  0.5116
29285OCT     C158569  23.066   3.767  16.936 -0.3641  0.1536  0.0063
29285OCT     C258570  23.089   4.197  16.812  0.5712  0.0404  0.3172
29286OCT     C158571  14.649  21.120   8.136 -0.3465 -0.1381 -0.3595
29286OCT     C258572  14.587  20.868   8.581 -0.0506 -0.0079 -0.0988
29287OCT     C158573   4.139   0.927  23.298 -0.3435  0.0438  0.1600
29287OCT     C258574   4.271   0.640  23.629 -0.6049 -0.1123 -0.2086
29288OCT     C158575   1.590  14.985  18.800 -0.0914  0.2105  0.3313
29288OCT     C258576   1.471  14.506  18.836 -0.2634  0.1546 -0.2937
29289OCT     C158577  16.094  14.300  10.442 -0.2396 -0.0020 -0.0817
29289OCT     C258578  16.087  13.929  10.674  0.1232  0.2513 -0.3763
29290OCT     C158579  12.630   3.764  20.733 -0.1740  0.1427 -0.2979
29290OCT     C258580  12.799   3.452  20.384  0.0408  0.2126  0.1116
29291OCT     C158581  12.758  19.513   8.589  0.3000  0.1608 -0.1135
29291OCT     C258582  13.136  19.707   8.730  0.0323  0.3079 -0.2158
29292OCT     C158583  10.712   4.108   9.654  0.4938 -0.0349 -0.0392
29292OCT     C258584  10.543   4.542   9.527  0.2823 -0.0916  0.2346
29293OCT     C158585  21.739  12.133  19.051  0.0151 -0.1629 -0.1048
29293OCT     C258586  22.043  12.332  19.348 -0.1540  0.1770  0.0316
29294OCT     C158587  17.523   5.943  11.765  0.1226 -0.1193 -0.1094
29294OCT     C258588  17.917   5.706  11.592 -0.0386 -0.1938 -0.3703
29295OCT     C158589  13.361  22.938   8.015 -0.0655  0.0812  0.1778
29295OCT     C258590  13.573  22.555   7.849  0.0909 -0.0281  0.1178
29296OCT     C158591  23.379   6.677   1.824 -0.0221  0.0902 -0.4680
29296OCT     C258592  23.093   6.450   1.518  0.2992 -0.3033 -0.1526
29297OCT     C158593  15.583  21.531  12.454 -0.3423 -0.1728  0.2161
29297OCT     C258594  15.893  21.228  12.264 -0.0421  0.1172  0.0150
29298OCT     C158595  16.827   7.375   7.784 -0.0319  0.2457 -0.4151
29298OCT     C258596  17.207   7.102   7.715  0.4279  0.2213 -0.0353
29299OCT     C158597  19.846   0.416  12.820  0.1746 -0.2069  0.1033
29299OCT     C258598  20.313   0.251  12.734 -0.2174  0.0824  0.2787
29300OCT     C158599   9.196  13.352   5.512 -0.2497 -0.1865 -0.2301
29300OCT     C258600   9.645  13.234   5.496  0.0298  0.2475  0.0643
29301OCT     C158601  19.669  21.267  14.465 -0.1126  0.2836  0.1794
29301OCT     C258602  19.541  21.233  14.934 -0.1870  0.0518 -0.1531
29302OCT     C158603  23.561  15.123   9.488  0.1233 -0.1806 -0.1280
29302OCT     C258604   0.271  15.022   9.386  0.0555  0.0017 -0.0270
29303OCT     C158605   7.959  21.214   1.507  0.1229  0.2687 -0.0205
29303OCT     C258606   7.649  21.227   1.225  0.0609  0.2159 -0.1406
29304OCT     C158607  16.910  22.799  10.845  0.0428  0.0602  0.1668
29304OCT     C258608  16.735  22.669  11.220 -0.0083 -0.2124  0.1514
29305OCT     C158609  12.043  21.022  18.548 -0.2845  0.0876 -0.2590
29305OCT     C258610  11.859  21.191  18.920 -0.2616 -0.1177  0.0261
29306OCT     C158611   3.136  21.349   6.212 -0.0092  0.0748  0.1481
29306OCT     C258612   2.829  21.497   6.520 -0.1443 -0.2781 -0.0953
29307OCT     C158613  19.498  19.288   5.893 -0.3527 -0.2847  0.2418
29307OCT     C258614  19.895  19.426   6.030 -0.0377 -0.1469 -0.5679
29308OCT     C158615  18.204   4.365   9.690 -0.1616 -0.1363 -0.0434
29308OCT     C258616  17.816   4.166   9.499  0.0664 -0.0915 -0.1996
29309OCT     C158617   0.390   4.206  18.609  0.3813  0.2082 -0.0746
29309OCT     C258618   0.754   4.437  18.600 -0.2009  0.0031 -0.1768
29310OCT     C158619  19.419  12.976   2.103 -0.0226 -0.1434  0.5416
29310OCT     C258620  19.476  12.802   2.474 -0.4007 -0.2577 -0.0600
29311OCT     C158621  15.070  19.650  12.111 -0.0249 -0.0545  0.1919
29311OCT     C258622  14.830  19.826  11.766 -0.1958  0.6741 -0.0978
29312OCT     C158623  17.907  12.683  14.045 -0.1898 -0.1770  0.0022
29312OCT     C258624  17.760  12.703  14.484  0.0064 -0.0402  0.0245
29313OCT     C158625   2.159  15.135   6.359 -0.6165  0.0244 -0.1878
29313OCT     C258626   1.912  14.793   6.117 -0.1967 -0.0655  0.1065
29314OCT     C158627  22.167  23.388  23.282  0.1032 -0.3593  0.5176
29314OCT     C258628  21.943  23.045  22.994  0.1350 -0.2640 -0.4393
29315OCT     C158629  16.563   0.338  23.111  0.1215  0.2195  0.0709
29315OCT     C258630  16.591   0.746  23.288 -0.2729 -0.0792  0.0481
29316OCT     C158631  16.871   9.699  10.944 -0.1352 -0.1135 -0.0790
29316OCT     C258632  17.351   9.516  11.073 -0.3629  0.0638  0.1525
29317OCT     C158633  17.828  15.012  11.701  0.0281  0.0465 -0.1443
29317OCT     C258634  17.840  14.874  11.231 -0.0686 -0.0212 -0.0604
29318OCT     C158635   8.101   7.046  18.661  0.0345 -0.2580  0.1972
29318OCT     C258636   8.456   6.797  18.443  0.3740 -0.1765 -0.2247
29319OCT     C158637  15.566   3.909   1.681  0.3031 -0.2159 -0.0025
29319OCT     C258638  16.057   3.903   1.599 -0.2043 -0.1576  0.2576
29320OCT     C158639   5.705  14.559  16.825 -0.0762  0.0704  0.1479
29320OCT     C258640   5.396  14.850  16.957  0.1292  0.1968  0.1995
29321OCT     C158641   4.622   3.308  15.400 -0.0918 -0.0373  0.0794
29321OCT     C258642   4.261   3.135  15.192  0.1296  0.4296  0.2981
29322OCT     C158643   4.613   3.923   5.278 -0.0116  0.0188 -0.2429
29322OCT     C258644   4.341   4.242   5.476 -0.0837  0.1366  0.2707
29323OCT     C158645  14.232   8.766   5.937 -0.1179  0.1975  0.3348
29323OCT     C258646  13.939   8.807   5.536 -0.2022 -0.3811 -0.0207
29324OCT     C158647   3.499  18.685   8.625  0.2497  0.0768 -0.2680
29324OCT     C258648   3.500  18.790   9.101 -0.1440  0.0406 -0.4674
29325OCT     C158649  17.598  13.312   2.290  0.0253  0.0360 -0.0127
29325OCT     C258650  17.371  13.566   1.928  0.0501  0.2018 -0.0372
29326OCT     C158651   1.430   1.949  11.781  0.1242 -0.1689 -0.0276
29326OCT     C258652   1.332   1.581  11.591  0.1015  0.0269  0.2306
29327OCT     C158653  13.026   7.965  20.575  0.1168  0.1423  0.2777
29327OCT     C258654  13.290   7.710  20.890 -0.0490  0.0326 -0.0601
29328OCT     C158655   1.396   8.422   0.289 -0.1402  0.1893  0.0822
29328OCT     C258656   1.587   8.073   0.098 -0.5479 -0.1827  0.4377
29329OCT     C158657  10.773  13.209  23.483  0.2395  0.1633 -0.2040
29329OCT     C258658  10.810  12.739  23.468  0.1186 -0.0244  0.1352
29330OCT     C158659   8.160  22.193  14.176 -0.2533  0.2979 -0.3439
29330OCT     C258660   7.671  22.174  14.153 -0.0785  0.5024 -0.0162
29331OCT     C158661  19.812   6.808   3.378 -0.2321  0.0455  0.2678
29331OCT     C258662  19.601   6.575   3.729  0.1778 -0.0096  0.1898
29332OCT     C158663   7.556  14.070   0.926 -0.2200  0.0337  0.0037
29332OCT     C258664   7.455  13.850   0.533  0.4441 -0.0251 -0.1781
29333OCT     C158665  10.751   0.027  16.542  0.1788  0.3436  0.4372
29333OCT     C258666  11.088  23.695  16.890 -0.0373  0.3442 -0.3140
29334OCT     C158667   1.167   2.539   1.294  0.0646 -0.1240 -0.0188
29334OCT     C258668   0.852   2.413   0.975  0.0890  0.2192  0.1341
29335OCT     C158669   8.645   9.624   7.144 -0.0182 -0.1763  0.0797
29335OCT     C258670   8.668   9.559   7.560 -0.0070 -0.0970 -0.2782
29336OCT     C158671   8.461   1.417   4.974 -0.2268  0.0948  0.1484
29336OCT     C258672   8.818   1.134   4.985  0.3759 -0.0572 -0.2072
29337OCT     C158673  20.990  20.854  12.606 -0.0107  0.0668  0.2011
29337OCT     C258674  21.381  20.995  12.446 -0.2841 -0.1468  0.0542
29338OCT     C158675   0.256  17.228   7.113 -0.0182 -0.1064 -0.1370
29338OCT     C258676   0.115  17.565   6.838 -0.1407 -0.1685  0.1421
29339OCT     C158677  18.444  15.725  16.799 -0.0496 -0.2358  0.2711
29339OCT     C258678  18.383  15.276  16.651  0.1616 -0.1938  0.0774
29340OCT     C158679  11.903  12.050   6.805  0.2175  0.1529  0.0035
29340OCT     C258680  11.699  11.927   6.414  0.0738 -0.0628 -0.2597
29341OCT     C158681  12.362  15.617  11.100  0.2775  0.2011  0.3897
29341OCT     C258682  12.742  15.889  11.240 -0.0724  0.0740  0.2354
29342OCT     C158683  10.928  19.095  15.003 -0.0708  0.1903 -0.1165
29342OCT     C258684  10.660  18.692  15.066 -0.0859  0.2823 -0.1152
29343OCT     C158685   0.629   1.502  21.711  0.0460 -0.5064  0.1413
29343OCT     C258686   0.958   1.410  22.017 -0.1034 -0.1858  0.0389
29344OCT     C158687   6.303  10.813  18.871 -0.0021 -0.3746 -0.2624
29344OCT     C258688   6.116  11.024  18.476 -0.0478  0.4554  0.1230
29345OCT     C158689   5.948   0.742   0.107  0.0817  0.2528  0.1400
29345OCT     C258690   6.401   0.635   0.235  0.1399 -0.2725 -0.2383
29346OCT     C158691  13.890  19.880  15.036 -0.0295 -0.0868  0.2198
29346OCT     C258692  14.224  20.163  15.076  0.1699  0.1923 -0.0458
29347OCT     C158693  12.953  17.991  11.531  0.2832  0.2130 -0.3761
29347OCT     C258694  13.030  17.801  11.949  0.1521  0.1091 -0.4244
29348OCT     C158695  12.183  14.594  20.968  0.0928  0.2147 -0.1784
29348OCT     C258696  12.584  14.236  20.967  0.5213  0.1466  0.0575
29349OCT     C158697   4.826  17.908  18.878 -0.2473  0.1165 -0.1461
29349OCT     C258698   5.112  18.162  18.537 -0.1824  0.0087 -0.2222
29350OCT     C158699  10.347  22.027   7.964  0.1256 -0.0933  0.2659
29350OCT     C258700  10.603  22.300   7.671 -0.1350  0.1427  0.2110
29351OCT     C158701   9.360  12.366   3.484  0.0414  0.2914 -0.0438
29351OCT     C258702   9.519  12.662   3.177 -0.2316 -0.0984 -0.1070
29352OCT     C158703  14.917   5.958  22.483  0.3747 -0.2561  0.0649
29352OCT     C258704  14.613   6.249  22.684  0.0521  0.0236 -0.4082
29353OCT     C158705   5.445  16.261  14.951 -0.1938  0.1126 -0.2692
29353OCT     C258706   5.898  16.432  14.929 -0.1975 -0.0559 -0.1340
29354OCT     C158707   1.822  20.329  18.864  0.2678  0.1233 -0.1557
29354OCT     C258708   1.832  20.283  18.374 -0.1111 -0.0204 -0.0968
29355OCT     C158709  10.926  20.202  18.967  0.1478 -0.1923  0.1414
29355OCT     C258710  11.190  20.200  19.333 -0.0932  0.2811  0.3998
29356OCT     C158711   7.212  13.485  15.865 -0.2511 -0.0951 -0.0156
29356OCT     C258712   6.874  13.730  15.675  0.0052  0.0382 -0.0357
29357OCT     C158713   4.445  12.046   8.771 -0.1970  0.1751  0.2197
29357OCT     C258714   4.050  12.245   8.730 -0.2280  0.2585  0.2748
29358OCT     C158715  21.095   3.369   8.270  0.1365  0.4412 -0.0446
29358OCT     C258716  20.816   3.715   8.464 -0.0699 -0.0546  0.4631
29359OCT     C158717   8.333  15.059  17.404  0.0529  0.0127 -0.0111
29359OCT     C258718   8.726  15.259  17.186 -0.0805 -0.0556  0.0168
29360OCT     C158719   3.650   3.879  18.307  0.1246 -0.1009 -0.0753
29360OCT     C258720   4.084   3.918  18.359 -0.1400  0.1532 -0.0855
29361OCT     C158721  16.164   5.542   4.147  0.1898 -0.1310 -0.2628
29361OCT     C258722  15.856   5.708   4.510 -0.3402  0.0579 -0.1610
29362OCT     C158723   2.331   1.340   8.945 -0.2519 -0.0191 -0.2114
29362OCT     C258724   2.296   1.505   8.539 -0.2447 -0.1708  0.0056
29363OCT     C158725  12.969  13.362   1.603 -0.1407 -0.0875  0.1263
29363OCT     C258726  13.014  13.403   2.091  0.0657  0.2857 -0.0136
29364OCT     C158727   3.136   2.574  12.405  0.1255 -0.0822 -0.2681
29364OCT     C258728   3.414   2.488  12.066 -0.0873 -0.2333  0.0042
29365OCT     C158729  22.189   5.200   9.550  0.2954  0.2314  0.4748
29365OCT     C258730  22.529   4.875   9.520 -0.4971  0.2196  0.2223
29366OCT     C158731   7.568  20.010   0.273 -0.1590 -0.0657 -0.1288
29366OCT     C258732   7.632  20.160   0.689  0.0716 -0.2104  0.0194
29367OCT     C158733  22.051  14.751  14.176  0.2882  0.0309 -0.0943
29367OCT     C258734  22.203  14.300  14.024  0.0280  0.1287 -0.1328
29368OCT     C158735  18.124  14.071   2.633  0.1333  0.1233  0.2138
29368OCT     C258736  18.352  13.886   3.002  0.1626  0.0933 -0.0089
29369OCT     C158737   6.957   9.819   0.354 -0.2514  0.0066  0.0410
29369OCT     C258738   7.357   9.583   0.342 -0.1012  0.5162  0.1644
29370OCT     C158739  15.748   9.904   8.882 -0.2533 -0.1095 -0.1762
29370OCT     C258740  15.941   9.687   9.229 -0.2024 -0.0494 -0.0689
29371OCT     C158741  18.141   7.408   0.290  0.4079  0.0595  0.0182
29371OCT     C258742  18.074   6.945   0.368 -0.0883 -0.1790 -0.0649
29372OCT     C158743   0.516  21.674  10.660 -0.1697  0.0454  0.3051
29372OCT     C258744   0.714  21.643  10.228  0.4053  0.1250  0.3959
29373OCT     C158745  20.892   5.070   4.168 -0.1328  0.4128  0.2330
29373OCT     C258746  20.697   5.470   4.233  0.2769 -0.3350  0.1693
29374OCT     C158747  14.874  11.988  16.812 -0.0928  0.0745  0.0395
29374OCT     C258748  15.290  11.740  16.947 -0.2886 -0.0046 -0.2971
29375OCT     C158749   0.695  16.502  21.556  0.0350 -0.2837  0.1166
29375OCT     C258750   0.920  16.316  21.974 -0.0888 -0.0329 -0.1441
29376OCT     C158751   4.380   6.563  10.433  0.3237  0.1679 -0.1021
29376OCT     C258752   3.970   6.536  10.184 -0.1396 -0.1215  0.0033
29377OCT     C158753  20.554   8.883  17.997 -0.2442  0.2090  0.0291
29377OCT     C258754  21.032   8.953  17.972 -0.0498  0.2070 -0.1307
29378OCT     C158755   6.496  20.967  23.281 -0.1241  0.2885 -0.0510
29378OCT     C258756   6.581  20.823  22.870 -0.3633 -0.0547 -0.4701
29379OCT     C158757  14.783  19.809  11.240  0.1227  0.1226  0.1660
29379OCT     C258758  14.866  19.396  11.377  0.1094  0.1643  0.1395
29380OCT     C158759  12.089  10.010  22.532  0.3109  0.1772 -0.0044
29380OCT     C258760  12.022  10.093  22.998 -0.2749  0.0703 -0.2894
29381OCT     C158761  23.064  12.893   3.834  0.0439 -0.0077  0.0078
29381OCT     C258762  22.846  12.950   3.370  0.2414  0.0883  0.1802
29382OCT     C158763  19.917  19.916  16.314 -0.0589  0.2849 -0.0531
29382OCT     C258764  19.511  19.877  16.487 -0.1736  0.1409  0.1807
29383OCT     C158765  20.593  11.852  14.856  0.0758  0.2358  0.0578
29383OCT     C258766  20.068  11.876  14.873  0.2727  0.6571 -0.4470
29384OCT     C158767  10.034  19.520  12.690  0.1674 -0.1374 -0.1603
29384OCT     C258768   9.731  19.345  13.034 -0.2266  0.1751 -0.3893
29385OCT     C158769   2.688   1.320   6.806  0.4506 -0.0704 -0.1054
29385OCT     C258770   3.039   1.597   6.596  0.1474 -0.0764  0.2235
29386OCT     C158771   4.610   8.623   8.183  0.0924  0.2967 -0.0451
29386OCT     C258772   4.227   8.830   7.979  0.0615 -0.0147 -0.2515
29387OCT     C158773   4.560  13.881  14.709 -0.0196  0.2907 -0.2484
29387OCT     C258774   4.247  13.852  15.049  0.0936 -0.0399  0.1843
29388OCT     C158775   2.356  12.062   7.742  0.0045  0.2174  0.1032
29388OCT     C258776   2.076  12.279   7.380 -0.1656  0.0549  0.1062
29389OCT     C158777  23.669  11.208  13.609 -0.0513 -0.1488  0.0559
29389OCT     C258778  23.236  11.156  13.535 -0.0459  0.0278 -0.0131
29390OCT     C158779   9.333  11.375  23.472 -0.0666 -0.2139  0.0638
29390OCT     C258780   9.153  11.014  23.685  0.3591  0.0766  0.1547
29391OCT     C158781  13.119  10.700   3.819  0.0536 -0.1739  0.2326
29391OCT     C258782  13.500  10.869   3.633 -0.1192 -0.3611  0.2040
29392OCT     C158783  14.038   1.788  21.381 -0.0898 -0.2643 -0.1104
29392OCT     C258784  13.904   1.816  20.880 -0.1281  0.5990 -0.2931
29393OCT     C158785   0.577   8.196   2.918  0.5805 -0.0636  0.2720
29393OCT     C258786   0.560   8.266   3.381 -0.1340  0.3785 -0.0643
29394OCT     C158787  20.697  13.090  22.426 -0.1792  0.4349  0.0136
29394OCT     C258788  20.263  13.189  22.373 -0.0918  0.1977 -0.1384
29395OCT     C158789   1.158  21.613  18.130  0.1773  0.4086  0.2388
29395OCT     C258790   1.538  21.430  18.064 -0.0145 -0.1977 -0.2668
29396OCT     C158791  10.051  21.214   3.458 -0.0898 -0.4351 -0.0417
29396OCT     C258792   9.937  21.101   3.889  0.0010 -0.0678 -0.1943
29397OCT     C158793   9.553  19.972   1.520 -0.0625 -0.0308 -0.0795
29397OCT     C258794   9.836  20.123   1.189  0.2680  0.2291  0.0154
29398OCT     C158795   5.407  12.866  12.962  0.1238  0.2039  0.1121
29398OCT     C258796   5.430  12.805  12.489  0.1666  0.2688 -0.0494
29399OCT     C158797  11.665   2.952   7.873  0.2071 -0.0492  0.2032
29399OCT     C258798  11.841   3.215   7.503  0.3079 -0.2249 -0.2729
29400OCT     C158799   3.146   4.371  13.639  0.3254  0.1691  0.0175
29400OCT     C258800   2.929   4.423  13.219 -0.0842 -0.1727 -0.0162
29401OCT     C158801  15.446  22.799  10.122 -0.0464 -0.0178 -0.4187
29401OCT     C258802  15.643  23.194  10.012 -0.1296  0.0108  0.2180
29402OCT     C158803   3.295  10.251  10.669 -0.0512 -0.0532 -0.1658
29402OCT     C258804   3.497  10.178  10.259  0.0714  0.0570  0.0232
29403OCT     C158805   5.768   9.625  21.802 -0.2903  0.2393  0.0428
29403OCT     C258806   6.053   9.762  21.467 -0.0809 -0.2106  0.0224
29404OCT     C158807   2.062   3.680   8.594  0.1924 -0.0378 -0.1634
29404OCT     C258808   2.010   3.917   8.990  0.2668 -0.1261 -0.0672
29405OCT     C158809  12.222   8.685  12.682  0.1818 -0.0305 -0.1224
29405OCT     C258810  11.843   8.949  12.461 -0.3064 -0.1289 -0.3759
29406OCT     C158811  19.768  19.927   6.039 -0.2089 -0.0650 -0.1161
29406OCT     C258812  20.086  20.211   6.190  0.4197 -0.0972 -0.1354
29407OCT     C158813  13.276  21.805   1.953 -0.1340  0.0314  0.0728
29407OCT     C258814  13.686  22.086   1.943  0.0855 -0.2704 -0.1066
29408OCT     C158815  22.257  23.300   4.987 -0.3591 -0.1321 -0.1984
29408OCT     C258816  21.888  23.377   5.164 -0.3200  0.4796 -0.0253
29409OCT     C158817   8.560  12.226  14.617  0.0962 -0.2608 -0.1071
29409OCT     C258818   8.204  12.073  14.372  0.2880  0.3170 -0.3353
29410OCT     C158819  20.597  12.566   1.700 -0.4903 -0.3088 -0.0606
29410OCT     C258820  20.736  12.934   1.486 -0.3146 -0.3175  0.0386
29411OCT     C158821   7.287   0.824  14.353 -0.0417  0.1936  0.0605
29411OCT     C258822   7.136   0.631  13.957 -0.0276 -0.3465  0.0264
29412OCT     C158823  18.793   8.330  13.048  0.1571  0.2003  0.0506
29412OCT     C258824  18.430   8.298  12.716  0.0844  0.0722 -0.1446
29413OCT     C158825  17.866  23.008   0.301  0.0002  0.2106 -0.0019
29413OCT     C258826  18.326  23.032   0.369 -0.3232 -0.0310 -0.0642
29414OCT     C158827   2.571   8.528  12.761 -0.2008 -0.2551 -0.2633
29414OCT     C258828   2.922   8.911  12.829  0.1216  0.0183  0.0887
29415OCT     C158829  11.713   7.808  11.692 -0.3149 -0.0836  0.1428
29415OCT     C258830  12.011   7.708  11.316  0.0368  0.0728  0.0694
29416OCT     C158831   6.549   6.857  13.378  0.1497 -0.1889  0.1223
29416OCT     C258832   6.198   6.825  13.734 -0.2115  0.1803  0.1538
29417OCT     C158833   0.431   8.250  14.228  0.2126 -0.1898 -0.1954
29417OCT     C258834   0.904   8.250  14.163 -0.0370  0.1653 -0.0365
29418OCT     C158835  17.515  15.395  23.449  0.0506  0.2444 -0.1586
29418OCT     C258836  17.885  15.256  23.680  0.2429  0.0730  0.1303
29419OCT     C158837  23.068  13.400   3.427  0.2668 -0.0401 -0.0063
29419OCT     C258838  23.388  13.759   3.522 -0.0224  0.4821  0.2692
29420OCT     C158839  15.428   6.194  11.787 -0.1840 -0.3187  0.0498
29420OCT     C258840  14.997   6.008  11.813 -0.1903 -0.0087 -0.0677
29421OCT     C158841   7.816   9.207   5.716  0.1623  0.3324 -0.0914
29421OCT     C258842   7.845   9.236   5.236 -0.0120 -0.3035  0.0976
29422OCT     C158843  15.284  23.615  13.079 -0.1127 -0.0374 -0.0675
29422OCT     C258844  15.529  23.235  13.015  0.0844 -0.0776 -0.0275
29423OCT     C158845  23.637   0.688   7.823  0.0481 -0.0272  0.1353
29423OCT     C258846   0.405   0.585   7.799  0.2326  0.5094  0.0222
29424OCT     C158847   6.536   9.897   1.950 -0.2883  0.1819  0.1559
29424OCT     C258848   6.716   9.502   2.001  0.0655 -0.1999  0.4065
29425OCT     C158849   1.086   5.667   1.478  0.3321  0.0430 -0.2388
29425OCT     C258850   0.779   5.360   1.396 -0.3839 -0.1644  0.1202
29426OCT     C158851  12.236   4.081   5.786 -0.1215  0.1357 -0.1319
29426OCT     C258852  12.179   3.706   6.126 -0.2250  0.2630  0.3328
29427OCT     C158853  15.818   3.694  23.141  0.4912  0.1368  0.0783
29427OCT     C258854  15.645   3.891  23.585 -0.1814 -0.0453  0.0633
29428OCT     C158855  14.593   1.913  14.422 -0.4510  0.2507  0.3403
29428OCT     C258856  14.265   2.189  14.209  0.0191 -0.0349  0.0764
29429OCT     C158857  13.678  12.481   7.884 -0.2622  0.2782 -0.0925
29429OCT     C258858  14.071  12.232   7.891  0.1197 -0.2476 -0.0353
29430OCT     C158859  13.915  23.112   2.650  0.0821  0.3751  0.0701
29430OCT     C258860  13.987  22.858   2.202 -0.3815 -0.1174 -0.1406
29431OCT     C158861   3.704  20.803   0.747  0.0992 -0.3023  0.0749
29431OCT     C258862   3.637  21.097   1.069 -0.0262 -0.0709 -0.0144
29432OCT     C158863   7.525   2.211   8.419  0.2101  0.2735  0.2587
29432OCT     C258864   7.718   2.232   7.975 -0.2133  0.2639 -0.1442
29433OCT     C158865   1.707   5.409   8.274 -0.0071 -0.0241 -0.0408
29433OCT     C258866   2.169   5.349   8.270 -0.3299  0.3900 -0.3763
29434OCT     C158867  17.987  11.539   6.918  0.1514  0.3315  0.0515
29434OCT     C258868  17.704  11.390   7.213  0.1407 -0.0772 -0.2526
29435OCT     C158869  11.542  18.800  23.278 -0.0417 -0.2618 -0.2459
29435OCT     C258870  11.728  19.116  22.964  0.0573 -0.4532 -0.0050
29436OCT     C158871  18.542  13.926   9.508 -0.0762 -0.2299  0.1565
29436OCT     C258872  18.355  13.499   9.398  0.0884 -0.0953  0.0388
29437OCT     C158873  20.509   5.935  22.375  0.3438  0.2580 -0.2284
29437OCT     C258874  20.831   5.992  22.015  0.2026 -0.1068 -0.1777
29438OCT     C158875  19.833  11.318  20.825  0.2376 -0.3252  0.4276
29438OCT     C258876  19.999  11.448  21.206  0.1402 -0.1153  0.0441
29439OCT     C158877  10.072  11.769   2.646 -0.1952  0.1921  0.2093
29439OCT     C258878   9.826  11.541   2.903 -0.1882  0.2472  0.3278
29440OCT     C158879   9.887  12.365  22.866  0.1411  0.0481 -0.0988
29440OCT     C258880   9.896  12.489  22.436 -0.1428  0.2956  0.2030
29441OCT     C158881  15.942  12.603   2.400 -0.0971 -0.0068 -0.0505
29441OCT     C258882  16.070  12.598   1.976  0.0568 -0.0224  0.5764
29442OCT     C158883  23.469   8.169  20.014 -0.1240 -0.2543  0.0006
29442OCT     C258884  23.164   7.830  20.182  0.1222  0.1640 -0.0010
29443OCT     C158885  19.436   1.911   4.699 -0.0056 -0.0330 -0.0542
29443OCT     C258886  19.367   1.437   4.816 -0.0142 -0.0271 -0.0719
29444OCT     C158887   0.523  17.683   0.003 -0.1136 -0.1451  0.0466
29444OCT     C258888   0.257  18.042  23.699  0.4601 -0.0494 -0.0972
29445OCT     C158889   0.073  12.513  16.741  0.1616  0.0433  0.0962
29445OCT     C258890   0.472  12.764  16.678  0.0519 -0.0129 -0.0366
29446OCT     C158891   2.294   2.264  10.850  0.1015  0.0272 -0.1260
29446OCT     C258892   1.975   2.294  10.488  0.1744  0.0850 -0.1565
29447OCT     C158893  16.379  15.737  13.716 -0.0533 -0.0507  0.2542
29447OCT     C258894  16.288  16.195  13.651  0.3236  0.0711  0.1891
29448OCT     C158895  20.658  20.395  21.570  0.2737 -0.0270  0.2124
29448OCT     C258896  20.354  20.195  21.267  0.4034  0.0017  0.1331
29449OCT     C158897   1.925   7.880  18.600  0.2657 -0.0713  0.1925
29449OCT     C258898   2.137   7.514  18.836 -0.0005  0.2195 -0.3641
29450OCT     C158899  17.615  18.721   3.290 -0.0979  0.0808  0.1592
29450OCT     C258900  17.636  18.319   3.448  0.3089  0.2021 -0.0544
29451OCT     C158901  11.869   0.424   3.377 -0.0202 -0.1456 -0.3425
29451OCT     C258902  11.542   0.117   3.409  0.1567  0.3284 -0.1502
29452OCT     C158903  19.844  12.438  20.135 -0.0727  0.0008 -0.0613
29452OCT     C258904  19.531  12.751  19.984 -0.1223 -0.2352  0.1055
29453OCT     C158905   3.039   0.361   1.085  0.1409 -0.3670  0.0599
29453OCT     C258906   3.449   0.045   1.160 -0.1296  0.0623  0.2271
29454OCT     C158907  18.332  18.553   2.226  0.1577 -0.2091  0.0363
29454OCT     C258908  18.082  18.211   2.450 -0.0123 -0.1132 -0.1331
29455OCT     C158909  15.497  19.620  19.727 -0.0311  0.1759 -0.0621
29455OCT     C258910  15.769  19.330  19.517 -0.2758  0.1518  0.2168
29456OCT     C158911  16.625   2.449   1.877 -0.3073 -0.3588 -0.1152
29456OCT     C258912  16.683   2.261   2.287  0.3086 -0.0122 -0.1126
29457OCT     C158913   8.745   7.861   3.320 -0.3091 -0.2393  0.1415
29457OCT     C258914   8.853   8.159   3.673  0.3442  0.0097  0.0184
29458OCT     C158915  11.932  10.692   9.879 -0.1078  0.2239  0.2626
29458OCT     C258916  11.859  10.274   9.646 -0.1557  0.1165 -0.1006
29459OCT     C158917  18.949   4.617  15.801  0.0285 -0.0637  0.2933
29459OCT     C258918  18.883   4.267  15.513 -0.0130 -0.0316 -0.0606
29460OCT     C158919  14.336   2.817  22.598 -0.0260  0.0868  0.6004
29460OCT     C258920  14.340   3.308  22.446  0.2952  0.0224 -0.4292
29461OCT     C158921  14.464   9.125  14.324 -0.0296  0.3590 -0.1777
29461OCT     C258922  14.859   8.813  14.165 -0.0391 -0.1072  0.0608
29462OCT     C158923  19.072  13.714  17.280 -0.0189  0.1398 -0.0208
29462OCT     C258924  19.359  13.339  17.197 -0.3150  0.1217 -0.0711
29463OCT     C158925   5.544  13.837  18.512  0.0552  0.2139 -0.1934
29463OCT     C258926   5.455  13.479  18.762 -0.0885  0.1124  0.1188
29464OCT     C158927   8.059   4.376  16.299  0.1144  0.0002 -0.0295
29464OCT     C258928   8.078   4.540  16.730 -0.0589 -0.0792  0.1071
29465OCT     C158929   9.818   9.040  18.415  0.1061 -0.2064  0.2633
29465OCT     C258930   9.901   8.763  18.761  0.1280  0.2420  0.2516
29466OCT     C158931   8.742   0.252   6.006  0.3073  0.2731  0.0073
29466OCT     C258932   8.933  23.549   6.024 -0.0518  0.3569  0.0562
29467OCT     C158933   9.227  15.069  17.052 -0.2090 -0.0225 -0.3958
29467OCT     C258934   9.543  14.737  17.140 -0.1204 -0.0452 -0.4654
29468OCT     C158935  20.279   3.397   6.524  0.3543 -0.0049  0.0271
29468OCT     C258936  20.579   3.581   6.764  0.2724  0.0392 -0.0927
29469OCT     C158937  22.106   4.328  15.590 -0.1737 -0.1133  0.1730
29469OCT     C258938  22.116   4.401  15.140 -0.2842  0.2732 -0.3983
29470OCT     C158939  14.689   3.061  16.226  0.0486 -0.1527 -0.0929
29470OCT     C258940  15.031   2.783  16.172 -0.3113  0.3706  0.4787
29471OCT     C158941  15.881  12.414   3.646 -0.1064  0.0627  0.0851
29471OCT     C258942  15.566  12.092   3.752  0.0416 -0.2491  0.3626
29472OCT     C158943  15.335  11.278   0.218 -0.0765 -0.0322 -0.1683
29472OCT     C258944  15.227  10.859   0.039  0.1412  0.0312  0.1219
29473OCT     C158945  20.445   0.511  21.811  0.0438  0.2445 -0.1470
29473OCT     C258946  20.781   0.603  22.091  0.4041  0.2910 -0.1190
29474OCT     C158947  16.725   9.758   0.866 -0.3601  0.0430 -0.0810
29474OCT     C258948  16.861   9.839   0.433 -0.0956  0.1845  0.1840
29475OCT     C158949  10.559   0.515   9.332 -0.0406  0.1497  0.4034
29475OCT     C258950  10.322   0.779   9.591 -0.1675  0.2126 -0.1970
29476OCT     C158951  12.067   8.214  16.412 -0.2606 -0.0808 -0.2241
29476OCT     C258952  12.356   7.834  16.381 -0.1284 -0.2239 -0.1456
29477OCT     C158953  21.606   1.297   5.648 -0.2050 -0.0118 -0.2819
29477OCT     C258954  21.476   1.577   5.983 -0.1087 -0.4151  0.0761
29478OCT     C158955   0.264   9.166  15.034 -0.1842 -0.0226  0.1622
29478OCT     C258956  23.634   9.447  15.113 -0.2558  0.1426  0.1271
29479OCT     C158957  20.223  22.519   3.898 -0.5206 -0.0619 -0.2303
29479OCT     C258958  20.578  22.863   3.867 -0.2151  0.2198  0.2591
29480OCT     C158959  15.591  23.092   4.482 -0.1360  0.0803  0.0105
29480OCT     C258960  15.339  23.092   4.025  0.0591  0.0684 -0.2511
29481OCT     C158961  23.091   9.146   2.288 -0.3778  0.2862 -0.2790
29481OCT     C258962  23.343   9.484   2.500  0.1891  0.1212 -0.1018
29482OCT     C158963   7.870   3.058   6.912 -0.1063 -0.2135  0.0022
29482OCT     C258964   7.957   2.985   6.401  0.3427 -0.1232  0.1176
29483OCT     C158965  15.411   1.046  16.357 -0.2463 -0.1001  0.0479
29483OCT     C258966  15.732   1.311  16.373  0.1411 -0.1638  0.1486
29484OCT     C158967  10.975  11.805   7.163 -0.0609  0.0236  0.0750
29484OCT     C258968  11.098  11.426   7.438  0.0162  0.1123 -0.2772
29485OCT     C158969  14.460  23.190   5.617 -0.3144  0.1008 -0.2608
29485OCT     C258970  14.044  23.035   5.787  0.0420  0.4259  0.2476
29486OCT     C158971  18.163  12.339  21.039  0.0326  0.1158  0.0063
29486OCT     C258972  18.029  11.883  21.291  0.2395  0.2596  0.1723
29487OCT     C158973  17.266  11.825   9.696  0.1206 -0.3797  0.2737
29487OCT     C258974  16.828  11.958   9.750  0.1950  0.2717 -0.1022
29488OCT     C158975   4.153  20.649  22.959 -0.0587  0.2972  0.1280
29488OCT     C258976   3.867  21.001  22.967 -0.0813 -0.0894 -0.1246
29489OCT     C158977  16.654  19.768   5.991 -0.1048  0.3686 -0.0681
29489OCT     C258978  16.733  20.205   6.070 -0.1668  0.1050  0.2603
29490OCT     C158979  13.600  12.545  19.113  0.0489 -0.3461 -0.2646
29490OCT     C258980  13.377  12.877  18.846  0.0124  0.1133  0.0372
29491OCT     C158981  10.343  16.439   1.936  0.0516  0.0860 -0.0689
29491OCT     C258982   9.977  16.494   2.263  0.1436  0.0377  0.0176
29492OCT     C158983  15.945  15.953  15.042 -0.1191  0.2379 -0.0031
29492OCT     C258984  15.616  15.700  15.291  0.0186  0.1082  0.2193
29493OCT     C158985  20.546  15.407   5.696  0.0987 -0.0706  0.4079
29493OCT     C258986  20.341  15.369   6.116 -0.0802 -0.1768  0.0159
29494OCT     C158987  17.176  20.572  19.905 -0.0075  0.1038 -0.3280
29494OCT     C258988  16.923  20.931  19.757  0.1448 -0.1074  0.0017
29495OCT     C158989  19.777  16.996  19.724 -0.4047 -0.0679  0.1838
29495OCT     C258990  19.546  16.753  20.058 -0.0869  0.1895  0.0334
29496OCT     C158991  17.623  21.587   8.504 -0.0410 -0.2135 -0.0513
29496OCT     C258992  17.393  21.347   8.107  0.2386 -0.1560 -0.1092
29497OCT     C158993   1.254  10.564  19.893 -0.0480 -0.0950 -0.0395
29497OCT     C258994   1.159  10.294  20.242  0.0325  0.0929 -0.1890
29498OCT     C158995  15.539   6.719   1.253  0.2123 -0.1092  0.1712
29498OCT     C258996  15.921   6.585   1.449  0.1135  0.0486  0.6742
29499OCT     C158997   7.952   8.566  22.182 -0.0173 -0.4245  0.4907
29499OCT     C258998   8.356   8.572  22.470  0.1015  0.2986  0.1002
29500OCT     C158999  19.728  15.491   6.230  0.1032  0.3064  0.0506
29500OCT     C259000  19.582  15.799   6.607 -0.0635  0.4202 -0.0611
29501OCT     C159001   3.195   4.382  11.381 -0.1156 -0.1403 -0.1215
29501OCT     C259002   2.842   4.095  11.289 -0.2045 -0.0968 -0.0776
29502OCT     C159003  15.256   4.101  10.793 -0.0813 -0.3373  0.6006
29502OCT     C259004  14.881   4.014  10.541  0.1839 -0.4758 -0.0128
29503OCT     C159005  12.963  14.525  20.465 -0.0877 -0.4406 -0.0696
29503OCT     C259006  13.043  14.280  20.085  0.0970 -0.0115  0.0459
29504OCT     C159007   0.455  23.705   9.516 -0.1607  0.1498  0.0613
29504OCT     C259008   0.940  23.633   9.452 -0.1768 -0.2383  0.0605
29505OCT     C159009   4.713  20.975   1.230 -0.0593  0.1417 -0.0742
29505OCT     C259010   4.509  20.592   1.342  0.0426 -0.2142 -0.1418
29506OCT     C159011  13.778  19.517  23.733  0.5155 -0.3008  0.2020
29506OCT     C259012  13.358  19.713   0.203 -0.1213  0.1216  0.4172
29507OCT     C159013  14.865  18.813   2.344 -0.0155  0.2003 -0.1343
29507OCT     C259014  14.834  18.435   2.023 -0.1081  0.2903  0.1520
29508OCT     C159015   2.700   9.465  21.165  0.0837 -0.0990  0.1869
29508OCT     C259016   2.894   9.268  21.514 -0.1938  0.3452 -0.0120
29509OCT     C159017  11.120   5.423  19.491  0.2590 -0.0454 -0.0313
29509OCT     C259018  11.233   5.741  19.098  0.0467 -0.0159 -0.0064
29510OCT     C159019  15.839   0.080  17.652  0.2361  0.0252  0.1236
29510OCT     C259020  15.761   0.477  17.846 -0.2978  0.0558  0.1056
29511OCT     C159021  13.582  19.260   6.802 -0.1240 -0.1397  0.4243
29511OCT     C259022  13.512  19.720   6.530  0.0293 -0.3050  0.0527
29512OCT     C159023  11.879   9.120   3.930 -0.0867 -0.1416  0.0289
29512OCT     C259024  11.982   9.094   4.349  0.1514  0.2938 -0.0877
29513OCT     C159025   5.412   7.745  22.637 -0.0980 -0.0120 -0.2398
29513OCT     C259026   5.444   8.150  22.351 -0.1455 -0.0636  0.0643
29514OCT     C159027  17.710  20.468  18.134 -0.2260 -0.1413  0.1455
29514OCT     C259028  17.841  20.866  18.314  0.1811 -0.1323  0.3101
29515OCT     C159029  17.393  13.438  11.897  0.0479  0.0409 -0.0408
29515OCT     C259030  17.257  13.314  11.468 -0.0251  0.1392  0.0485
29516OCT     C159031  16.807   1.034  17.085 -0.4994 -0.0241  0.1114
29516OCT     C259032  17.123   1.207  16.792 -0.0173 -0.0181  0.2567
29517OCT     C159033  21.425   9.527   1.780  0.5007 -0.0771 -0.0267
29517OCT     C259034  21.573   9.392   2.217  0.1773  0.2247  0.2257
29518OCT     C159035  18.776  16.582   4.502  0.2382  0.1598 -0.4217
29518OCT     C259036  18.295  16.544   4.381  0.1576  0.1293 -0.4134
29519OCT     C159037   5.682  13.170   8.072 -0.0300  0.1360  0.0141
29519OCT     C259038   5.354  13.161   7.710 -0.1883 -0.0985  0.0561
29520OCT     C159039   7.932  20.734  13.306 -0.0391 -0.0414 -0.0533
29520OCT     C259040   7.706  20.984  12.940 -0.2255  0.1868  0.1024
29521OCT     C159041   8.755   4.684   4.147 -0.0147  0.2545  0.1214
29521OCT     C259042   8.717   5.067   3.879 -0.1061  0.0606 -0.0866
29522OCT     C159043  14.698   1.179   5.614 -0.0538 -0.0100  0.2951
29522OCT     C259044  14.411   0.990   5.945  0.2009  0.0670 -0.0171
29523OCT     C159045   5.096  12.172  17.754 -0.0996  0.4238 -0.1222
29523OCT     C259046   5.220  12.251  17.336 -0.1859  0.1054 -0.1821
29524OCT     C159047  16.391  11.844  17.402 -0.4306 -0.3765  0.1332
29524OCT     C259048  16.649  11.972  17.059  0.0991 -0.0384  0.0724
29525OCT     C159049   4.959  14.287  14.174  0.2489 -0.0080 -0.0242
29525OCT     C259050   4.937  13.810  14.276  0.0551 -0.1558 -0.3651
29526OCT     C159051   6.598  20.501  20.116 -0.1279 -0.1950  0.0646
29526OCT     C259052   6.926  20.187  20.252 -0.1560 -0.2461  0.2069
29527OCT     C159053  22.414   6.839  13.868  0.0225  0.0060  0.0468
29527OCT     C259054  22.332   6.492  13.585  0.0197 -0.3323 -0.3903
29528OCT     C159055  13.826  17.367  17.327  0.0878 -0.0265 -0.1735
29528OCT     C259056  14.155  17.328  17.619 -0.2397 -0.3628  0.2203
29529OCT     C159057  23.174   3.754   4.573 -0.2775  0.0981  0.1885
29529OCT     C259058  23.328   4.163   4.611 -0.3201  0.1274  0.0363
29530OCT     C159059  22.848  20.202   6.349 -0.1186 -0.0429  0.2925
29530OCT     C259060  22.628  20.052   5.967  0.2046 -0.1128 -0.0808
29531OCT     C159061  12.014  20.036   1.719 -0.1945 -0.0068  0.0446
29531OCT     C259062  12.110  20.495   1.722 -0.1550  0.0898 -0.2853
29532OCT     C159063   9.571  10.910   8.510  0.1648  0.1459  0.2134
29532OCT     C259064  10.042  10.870   8.547  0.1190 -0.2776  0.3643
29533OCT     C159065  20.726   7.471   4.122  0.1500 -0.2053 -0.1674
29533OCT     C259066  20.719   6.993   3.972 -0.0420  0.1174  0.0153
29534OCT     C159067  16.969   8.095  22.974  0.1619  0.2492 -0.1415
29534OCT     C259068  17.250   8.522  22.904 -0.0433  0.2398  0.0818
29535OCT     C159069   2.478  18.591  15.910 -0.0928  0.0308 -0.0738
29535OCT     C259070   2.695  18.927  16.145 -0.1169 -0.0465  0.3242
29536OCT     C159071  12.257  14.123  10.634  0.0388  0.0156  0.3518
29536OCT     C259072  12.668  14.279  10.540  0.0370  0.2137  0.2091
29537OCT     C159073  18.062   5.208   9.553  0.1977  0.0317 -0.1013
29537OCT     C259074  17.747   5.121   9.232 -0.4103  0.2432 -0.1235
29538OCT     C159075   7.439  15.142   0.229  0.0680 -0.1891 -0.0091
29538OCT     C259076   7.823  15.201   0.472  0.1273  0.3467  0.0789
29539OCT     C159077   9.407   3.477  13.074 -0.0813 -0.0166 -0.1309
29539OCT     C259078   9.814   3.556  12.824 -0.0260 -0.0105  0.0883
29540OCT     C159079  15.602   6.487  13.173 -0.0064 -0.2529 -0.0420
29540OCT     C259080  15.642   5.968  13.229  0.3161 -0.0789 -0.1477
29541OCT     C159081  15.349  18.860   6.592  0.3319 -0.2917 -0.0785
29541OCT     C259082  15.731  18.734   6.413  0.2946  0.3403 -0.3285
29542OCT     C159083  12.356  18.906   1.501  0.0476 -0.0961  0.0008
29542OCT     C259084  12.014  19.129   1.740 -0.0180  0.0056 -0.0388
29543OCT     C159085  16.631   7.803  19.306 -0.3512 -0.2451 -0.2157
29543OCT     C259086  16.425   8.184  19.385  0.0490 -0.3038 -0.0414
29544OCT     C159087   9.430  19.053  20.225 -0.0632 -0.1408 -0.0245
29544OCT     C259088   9.827  19.101  20.526  0.4793  0.3120  0.1088
29545OCT     C159089  11.553  17.357  20.532 -0.0527  0.2674  0.1195
29545OCT     C259090  11.143  17.479  20.290 -0.1858  0.0444 -0.0312
29546OCT     C159091   9.868   4.889   1.623  0.2284  0.0645  0.0357
29546OCT     C259092   9.884   4.973   1.202 -0.0343  0.2414  0.1061
29547OCT     C159093  13.594  22.111   3.383  0.4677 -0.2735  0.1112
29547OCT     C259094  13.414  22.304   3.782  0.1353  0.0702 -0.0064
29548OCT     C159095   6.621  12.653  16.952 -0.2610 -0.0255  0.2333
29548OCT     C259096   6.883  12.816  17.301 -0.2122 -0.0095 -0.1372
29549OCT     C159097  13.079   2.232  10.383 -0.0700 -0.1309  0.2234
29549OCT     C259098  13.138   2.171   9.913 -0.2366  0.1201 -0.3729
29550OCT     C159099  17.185  20.088   7.447 -0.1170  0.1685  0.2639
29550OCT     C259100  17.513  20.366   7.209  0.1202 -0.0354  0.1316
29551OCT     C159101   2.697  13.138  15.609  0.0357 -0.2391 -0.0569
29551OCT     C259102   3.052  12.851  15.691  0.0798 -0.0280  0.2112
29552OCT     C159103   9.234   1.100   1.411 -0.1286 -0.0162  0.2047
29552OCT     C259104   8.909   0.957   1.082 -0.3498 -0.0540 -0.3437
29553OCT     C159105  11.982  17.495   0.392  0.3372  0.0534 -0.0320
29553OCT     C259106  11.881  17.994   0.374  0.0486  0.1689  0.4328
29554OCT     C159107  17.750  13.120  13.216  0.0345  0.1680  0.0164
29554OCT     C259108  17.689  12.667  13.191  0.0749  0.3904  0.1737
29555OCT     C159109  16.982   8.902  19.342 -0.2438 -0.0986 -0.0485
29555OCT     C259110  16.850   8.870  19.822  0.2634  0.3610  0.1016
29556OCT     C159111  15.041  23.168   0.242  0.3629 -0.0483  0.2149
29556OCT     C259112  14.750  22.881  23.672 -0.0550  0.1860  0.0999
29557OCT     C159113   1.014   6.012   6.348 -0.1099 -0.0880  0.1854
29557OCT     C259114   1.035   5.769   5.912  0.3999 -0.2074  0.1042
29558OCT     C159115   7.243   9.036  16.029 -0.0577 -0.0217  0.0739
29558OCT     C259116   7.581   9.302  15.931 -0.0830 -0.0454 -0.2876
29559OCT     C159117   6.298  21.276   5.625  0.1771 -0.0866  0.3087
29559OCT     C259118   6.690  21.113   5.870 -0.1641 -0.0197  0.1106
29560OCT     C159119  19.545  19.447  13.042  0.2354  0.0142  0.1316
29560OCT     C259120  19.094  19.250  13.016 -0.1751  0.2682 -0.1868
29561OCT     C159121   4.095  17.382   1.107 -0.0065 -0.3591 -0.0590
29561OCT     C259122   3.833  17.454   0.749 -0.0618 -0.0914 -0.2302
29562OCT     C159123  22.949   7.509  15.817 -0.2556  0.2405 -0.0605
29562OCT     C259124  23.171   7.196  15.553 -0.0692 -0.0890 -0.1538
29563OCT     C159125  19.640  12.637  17.238  0.2991  0.0059  0.1655
29563OCT     C259126  19.398  12.240  17.283 -0.1924  0.0213  0.1040
29564OCT     C159127  14.450   8.607  13.401 -0.5568 -0.1469  0.0125
29564OCT     C259128  14.066   8.722  13.130 -0.2199 -0.1768 -0.2474
29565OCT     C159129   9.897  16.304  21.073 -0.2003  0.4792 -0.0641
29565OCT     C259130  10.295  16.523  20.957  0.4446  0.2746 -0.2397
29566OCT     C159131   0.826  16.332   4.719 -0.3103 -0.1057  0.1512
29566OCT     C259132   0.842  16.406   4.260  0.2784 -0.0127  0.0202
29567OCT     C159133  22.801  19.956   3.675  0.0137 -0.2834  0.0284
29567OCT     C259134  22.771  19.953   4.136 -0.2764 -0.2094 -0.0464
29568OCT     C159135   0.897   6.252   7.814 -0.2300 -0.0861  0.2388
29568OCT     C259136   1.111   5.858   7.651  0.2838  0.1229 -0.0683
29569OCT     C159137  13.919   1.866  19.974 -0.2143 -0.1233  0.0790
29569OCT     C259138  14.288   2.061  19.977  0.0807 -0.1000 -0.0207
29570OCT     C159139   6.393  16.877  22.707 -0.3265 -0.0509  0.0738
29570OCT     C259140   5.970  16.708  22.658  0.0187  0.2507 -0.1821
29571OCT     C159141  15.814   3.893   3.379 -0.1738  0.3062 -0.2925
29571OCT     C259142  16.056   4.313   3.365  0.0600 -0.0932  0.1496
29572OCT     C159143  14.968   9.426  15.975  0.0491  0.2106 -0.1947
29572OCT     C259144  14.843   9.463  15.544 -0.2275  0.1595 -0.1318
29573OCT     C159145  23.160  14.032  21.065 -0.4824 -0.0812  0.1303
29573OCT     C259146  23.191  13.650  21.340 -0.0883 -0.0849 -0.2105
29574OCT     C159147  17.901  20.167   2.891  0.0129  0.2827 -0.0571
29574OCT     C259148  18.193  20.476   3.129 -0.1907  0.0591  0.0355
29575OCT     C159149   8.090  22.662  22.414 -0.0832 -0.0304  0.1588
29575OCT     C259150   8.215  23.107  22.406  0.2197  0.4631 -0.0067
29576OCT     C159151   2.113  14.376  13.606 -0.2184 -0.0021 -0.0093
29576OCT     C259152   1.933  14.381  13.170  0.1889  0.0221 -0.1452
29577OCT     C159153   1.859  22.274  17.944  0.2377 -0.0693  0.1083
29577OCT     C259154   1.608  22.528  18.277 -0.3104  0.1495 -0.2529
29578OCT     C159155   8.273   9.394  15.855  0.1017 -0.0668  0.1711
29578OCT     C259156   7.892   9.674  15.846  0.0376 -0.1438  0.2984
29579OCT     C159157  23.473   6.846  21.182 -0.3620 -0.0950 -0.2050
29579OCT     C259158  23.294   7.193  20.928  0.0108 -0.0328  0.2698
29580OCT     C159159  19.326   6.793   7.853  0.2326  0.0596 -0.2519
29580OCT     C259160  19.716   6.960   7.675  0.2111  0.0357  0.3396
29581OCT     C159161   8.703   3.414  18.042 -0.0004  0.3742  0.3031
29581OCT     C259162   8.729   3.048  17.797 -0.2113  0.0265 -0.0521
29582OCT     C159163   2.823  11.822  10.741  0.0422  0.0807 -0.0015
29582OCT     C259164   2.603  11.358  10.695  0.0461 -0.0074 -0.1203
29583OCT     C159165  19.747  14.584   4.144  0.3173  0.0255  0.1362
29583OCT     C259166  19.673  14.975   4.317 -0.1297 -0.3503 -0.0151
29584OCT     C159167   2.660   0.587   0.601 -0.0136  0.2379  0.0390
29584OCT     C259168   2.628   0.321   0.201  0.1159 -0.2508 -0.0724
29585OCT     C159169  11.244  15.476  11.621  0.0241 -0.3402 -0.3789
29585OCT     C259170  11.283  15.071  11.813 -0.0027  0.0313  0.0887
29586OCT     C159171   3.648  11.501  20.170 -0.3377 -0.0165 -0.1425
29586OCT     C259172   3.734  11.489  19.687 -0.0879  0.1939  0.0088
29587OCT     C159173  10.661   6.373  17.142 -0.0998  0.1155 -0.0528
29587OCT     C259174  10.252   6.570  17.119  0.4949 -0.1646  0.0209
29588OCT     C159175   6.034   3.867  15.979 -0.2415  0.0033 -0.2409
29588OCT     C259176   6.489   4.074  16.092 -0.1182 -0.2639  0.3587
29589OCT     C159177   2.269   2.575   0.018  0.2982  0.0679 -0.2296
29589OCT     C259178   1.864   2.723   0.228  0.0118  0.1690 -0.5161
29590OCT     C159179   3.151  10.957   7.815 -0.3739  0.1409 -0.2625
29590OCT     C259180   3.666  10.919   7.802 -0.0613  0.2909 -0.4241
29591OCT     C159181  19.284   2.334  10.838  0.2445  0.0985 -0.3354
29591OCT     C259182  19.269   2.760  10.664  0.2192  0.0459 -0.1023
29592OCT     C159183  12.846  13.368  15.838 -0.0930  0.0453  0.0741
29592OCT     C259184  13.285  13.295  15.753 -0.1627  0.0601 -0.1500
29593OCT     C159185   6.585  15.492   4.103  0.0566 -0.2971  0.3328
29593OCT     C259186   6.842  15.586   3.759 -0.4778  0.3453 -0.2470
29594OCT     C159187  21.749  10.129  19.351  0.0246 -0.1283  0.2075
29594OCT     C259188  21.594  10.032  18.963 -0.1957 -0.2845  0.0005
29595OCT     C159189  12.225  16.462   2.329  0.0827  0.1798 -0.0259
29595OCT     C259190  11.853  16.271   2.571 -0.0185  0.0044 -0.0232
29596OCT     C159191  16.344  21.943   1.905  0.1410  0.1391  0.0957
29596OCT     C259192  16.419  21.699   2.319  0.3103 -0.1663 -0.1280
29597OCT     C159193  17.459   1.866  17.048  0.1216  0.0897 -0.2136
29597OCT     C259194  17.007   1.891  16.985  0.0164 -0.0738  0.1695
29598OCT     C159195   6.443  17.595  10.612  0.0915 -0.0823 -0.1402
29598OCT     C259196   6.525  17.103  10.608  0.0283  0.1992  0.0206
29599OCT     C159197   2.780  14.926  10.656  0.3146 -0.0496 -0.0829
29599OCT     C259198   2.968  14.609  10.316 -0.0870  0.0873  0.3541
29600OCT     C159199  14.657  18.618  13.688 -0.0870  0.0953 -0.1848
29600OCT     C259200  14.893  18.995  13.728  0.1297  0.1509 -0.2234
29601OCT     C159201  12.526   2.958  17.585  0.1307 -0.1832  0.0815
29601OCT     C259202  12.278   2.664  17.831 -0.4089  0.4762  0.0926
29602OCT     C159203  15.751   7.220  15.852 -0.3333 -0.3030  0.0736
29602OCT     C259204  15.356   7.110  15.927  0.0545 -0.2924  0.4629
29603OCT     C159205  20.272  14.654  11.773 -0.3333 -0.2074  0.3038
29603OCT     C259206  20.263  14.212  11.573  0.6381  0.1162  0.2045
29604OCT     C159207   9.530  22.438  18.188 -0.0051 -0.2127 -0.1299
29604OCT     C259208   9.108  22.585  18.007 -0.0283 -0.4897  0.0518
29605OCT     C159209  18.654  15.665  19.095  0.0948  0.1238  0.3898
29605OCT     C259210  18.189  15.632  19.064 -0.1892 -0.0085 -0.1381
29606OCT     C159211   0.011   2.210   9.189 -0.2222 -0.0322  0.1293
29606OCT     C259212  23.326   2.181   9.188 -0.0351  0.1440  0.1046
29607OCT     C159213   1.738   2.767  11.564  0.1237  0.0156 -0.1283
29607OCT     C259214   1.780   2.301  11.582 -0.1400 -0.0311 -0.1460
29608OCT     C159215   0.022  10.757  15.542 -0.0004  0.0689 -0.2256
29608OCT     C259216  23.431  10.661  15.185  0.3916  0.0234 -0.3661
29609OCT     C159217   8.449   7.046   2.208  0.1057 -0.0461 -0.3517
29609OCT     C259218   8.358   7.392   2.546  0.0411  0.0615 -0.1663
29610OCT     C159219   3.652   9.461  20.935 -0.1144 -0.1105 -0.1613
29610OCT     C259220   3.370   9.279  21.294  0.3401 -0.2810  0.2448
29611OCT     C159221  17.840   0.855  22.101  0.1584  0.2743  0.1987
29611OCT     C259222  17.861   0.504  21.852 -0.0326  0.1310 -0.2831
29612OCT     C159223  15.268   7.510   8.112 -0.0533 -0.1405  0.0668
29612OCT     C259224  15.545   7.711   7.768  0.2451  0.3195  0.1324
29613OCT     C159225   0.934  10.364  12.734  0.0262 -0.2279 -0.0961
29613OCT     C259226   0.525  10.127  12.567  0.0144  0.0093  0.2216
29614OCT     C159227  11.080   9.858  23.163  0.1597 -0.2028 -0.0387
29614OCT     C259228  11.010  10.130  22.809  0.0167  0.0169  0.0081
29615OCT     C159229   9.948   2.718  21.877 -0.1714 -0.1029  0.2258
29615OCT     C259230  10.394   2.689  21.851 -0.2993 -0.2345  0.1275
29616OCT     C159231   3.115   7.142  11.183 -0.3245 -0.1057  0.0444
29616OCT     C259232   3.447   6.877  11.034 -0.1332 -0.4151  0.7590
29617OCT     C159233   5.418  11.713   4.846  0.3265 -0.1093 -0.0083
29617OCT     C259234   5.038  11.742   5.083  0.0195 -0.0378 -0.1857
29618OCT     C159235   1.560  22.383  22.366 -0.0785 -0.0463 -0.0446
29618OCT     C259236   1.535  21.891  22.371  0.0142 -0.4369  0.4616
29619OCT     C159237  22.546  12.771  12.732  0.1345  0.0720 -0.0873
29619OCT     C259238  22.839  12.765  12.372 -0.2660 -0.3660  0.0520
29620OCT     C159239  16.473  15.705  19.686  0.0400  0.1131 -0.2761
29620OCT     C259240  16.840  15.909  20.002  0.0357 -0.1641  0.3076
29621OCT     C159241  12.173  21.775  13.125  0.4336 -0.2370 -0.2762
29621OCT     C259242  12.082  21.737  12.694 -0.3088  0.1086  0.2620
29622OCT     C159243  19.050  14.029   7.733 -0.4281  0.1358 -0.2058
29622OCT     C259244  18.778  13.844   7.491  0.3025  0.0715 -0.0146
29623OCT     C159245   2.346   3.947  21.281  0.0304 -0.0244  0.1111
29623OCT     C259246   2.455   3.812  21.740  0.0564 -0.2724 -0.0863
29624OCT     C159247   3.615  13.282  23.666  0.2309 -0.0200  0.1334
29624OCT     C259248   3.452  13.680   0.189 -0.2739  0.0435 -0.3100
29625OCT     C159249   9.273  11.931   7.231  0.0927 -0.0718  0.1118
29625OCT     C259250   9.037  11.759   6.886  0.2851  0.0587 -0.3122
29626OCT     C159251  19.393  21.897  17.469 -0.0535  0.2633  0.1766
29626OCT     C259252  19.157  22.182  17.773 -0.1157  0.2455  0.1494
29627OCT     C159253   2.300  10.779   6.717 -0.4289 -0.1779 -0.0038
29627OCT     C259254   2.636  10.479   6.642 -0.1109 -0.2712 -0.0726
29628OCT     C159255  17.319  23.679  11.948 -0.2576  0.1639 -0.4035
29628OCT     C259256  16.956  23.429  12.090  0.0463  0.0494  0.3437
29629OCT     C159257  10.521  14.259   0.630  0.1048  0.2027 -0.2435
29629OCT     C259258  10.269  14.614   0.536  0.0941 -0.1728  0.0778
29630OCT     C159259   0.407  10.987   1.766 -0.0345  0.0881 -0.0110
29630OCT     C259260   0.092  11.207   2.037  0.0779  0.3165 -0.2869
29631OCT     C159261  19.058  16.544   2.662 -0.2934  0.2316  0.1392
29631OCT     C259262  19.505  16.409   2.652 -0.1036  0.0031  0.0175
29632OCT     C159263  11.631  16.664  19.727  0.1352  0.0318 -0.1724
29632OCT     C259264  12.088  16.428  19.727 -0.1915  0.1631  0.0569
29633OCT     C159265   6.644   7.690  18.526  0.0222 -0.1015 -0.2185
29633OCT     C259266   7.135   7.685  18.500  0.0171 -0.2277  0.0186
29634OCT     C159267   4.614  13.167  20.866 -0.0256 -0.0587  0.2514
29634OCT     C259268   4.949  13.342  21.144 -0.3607 -0.0733  0.2499
29635OCT     C159269  21.029  17.660  19.727 -0.0481  0.0366 -0.2311
29635OCT     C259270  20.654  17.954  19.833 -0.2800  0.3396 -0.1448
29636OCT     C159271   4.519  23.183   6.336  0.0538 -0.0308  0.1031
29636OCT     C259272   4.903  23.088   6.564  0.0025 -0.1664  0.2668
29637OCT     C159273   0.473  18.431  13.484  0.0781 -0.2770  0.3207
29637OCT     C259274   0.036  18.192  13.474 -0.4107  0.2090  0.0561
29638OCT     C159275   6.287   6.451   3.700 -0.0726 -0.1268  0.2543
29638OCT     C259276   6.220   6.857   3.454 -0.0097 -0.1227 -0.1843
29639OCT     C159277  19.230  19.623   5.320 -0.2097  0.1891  0.3256
29639OCT     C259278  19.046  19.979   5.173  0.1104 -0.3422  0.0503
29640OCT     C159279  17.031  12.034  13.928 -0.2184  0.1382 -0.2536
29640OCT     C259280  17.156  11.626  14.036  0.0543  0.1338  0.3258
29641OCT     C159281  10.310  12.219   2.386 -0.0401 -0.0640 -0.0090
29641OCT     C259282  10.749  12.055   2.336  0.0580 -0.2120 -0.1409
29642OCT     C159283   3.329   6.552  16.494 -0.2399 -0.0952 -0.1432
29642OCT     C259284   3.022   6.292  16.235 -0.1216 -0.0411  0.0214
29643OCT     C159285   9.106  10.867  16.449  0.0594 -0.0037  0.1413
29643OCT     C259286   9.539  10.766  16.583  0.1025 -0.0154 -0.1809
29644OCT     C159287  23.701   8.163   0.850 -0.0046 -0.0166  0.1748
29644OCT     C259288   0.343   8.420   1.045  0.3458  0.1469  0.1372
29645OCT     C159289  20.211  12.883  12.526 -0.2091 -0.2933 -0.1021
29645OCT     C259290  19.766  12.807  12.397 -0.3368  0.0413 -0.0065
29646OCT     C159291  18.589   1.059   3.291 -0.1994  0.4166 -0.2309
29646OCT     C259292  18.774   0.791   2.954 -0.2088  0.3702 -0.0438
29647OCT     C159293  10.054  13.251  17.131 -0.1812  0.1617 -0.1295
29647OCT     C259294  10.018  13.704  17.150 -0.2660 -0.0086 -0.0765
29648OCT     C159295  19.124  12.508   2.680 -0.3753  0.0864  0.0772
29648OCT     C259296  18.999  12.931   2.593  0.0303 -0.0286 -0.1055
29649OCT     C159297   0.312   3.035  15.760 -0.3066  0.2502 -0.0009
29649OCT     C259298   0.710   3.088  16.101 -0.2255 -0.0316 -0.2099
29650OCT     C159299   4.966   6.314   8.685 -0.1929  0.0430 -0.2686
29650OCT     C259300   4.594   6.187   8.891  0.0311  0.0247  0.1486
29651OCT     C159301  11.744  22.526   5.945  0.0157  0.2914 -0.0000
29651OCT     C259302  11.479  22.567   5.554 -0.3719  0.0651  0.1235
29652OCT     C159303   8.809  13.598   0.087  0.0786  0.3437  0.1931
29652OCT     C259304   8.934  14.004   0.329  0.3495 -0.1211  0.0441
29653OCT     C159305  18.324  23.338  19.834 -0.0060  0.1218 -0.1370
29653OCT     C259306  18.558  23.231  20.206  0.1755 -0.2614 -0.1287
29654OCT     C159307   9.150  20.916   9.445  0.0630 -0.0231 -0.0185
29654OCT     C259308   8.935  21.102   9.843  0.0087 -0.1221  0.0800
29655OCT     C159309  13.953   9.597   2.341 -0.2558  0.1179 -0.0705
29655OCT     C259310  14.333   9.846   2.234  0.1091 -0.3830  0.3035
29656OCT     C159311   8.787  11.280  14.552  0.1275  0.0249  0.1298
29656OCT     C259312   8.949  11.002  14.223 -0.3157  0.1294  0.0918
29657OCT     C159313  10.638   7.189   2.263 -0.2965  0.0030 -0.4159
29657OCT     C259314  10.843   6.793   2.168 -0.0560  0.0509  0.0764
29658OCT     C159315   3.482   7.469  18.481 -0.1007  0.2239  0.0122
29658OCT     C259316   3.186   7.735  18.182  0.1534  0.3605  0.2297
29659OCT     C159317  21.242   3.594   4.661 -0.0647  0.2524 -0.2802
29659OCT     C259318  21.206   3.409   4.268  0.3029 -0.0038  0.0531
29660OCT     C159319   8.323   8.063   6.732  0.0409 -0.0560  0.0512
29660OCT     C259320   8.429   8.467   6.468  0.1421  0.1104  0.2896
29661OCT     C159321   7.587   4.995  14.391  0.5842  0.2118 -0.0745
29661OCT     C259322   7.956   4.753  14.638 -0.2132 -0.2768  0.0317
29662OCT     C159323  15.104  21.007  16.463  0.1320 -0.3123 -0.3299
29662OCT     C259324  15.260  20.565  16.355 -0.2942 -0.2246  0.0265
29663OCT     C159325  21.459  19.983  17.736 -0.0291  0.2054 -0.1180
29663OCT     C259326  21.787  19.923  17.412  0.1452  0.1284 -0.0794
29664OCT     C159327  20.092  17.753  11.651  0.1275  0.0273  0.0165
29664OCT     C259328  20.207  18.185  11.857  0.2539 -0.1641  0.0265
29665OCT     C159329  17.494  23.327   3.479  0.3207  0.2725  0.2157
29665OCT     C259330  17.639  23.596   3.814  0.2703  0.1088 -0.1164
29666OCT     C159331   0.621   7.107  14.365  0.1884  0.0557 -0.0452
29666OCT     C259332   0.525   7.353  14.009 -0.0906  0.2272 -0.0195
29667OCT     C159333  15.997  16.693  13.188  0.1705 -0.2156  0.0267
29667OCT     C259334  15.568  16.888  13.360 -0.1126  0.5182 -0.3301
29668OCT     C159335  22.457  12.804   7.938  0.1929  0.0716  0.5361
29668OCT     C259336  22.567  12.379   7.736  0.2633 -0.1700  0.3358
29669OCT     C159337   2.157   3.249  15.187  0.0625  0.4641 -0.3266
29669OCT     C259338   2.477   3.495  15.376  0.0952  0.4906 -0.2226
29670OCT     C159339  21.483  18.398  16.781  0.3387  0.1329  0.2249
29670OCT     C259340  21.048  18.428  16.592 -0.1691  0.0536 -0.1913
29671OCT     C159341   2.914   4.893  22.110 -0.0567  0.1502 -0.0343
29671OCT     C259342   2.707   4.746  21.681 -0.1693 -0.2041  0.1599
29672OCT     C159343  21.501  22.672  13.664 -0.0894 -0.0633  0.1642
29672OCT     C259344  21.598  22.567  14.084  0.1089  0.1443 -0.1962
29673OCT     C159345  16.844  10.461   4.943 -0.1805 -0.4275  0.1757
29673OCT     C259346  17.254  10.420   5.138 -0.0285 -0.0141  0.3529
29674OCT     C159347  10.688  14.006   2.774 -0.1054 -0.0352  0.1140
29674OCT     C259348  10.822  13.632   3.064 -0.2424 -0.1092  0.1702
29675OCT     C159349  18.302   1.632   8.113 -0.4679 -0.3610  0.0297
29675OCT     C259350  18.430   1.455   7.697 -0.1782 -0.1598 -0.0492
29676OCT     C159351   7.667   8.323   0.419 -0.0386 -0.1444 -0.0448
29676OCT     C259352   7.672   8.786   0.224 -0.0095 -0.4287  0.1834
29677OCT     C159353   0.786  21.150   6.741  0.1860 -0.3364  0.1640
29677OCT     C259354   0.618  21.282   7.134 -0.0795 -0.0493 -0.2371
29678OCT     C159355  10.586   4.858  15.759  0.1943 -0.0173  0.2146
29678OCT     C259356  10.690   5.057  15.347 -0.2337  0.0870 -0.1566
29679OCT     C159357   2.159   9.008  16.875 -0.2776 -0.0742  0.1524
29679OCT     C259358   2.520   8.839  17.181 -0.2068 -0.0961  0.3313
29680OCT     C159359  22.613  14.445  15.317  0.0541  0.2813 -0.2310
29680OCT     C259360  22.937  14.754  15.284  0.0736  0.1630  0.2046
29681OCT     C159361  10.377  22.438  17.616  0.0865 -0.2899  0.0660
29681OCT     C259362  10.297  22.125  18.031 -0.0414 -0.2861 -0.0943
29682OCT     C159363  19.782  11.252  16.143  0.0441 -0.0006  0.0236
29682OCT     C259364  20.237  11.356  16.184 -0.3480 -0.2194  0.2112
29683OCT     C159365   0.997   5.258  10.654  0.0630  0.0971 -0.0438
29683OCT     C259366   1.349   5.399  10.893 -0.3719  0.0602 -0.1204
29684OCT     C159367  13.793   2.656   4.554  0.0199  0.4315 -0.3925
29684OCT     C259368  14.160   2.853   4.776 -0.0015  0.1318 -0.0259
29685OCT     C159369  12.561   3.854   7.647 -0.0016 -0.4320 -0.1119
29685OCT     C259370  12.261   4.137   7.985 -0.0544 -0.0166 -0.0173
29686OCT     C159371   4.312   4.888  14.077 -0.0685  0.0463 -0.0927
29686OCT     C259372   4.730   5.034  14.013  0.0957  0.0868 -0.0192
29687OCT     C159373  13.321  16.600   2.654 -0.0435 -0.0328  0.0375
29687OCT     C259374  13.224  16.351   2.318  0.1522 -0.1151 -0.2354
29688OCT     C159375   2.157  14.674   7.696 -0.3952  0.2998  0.0786
29688OCT     C259376   2.334  14.893   8.038 -0.2635  0.0814 -0.1049
29689OCT     C159377   0.476   4.789  19.964 -0.1728 -0.1777  0.2337
29689OCT     C259378   0.576   4.834  19.518 -0.1587 -0.0212 -0.2871
29690OCT     C159379  15.047  19.406  16.539  0.2132  0.0290 -0.2915
29690OCT     C259380  14.938  19.046  16.766  0.3048  0.0054  0.1496
29691OCT     C159381  15.801   5.492  13.567  0.1396 -0.0136  0.1315
29691OCT     C259382  15.909   5.543  13.112  0.3602 -0.1307 -0.1838
29692OCT     C159383   8.863   0.359  10.524  0.0818 -0.0852 -0.3044
29692OCT     C259384   9.260   0.109  10.395  0.1629  0.0035 -0.1038
29693OCT     C159385   8.259   7.830  16.397 -0.0318 -0.0389 -0.1549
29693OCT     C259386   8.107   7.891  16.003  0.3979 -0.3488  0.1993
29694OCT     C159387  10.475  17.346  11.276  0.4764  0.3810  0.2193
29694OCT     C259388  10.151  17.003  11.241 -0.1519  0.2981  0.2182
29695OCT     C159389   1.631  22.009   8.944 -0.1890  0.2868 -0.1924
29695OCT     C259390   1.940  21.813   9.283 -0.4293  0.1155  0.0764
29696OCT     C159391   7.727  10.013   7.702  0.2045 -0.2214  0.0652
29696OCT     C259392   8.015  10.286   7.921 -0.0060 -0.0510  0.0951
29697OCT     C159393  17.460  23.538   6.024  0.1241  0.1025  0.0443
29697OCT     C259394  17.753   0.163   5.967 -0.1172  0.0786  0.0184
29698OCT     C159395   6.666   8.418   8.756 -0.0662 -0.2821  0.0091
29698OCT     C259396   6.268   8.481   9.025 -0.1555  0.0211  0.1913
29699OCT     C159397  10.241   2.763  13.584 -0.0389  0.0612 -0.1248
29699OCT     C259398  10.106   3.146  13.717 -0.0444 -0.1913  0.0576
29700OCT     C159399   5.601   9.745  13.416 -0.1492  0.1121 -0.3139
29700OCT     C259400   6.088   9.799  13.475  0.3706  0.0255 -0.0917
29701OCT     C159401   5.522   0.426  18.811  0.1185  0.2880 -0.2062
29701OCT     C259402   5.491   0.736  18.449 -0.0913  0.2568  0.1634
29702OCT     C159403  20.037   7.407   2.427 -0.3592  0.1044 -0.0038
29702OCT     C259404  20.173   7.861   2.378  0.4897  0.5102  0.1473
29703OCT     C159405  11.677  16.232   5.406  0.0383 -0.1337  0.0194
29703OCT     C259406  11.490  15.994   5.801  0.3940  0.4147 -0.3095
29704OCT     C159407   4.988  18.263  14.788  0.0964  0.1059 -0.0925
29704OCT     C259408   4.775  17.939  15.029  0.1916 -0.3704 -0.2851
29705OCT     C159409   9.578  19.678  11.493 -0.0881  0.1781 -0.1906
29705OCT     C259410   9.777  19.984  11.260 -0.3925  0.2077 -0.0149
29706OCT     C159411   4.421   9.077   0.650 -0.0929 -0.1732 -0.1840
29706OCT     C259412   4.197   9.390   0.427  0.0585  0.0164  0.3299
29707OCT     C159413  10.736   1.729   7.524 -0.1576  0.1670  0.5813
29707OCT     C259414  11.099   2.047   7.477  0.0215 -0.0418  0.0223
29708OCT     C159415  10.257  19.083  23.426 -0.0762  0.0325 -0.2037
29708OCT     C259416  10.098  19.523  23.349  0.1072 -0.3612 -0.0740
29709OCT     C159417  23.443  13.274   2.624 -0.0058 -0.2452  0.4792
29709OCT     C259418  23.729  13.231   3.009 -0.0179  0.0015  0.3220
29710OCT     C159419   7.011   7.532  18.927 -0.1564 -0.2017  0.2152
29710OCT     C259420   7.058   7.373  19.422 -0.0174 -0.0228  0.5037
29711OCT     C159421   7.350  19.685  15.270  0.0139  0.3123 -0.1249
29711OCT     C259422   7.687  20.020  15.298  0.3721  0.3867  0.3700
29712OCT     C159423  18.111  13.625  12.072 -0.0408  0.2103 -0.0933
29712OCT     C259424  17.804  13.815  11.836 -0.2554 -0.1275  0.0009
29713OCT     C159425   7.913  20.378   0.320  0.2980 -0.1745  0.3110
29713OCT     C259426   8.214  20.064   0.411  0.1324 -0.0798  0.1903
29714OCT     C159427   9.336  20.940  13.457  0.1224 -0.0266  0.0716
29714OCT     C259428   8.810  20.975  13.476 -0.1484 -0.1035  0.0452
29715OCT     C159429   7.944   5.404  11.860  0.0379 -0.0511 -0.2972
29715OCT     C259430   8.119   5.391  11.440 -0.1988  0.2276  0.2904
29716OCT     C159431   2.260   0.387  21.008 -0.0729 -0.2326 -0.0274
29716OCT     C259432   2.246   0.760  21.323 -0.1303  0.3259  0.1164
29717OCT     C159433  22.365  13.719  11.118  0.5340 -0.0026  0.4652
29717OCT     C259434  22.211  13.959  10.764 -0.1721 -0.1199 -0.0029
29718OCT     C159435   3.114  11.077   6.891 -0.3053 -0.0753  0.0279
29718OCT     C259436   3.554  11.313   6.727  0.2547 -0.1408  0.0687
29719OCT     C159437  11.029   1.285  10.561 -0.0022 -0.0771 -0.1732
29719OCT     C259438  10.857   1.699  10.704  0.0458  0.0353  0.3107
29720OCT     C159439  15.740  15.527   4.703  0.2713 -0.1585  0.1362
29720OCT     C259440  15.358  15.488   4.969 -0.1697 -0.0084  0.2365
29721OCT     C159441  14.890  23.557  11.339 -0.2430 -0.0257 -0.1424
29721OCT     C259442  14.926   0.109  11.705 -0.2410 -0.5481  0.2995
29722OCT     C159443   2.458  11.352   3.184 -0.1356 -0.0520  0.2003
29722OCT     C259444   2.362  11.120   2.788 -0.1383 -0.7795  0.1375
29723OCT     C159445  11.769   3.335   4.998  0.1420  0.1321 -0.2913
29723OCT     C259446  12.189   3.494   5.129  0.0622 -0.0713 -0.0708
29724OCT     C159447   6.263   5.513  13.996 -0.3938 -0.0797  0.0728
29724OCT     C259448   6.593   5.153  13.921  0.3323  0.1244  0.0984
29725OCT     C159449  21.291  12.790   3.659  0.2508  0.0116  0.1463
29725OCT     C259450  21.039  13.200   3.567  0.0038  0.2084  0.0588
29726OCT     C159451  19.366   1.508  12.146 -0.4518 -0.2469  0.2875
29726OCT     C259452  19.069   1.203  12.283 -0.1071  0.1324 -0.0729
29727OCT     C159453  18.098   6.012  13.613 -0.0658  0.0513  0.0506
29727OCT     C259454  17.861   5.649  13.773 -0.0250  0.2725  0.0305
29728OCT     C159455  12.767   9.297  14.934  0.0436  0.1526  0.2730
29728OCT     C259456  12.603   9.087  14.494  0.3602 -0.0897  0.1315
29729OCT     C159457  21.240  12.655  20.139  0.0367  0.0540  0.2057
29729OCT     C259458  20.800  12.594  20.070 -0.1152 -0.0194  0.1357
29730OCT     C159459   7.217  20.076  15.005 -0.0114 -0.3002 -0.1830
29730OCT     C259460   6.909  19.979  15.346  0.4521  0.1594  0.0872
29731OCT     C159461  22.642   6.218   9.605 -0.2273  0.5101 -0.3224
29731OCT     C259462  22.629   6.093  10.050  0.0363  0.2716 -0.0644
29732OCT     C159463   0.199   2.079   3.903 -0.1180 -0.2787 -0.2201
29732OCT     C259464  23.702   2.373   4.146 -0.3144  0.0948 -0.3545
29733OCT     C159465   3.308  20.802  23.010 -0.1671  0.3633 -0.0006
29733OCT     C259466   3.279  21.294  23.127  0.0438  0.0642  0.1910
29734OCT     C159467  22.652  22.081  17.036 -0.2642 -0.0183  0.1329
29734OCT     C259468  22.746  22.123  16.553  0.1427 -0.3868  0.2899
29735OCT     C159469  17.162  11.481  19.820  0.0874 -0.0647  0.3722
29735OCT     C259470  17.302  11.364  19.376  0.0111 -0.2742 -0.0269
29736OCT     C159471   3.244  15.493  23.439  0.1475 -0.1370  0.1251
29736OCT     C259472   2.831  15.667  23.250  0.3026 -0.0799  0.0070
29737OCT     C159473   2.195  12.547  19.138  0.2125  0.0314 -0.2114
29737OCT     C259474   2.071  12.463  18.694  0.0318  0.2015 -0.0987
29738OCT     C159475  18.261  18.752   4.529 -0.1416  0.0181  0.0350
29738OCT     C259476  18.124  18.996   4.835 -0.0758 -0.2133 -0.1507
29739OCT     C159477   1.160  19.605  17.443 -0.0921  0.2745  0.0847
29739OCT     C259478   1.078  19.341  17.843  0.1868 -0.2459 -0.0144
29740OCT     C159479   1.456  14.210  14.793 -0.3110  0.0530 -0.4886
29740OCT     C259480   1.151  14.168  15.167  0.0724  0.4062  0.2878
29741OCT     C159481  21.882  11.353   6.216 -0.0598  0.1437 -0.1926
29741OCT     C259482  21.982  11.053   6.555  0.2470  0.1844  0.1546
29742OCT     C159483  13.667   0.924   1.352 -0.0017  0.1064  0.2955
29742OCT     C259484  13.596   0.453   1.365  0.0509 -0.1159  0.1344
29743OCT     C159485  20.653   4.313   4.384  0.2699 -0.0257 -0.0289
29743OCT     C259486  20.837   4.727   4.514 -0.3673 -0.1881  0.2442
29744OCT     C159487  16.520   9.322  15.082  0.2867 -0.3464  0.1822
29744OCT     C259488  16.140   9.345  14.832  0.1404 -0.3771  0.1475
29745OCT     C159489   5.019  15.271  21.620 -0.0233 -0.2199  0.0111
29745OCT     C259490   4.931  15.120  21.184 -0.0886 -0.2149 -0.2796
29746OCT     C159491   4.874  12.677   9.270  0.1763 -0.3073 -0.2578
29746OCT     C259492   4.407  12.576   9.292  0.0423  0.2982 -0.0990
29747OCT     C159493  18.121  20.147   5.457 -0.1266 -0.4634  0.1812
29747OCT     C259494  18.361  20.292   5.810 -0.0694 -0.2408 -0.0308
29748OCT     C159495  12.923  16.598   8.113 -0.3215 -0.2934 -0.1501
29748OCT     C259496  13.228  16.670   8.524  0.0641  0.0109  0.0818
29749OCT     C159497  12.827  15.991   4.797 -0.3029  0.0223  0.0972
29749OCT     C259498  12.761  15.830   4.314  0.1870  0.0495  0.0867
29750OCT     C159499   5.990  15.109  21.576 -0.0954 -0.0663  0.0636
29750OCT     C259500   6.307  15.454  21.672 -0.2756  0.0108 -0.1572
29751OCT     C159501  21.339   2.324  22.895 -0.0248 -0.0110  0.0840
29751OCT     C259502  21.663   2.111  23.160 -0.3267  0.5568  0.2005
29752OCT     C159503  15.438  18.261   1.433 -0.0756  0.1308 -0.0560
29752OCT     C259504  15.221  18.441   1.060 -0.2648 -0.2168  0.0439
29753OCT     C159505   8.397  12.650   7.623 -0.3300  0.2452  0.0282
29753OCT     C259506   8.569  12.842   7.292  0.2066 -0.2025 -0.0224
29754OCT     C159507  14.001   0.385  10.185 -0.0313  0.0609  0.1164
29754OCT     C259508  13.896   0.133  10.504 -0.0087  0.1915  0.1011
29755OCT     C159509   2.786   0.519  20.940  0.2022  0.1114  0.3813
29755OCT     C259510   2.531   0.897  20.784  0.0246  0.1392  0.1313
29756OCT     C159511  14.923  17.546  14.947 -0.0035 -0.5132 -0.0702
29756OCT     C259512  15.184  17.227  14.736 -0.4679 -0.1065  0.0906
29757OCT     C159513  10.262  21.790  10.480  0.2975  0.1319  0.3284
29757OCT     C259514  10.727  21.754  10.421  0.3219 -0.1309 -0.1180
29758OCT     C159515  10.912  16.091  14.520 -0.1278  0.2373 -0.0369
29758OCT     C259516  10.795  16.425  14.812  0.0535  0.0325 -0.2482
29759OCT     C159517   9.189  20.752  20.454  0.1488  0.2928  0.1224
29759OCT     C259518   9.520  20.373  20.388 -0.0113 -0.2183 -0.0519
29760OCT     C159519   5.079   9.338  16.253 -0.2701 -0.0925  0.0568
29760OCT     C259520   4.630   9.394  16.172 -0.0857  0.0577 -0.1977
29761OCT     C159521  16.798  19.325   5.706 -0.1392  0.0557  0.1567
29761OCT     C259522  16.874  19.733   5.547  0.1054 -0.1704 -0.1959
29762OCT     C159523   1.333  10.800  18.566  0.1543  0.1185 -0.2488
29762OCT     C259524   0.969  10.722  18.289 -0.0777 -0.0757 -0.0462
29763OCT     C159525  19.375   9.664  18.022 -0.2292  0.0994  0.4030
29763OCT     C259526  19.796   9.830  18.051  0.2485  0.0109  0.0388
29764OCT     C159527  22.627  20.561  23.164  0.0368  0.3199  0.1813
29764OCT     C259528  22.616  20.797  22.745 -0.0914  0.1503 -0.1535
29765OCT     C159529   4.982   7.817   5.777  0.1535  0.2357  0.3470
29765OCT     C259530   4.588   7.953   5.986  0.3178 -0.0866  0.0173
29766OCT     C159531  11.743  10.640   5.899 -0.0102 -0.1480  0.0964
29766OCT     C259532  12.189  10.411   5.826 -0.1949  0.3309 -0.0636
29767OCT     C159533   9.756  16.697  19.711  0.0440  0.0601  0.5615
29767OCT     C259534  10.199  16.675  19.547 -0.1219 -0.1292  0.2166
29768OCT     C159535  18.118  17.016  11.408 -0.0194 -0.4654  0.3278
29768OCT     C259536  17.742  17.098  11.031 -0.2284 -0.0023  0.1109
29769OCT     C159537  13.813  18.044  21.169  0.0430 -0.3231  0.1228
29769OCT     C259538  14.206  18.135  21.293  0.3028  0.0096  0.2671
29770OCT     C159539  18.087  20.530  10.827 -0.4754 -0.0737  0.0486
29770OCT     C259540  18.517  20.641  10.990  0.0537 -0.1576  0.0761
29771OCT     C159541   0.824   4.318   6.320 -0.0886 -0.2258  0.0126
29771OCT     C259542   1.089   4.669   6.129 -0.3604  0.1145 -0.2002
29772OCT     C159543  12.366   2.893   0.623 -0.0017 -0.1690 -0.2577
29772OCT     C259544  12.307   3.274   0.951 -0.3126 -0.1168 -0.3568
29773OCT     C159545   9.343  22.337   7.374  0.0123 -0.1844 -0.0495
29773OCT     C259546   9.165  22.014   7.080  0.3343 -0.1524 -0.1031
29774OCT     C159547  21.726  16.732   6.943  0.3086 -0.1107 -0.0147
29774OCT     C259548  21.773  16.470   6.517 -0.1069  0.0492 -0.0757
29775OCT     C159549  23.689  19.608  10.570 -0.4911  0.2649  0.0855
29775OCT     C259550  23.335  19.353  10.449  0.3020  0.1033  0.2058
29776OCT     C159551  23.101  19.822  18.579 -0.2417  0.0646  0.1245
29776OCT     C259552  23.302  19.468  18.567  0.0224 -0.0470  0.1653
29777OCT     C159553  20.531   0.811  14.025 -0.0871 -0.0805 -0.0922
29777OCT     C259554  20.427   0.497  13.685 -0.0457  0.1364  0.2369
29778OCT     C159555  16.940   3.670  18.352  0.0187  0.0627  0.3407
29778OCT     C259556  17.337   3.975  18.315 -0.0324 -0.0533  0.3336
29779OCT     C159557  11.409  10.833  15.323 -0.1401  0.0312 -0.1913
29779OCT     C259558  11.724  10.977  14.995 -0.1135 -0.0527 -0.2538
29780OCT     C159559  18.046   1.008   4.884 -0.1074 -0.0204  0.2569
29780OCT     C259560  18.224   1.247   4.539 -0.1166  0.0175  0.1842
29781OCT     C159561  14.811   4.904   7.814 -0.0965  0.0122  0.1861
29781OCT     C259562  15.242   5.185   7.836  0.1953  0.2936 -0.3055
29782OCT     C159563  15.522   8.270   0.562  0.0823  0.2970  0.2747
29782OCT     C259564  15.633   7.793   0.569  0.0293 -0.1475 -0.1593
29783OCT     C159565  22.508  13.817   8.805 -0.0071 -0.0960 -0.1165
29783OCT     C259566  22.179  13.489   8.711  0.2606  0.0157  0.0876
29784OCT     C159567  18.240  13.916   8.992 -0.1169  0.1730 -0.1287
29784OCT     C259568  18.695  13.902   8.942  0.0021  0.1207 -0.0538
29785OCT     C159569  21.620  13.352  11.884  0.0151 -0.3375  0.3540
29785OCT     C259570  21.696  13.175  11.485 -0.0605  0.3813  0.2337
29786OCT     C159571  23.435  12.052  13.044  0.5187  0.0810 -0.5214
29786OCT     C259572   0.164  12.071  12.985  0.1388  0.2769 -0.0753
29787OCT     C159573  16.436  10.241  14.444  0.1794  0.1234  0.5102
29787OCT     C259574  16.536  10.636  14.142 -0.1294  0.1642  0.2251
29788OCT     C159575   9.930  16.040  20.531  0.2862  0.0847 -0.1244
29788OCT     C259576   9.534  16.075  20.672 -0.2098 -0.0493 -0.1233
29789OCT     C159577   3.528  17.820   2.430 -0.5054 -0.1926 -0.0279
29789OCT     C259578   3.551  18.173   2.642 -0.0077 -0.1321  0.0526
29790OCT     C159579   4.698  10.744   0.019 -0.0295 -0.4056  0.0549
29790OCT     C259580   4.570  10.749  23.306  0.0478  0.1090  0.0394
29791OCT     C159581   5.672  20.678  10.339  0.0227  0.0965  0.1666
29791OCT     C259582   5.870  21.084  10.336  0.0956 -0.0580 -0.4550
29792OCT     C159583  18.603  13.155   4.663 -0.4218 -0.2153  0.0919
29792OCT     C259584  18.878  12.741   4.642  0.1269 -0.0511  0.0467
29793OCT     C159585   5.492   5.023  19.521 -0.0459  0.0631  0.0890
29793OCT     C259586   5.893   4.809  19.460  0.0474  0.1424 -0.1853
29794OCT     C159587   6.167   9.454  17.356 -0.0268  0.0025 -0.2221
29794OCT     C259588   6.593   9.504  17.562  0.0158  0.0306 -0.0349
29795OCT     C159589   2.265  22.654  10.264  0.4161 -0.1289  0.1035
29795OCT     C259590   2.627  22.904  10.475  0.1786  0.0267  0.1869
29796OCT     C159591   5.262   9.801  22.323  0.0321 -0.2487  0.4804
29796OCT     C259592   5.538   9.413  22.216 -0.7043  0.1850  0.1534
29797OCT     C159593   0.298  18.766   1.920 -0.1499 -0.1023 -0.2969
29797OCT     C259594   0.256  18.712   2.381  0.2806  0.5407 -0.0817
29798OCT     C159595  11.843   0.735   8.651 -0.1790 -0.0247 -0.2974
29798OCT     C259596  12.287   0.671   8.432 -0.1416 -0.3636 -0.3532
29799OCT     C159597  21.168  10.040  12.849 -0.0557  0.0279  0.1205
29799OCT     C259598  20.964   9.796  12.483  0.0582  0.2024  0.0907
29800OCT     C159599   0.622   9.589   1.002  0.0002 -0.4510  0.0696
29800OCT     C259600   0.793   9.197   0.818 -0.0480 -0.0424 -0.1970
29801OCT     C159601   0.577   3.547  22.144  0.2473 -0.1235 -0.1027
29801OCT     C259602   0.523   3.193  22.475 -0.1454 -0.3307  0.2029
29802OCT     C159603  20.164   1.599  14.515 -0.0137  0.2539 -0.1406
29802OCT     C259604  20.454   1.823  14.246 -0.0643  0.0343 -0.1551
29803OCT     C159605   2.816  10.623   8.040 -0.2136  0.0250  0.0697
29803OCT     C259606   2.749  11.005   8.223 -0.2165 -0.1395  0.3229
29804OCT     C159607   1.932  19.462  16.471 -0.2242  0.1322  0.3077
29804OCT     C259608   2.258  19.570  16.773 -0.0557  0.2644  0.0972
29805OCT     C159609  20.820   5.126  19.184  0.0532  0.1567 -0.0690
29805OCT     C259610  21.131   4.955  18.921  0.2894  0.3113  0.1106
29806OCT     C159611   1.653  13.664  21.810  0.3723  0.2810 -0.2795
29806OCT     C259612   1.270  13.763  21.545  0.1392  0.1548 -0.1163
29807OCT     C159613  15.802   2.928   2.393  0.0930 -0.3105  0.1900
29807OCT     C259614  15.377   3.085   2.198  0.5992 -0.0252 -0.2550
29808OCT     C159615  15.127  20.716  14.935 -0.3009 -0.1891  0.1941
29808OCT     C259616  15.495  20.984  14.771  0.4112  0.2091  0.0635
29809OCT     C159617   9.267   6.208   6.394 -0.3503 -0.1388 -0.1192
29809OCT     C259618   9.613   5.914   6.555  0.3167 -0.1357  0.3930
29810OCT     C159619  10.694  12.079   6.796  0.0229 -0.2665  0.0031
29810OCT     C259620  10.318  12.120   7.152  0.2357 -0.2203 -0.0662
29811OCT     C159621   6.707   8.809  20.141 -0.1060 -0.1885 -0.3265
29811OCT     C259622   6.964   9.102  20.410 -0.1099  0.0528 -0.0985
29812OCT     C159623   3.422  13.256  11.837 -0.1049 -0.1287  0.1925
29812OCT     C259624   3.634  13.649  11.968 -0.4123 -0.1518  0.2742
29813OCT     C159625  22.937  10.955  20.785 -0.4273 -0.1865 -0.0241
29813OCT     C259626  23.320  10.783  20.542 -0.1104  0.2676 -0.1117
29814OCT     C159627   1.189   1.063   4.840  0.2765  0.3487  0.2005
29814OCT     C259628   0.954   1.438   4.759  0.1192 -0.4215  0.2259
29815OCT     C159629   4.288   0.252   5.933 -0.1897 -0.1643 -0.4340
29815OCT     C259630   4.576   0.101   5.614 -0.2260 -0.1325  0.0678
29816OCT     C159631  18.975   7.685   8.878  0.0934  0.0306  0.2785
29816OCT     C259632  19.067   7.460   9.263 -0.2317  0.1318  0.1214
29817OCT     C159633   2.569  15.721  17.250  0.1019  0.0932  0.3644
29817OCT     C259634   2.515  15.381  17.560 -0.1985  0.0864 -0.0026
29818OCT     C159635  21.795  19.228   1.902  0.0262 -0.0783 -0.4077
29818OCT     C259636  21.506  18.866   2.073 -0.2056 -0.0620  0.1358
29819OCT     C159637   9.888   3.472   0.869 -0.0396  0.0168  0.1141
29819OCT     C259638   9.940   3.148   1.205  0.1502 -0.2524 -0.0965
29820OCT     C159639  17.590   9.819  16.136 -0.5696 -0.0908  0.0033
29820OCT     C259640  17.258   9.539  16.050  0.2000 -0.3381 -0.0794
29821OCT     C159641   2.846   6.947   7.229 -0.0144  0.1110 -0.1572
29821OCT     C259642   2.489   6.763   7.077  0.3062 -0.1166  0.1054
29822OCT     C159643  14.210   8.921   0.289 -0.2703 -0.3010 -0.1018
29822OCT     C259644  14.554   9.012  23.726 -0.0672  0.4213  0.1588
29823OCT     C159645   7.032  11.466  16.321  0.0449  0.1267  0.2639
29823OCT     C259646   6.589  11.557  16.186  0.1706  0.3167 -0.2251
29824OCT     C159647   4.126  13.478   4.239 -0.0810 -0.0842  0.5283
29824OCT     C259648   4.093  13.091   4.468  0.2450 -0.1349 -0.4319
29825OCT     C159649  16.020  17.459   9.554 -0.0532 -0.4662 -0.2002
29825OCT     C259650  16.359  17.305   9.284  0.1547  0.1237  0.1264
29826OCT     C159651   5.645  13.329  12.963 -0.0949  0.3581  0.1050
29826OCT     C259652   6.117  13.343  12.914  0.0083 -0.1094  0.1238
29827OCT     C159653   5.239  23.221   0.365 -0.1776  0.0810  0.3473
29827OCT     C259654   5.701  23.055   0.428  0.1618 -0.1462  0.3363
29828OCT     C159655  20.156  14.283  10.620 -0.0977  0.0421 -0.2044
29828OCT     C259656  20.088  14.638  10.311 -0.3808  0.0008  0.4164
29829OCT     C159657  12.031  23.451  13.693  0.1706 -0.0111  0.4938
29829OCT     C259658  11.966  23.160  13.361 -0.1329  0.1986  0.1978
29830OCT     C159659   4.041   5.746   9.006 -0.0926  0.1209 -0.1188
29830OCT     C259660   3.663   6.000   9.076 -0.1249  0.1933  0.0319
29831OCT     C159661  16.183  12.768  22.568 -0.2676 -0.5256 -0.2594
29831OCT     C259662  16.483  12.846  22.209 -0.0906 -0.3645 -0.0043
29832OCT     C159663  18.239   1.624   8.799  0.1620  0.2398 -0.3703
29832OCT     C259664  17.885   1.740   9.151 -0.2171  0.0571 -0.2376
29833OCT     C159665   1.430  13.020  11.507  0.2796 -0.1866  0.2428
29833OCT     C259666   1.055  13.100  11.783 -0.3088 -0.4241  0.0538
29834OCT     C159667  19.503  12.754  16.078 -0.0214 -0.4092 -0.1849
29834OCT     C259668  19.564  13.013  15.749 -0.1360  0.1296  0.0618
29835OCT     C159669   8.339  12.562   2.297 -0.1955  0.2843 -0.1852
29835OCT     C259670   7.898  12.512   2.377 -0.1663  0.0167  0.2893
29836OCT     C159671  15.007  10.223   4.223  0.0652  0.0399  0.4280
29836OCT     C259672  15.366   9.955   4.123 -0.3549  0.4825 -0.1619
29837OCT     C159673   9.546  11.832   6.835  0.0721 -0.0023 -0.1695
29837OCT     C259674   9.613  11.378   6.890  0.1770 -0.0444 -0.4593
29838OCT     C159675  21.987   4.704  10.518 -0.4476  0.1342 -0.3798
29838OCT     C259676  22.132   4.307  10.314  0.0298 -0.1626  0.0710
29839OCT     C159677   3.969   5.480  15.835 -0.0560  0.1596  0.2465
29839OCT     C259678   3.573   5.631  15.591  0.2290 -0.1785 -0.4067
29840OCT     C159679  17.682  22.756   6.792 -0.1421 -0.0659 -0.1211
29840OCT     C259680  17.434  22.372   6.587 -0.1051 -0.1256 -0.1440
29841OCT     C159681  10.798   2.586   0.672 -0.3900  0.0228 -0.0022
29841OCT     C259682  11.172   2.845   0.521 -0.1527  0.0376  0.2251
29842OCT     C159683  23.279   8.548  12.096  0.2435 -0.0648 -0.0231
29842OCT     C259684  23.159   8.444  11.653  0.6321  0.0063  0.5776
29843OCT     C159685   5.010   1.337  21.346 -0.0884  0.1194  0.0851
29843OCT     C259686   5.306   1.663  21.100 -0.2285  0.1591  0.2891
29844OCT     C159687  10.546  10.005   9.229  0.2468 -0.0192  0.3006
29844OCT     C259688  10.389  10.130   9.634 -0.1742  0.2131 -0.0418
29845OCT     C159689  10.004  20.059   2.405 -0.3417  0.0871  0.2396
29845OCT     C259690   9.786  19.702   2.296  0.3181 -0.0298 -0.0160
29846OCT     C159691   1.419  15.502  13.565  0.0529  0.2467 -0.1403
29846OCT     C259692   1.457  15.888  13.713 -0.1855  0.3387  0.1786
29847OCT     C159693   4.434  20.106   1.166 -0.1955  0.1571  0.3814
29847OCT     C259694   4.032  20.151   0.886  0.1076 -0.0603  0.0907
29848OCT     C159695   3.037  16.974  18.024  0.1980 -0.0955  0.1214
29848OCT     C259696   3.132  17.369  18.231 -0.1395 -0.2236 -0.1663
29849OCT     C159697   7.866  21.633   6.255  0.0348 -0.3172  0.1420
29849OCT     C259698   7.934  21.788   5.794  0.3069  0.0104  0.0967
29850OCT     C159699  19.012  15.902   0.202  0.3928 -0.1003  0.2580
29850OCT     C259700  18.889  15.910   0.601  0.1008  0.1410 -0.3841
29851OCT     C159701  11.314  18.571   4.565 -0.1566  0.4246 -0.3329
29851OCT     C259702  11.069  18.174   4.597 -0.0081  0.0512 -0.1426
29852OCT     C159703  14.836   1.225   8.849 -0.1200 -0.2642  0.1887
29852OCT     C259704  15.161   1.042   9.006 -0.3007  0.2436 -0.3096
29853OCT     C159705  12.083   7.930  15.346 -0.1221 -0.1423  0.1806
29853OCT     C259706  12.544   7.914  15.220 -0.0054  0.1754 -0.1205
29854OCT     C159707   2.843   7.924  21.446  0.1482  0.2045 -0.1045
29854OCT     C259708   3.229   8.145  21.327 -0.0944 -0.1900  0.1662
29855OCT     C159709  13.551   4.277   3.896 -0.1656  0.1246  0.5109
29855OCT     C259710  13.137   4.253   4.092  0.1747  0.5149 -0.1684
29856OCT     C159711   8.534  18.868   6.406 -0.0663  0.0353  0.0673
29856OCT     C259712   8.348  18.515   6.152  0.0328  0.0929 -0.1517
29857OCT     C159713   8.006   5.891  11.653  0.1523 -0.0690  0.1178
29857OCT     C259714   7.852   5.742  11.207  0.3185 -0.0350 -0.0708
29858OCT     C159715   5.996   9.641  15.943 -0.0317 -0.0608 -0.0173
29858OCT     C259716   6.274   9.983  15.758  0.3019 -0.1696  0.0262
29859OCT     C159717  12.672  14.959  14.659  0.2475  0.0520 -0.1070
29859OCT     C259718  12.370  14.964  14.334  0.0862  0.1354 -0.3165
29860OCT     C159719  22.781  23.636   2.224 -0.2195  0.0469 -0.0710
29860OCT     C259720  22.665  23.218   2.534 -0.2031 -0.0356  0.1764
29861OCT     C159721  20.272  16.988  21.674 -0.3000  0.0883  0.5093
29861OCT     C259722  20.750  16.851  21.610  0.1690 -0.0130 -0.0697
29862OCT     C159723   5.411  10.022  12.127 -0.0858  0.2377 -0.1035
29862OCT     C259724   5.513   9.770  11.685  0.1529 -0.0789  0.0405
29863OCT     C159725   9.562  19.023  13.973 -0.0017 -0.4321  0.6228
29863OCT     C259726   9.673  19.063  14.377 -0.0594 -0.1397 -0.0416
29864OCT     C159727  21.930   7.327  20.307 -0.1375 -0.1914  0.0422
29864OCT     C259728  22.400   7.258  20.335  0.1296 -0.1669  0.3212
29865OCT     C159729  22.246  16.996   9.978  0.2253 -0.0131  0.4259
29865OCT     C259730  22.089  16.900  10.463 -0.0216 -0.1432  0.0801
29866OCT     C159731  16.569  18.897  20.632  0.0242 -0.2283 -0.1684
29866OCT     C259732  16.448  19.210  20.897  0.0414 -0.1951  0.2385
29867OCT     C159733  20.350  19.576   3.350  0.1702  0.0707 -0.0950
29867OCT     C259734  19.900  19.689   3.341  0.0586 -0.0165  0.0225
29868OCT     C159735  12.520  16.897   0.914 -0.1565 -0.2404  0.1721
29868OCT     C259736  12.733  17.198   0.574 -0.0326 -0.2170 -0.1270
29869OCT     C159737  14.608  14.095  20.481 -0.2313 -0.4448 -0.0481
29869OCT     C259738  14.868  14.227  20.132 -0.2319  0.2376 -0.0369
29870OCT     C159739   1.960  20.428  12.857  0.3427 -0.5930  0.1038
29870OCT     C259740   1.978  20.698  12.432  0.1353 -0.2201  0.0602
29871OCT     C159741  19.202   3.537  13.213  0.4325 -0.2708  0.0908
29871OCT     C259742  18.952   3.301  13.552  0.2995  0.2317 -0.1715
29872OCT     C159743   4.667  20.668  21.187  0.0746  0.0456 -0.3656
29872OCT     C259744   4.817  20.274  21.219 -0.1870  0.0024 -0.0281
29873OCT     C159745  17.305  16.310  20.797 -0.1622  0.0002 -0.2923
29873OCT     C259746  16.997  16.126  21.026  0.1957 -0.0976 -0.5306
29874OCT     C159747  15.539  10.264  23.416  0.0173 -0.1333  0.1276
29874OCT     C259748  15.496  10.688  23.383  0.0911  0.0739 -0.0396
29875OCT     C159749  22.175  13.210  19.349  0.0178  0.0867  0.1945
29875OCT     C259750  21.845  13.364  19.685 -0.0120  0.1444 -0.0599
29876OCT     C159751  11.313  22.575   7.167  0.0348  0.1102 -0.2069
29876OCT     C259752  10.827  22.572   7.233  0.1118 -0.0592 -0.1394
29877OCT     C159753   0.131   4.784  12.034  0.2514 -0.1281 -0.1104
29877OCT     C259754  23.496   4.842  12.294  0.1455  0.2570 -0.1159
29878OCT     C159755  11.339   1.963  13.788 -0.0018  0.2324 -0.0434
29878OCT     C259756  11.193   2.053  14.209  0.0744 -0.1674 -0.3297
29879OCT     C159757  23.233  10.014  20.384  0.0584 -0.0245 -0.4097
29879OCT     C259758  23.306   9.591  20.184 -0.4283 -0.1151 -0.2354
29880OCT     C159759  14.184   9.595  14.409  0.2204  0.2577 -0.1850
29880OCT     C259760  14.036   9.663  14.809  0.0606 -0.1239 -0.1141
29881OCT     C159761  15.505  15.164   5.406 -0.1544  0.0962 -0.0362
29881OCT     C259762  15.079  15.263   5.454  0.2127  0.2587  0.0619
29882OCT     C159763   6.750  16.799  21.014  0.0952  0.1019  0.2750
29882OCT     C259764   7.159  16.980  21.080  0.5448  0.0856  0.1953
29883OCT     C159765  18.239  23.472   6.549 -0.0454  0.3561 -0.1386
29883OCT     C259766  17.786  23.608   6.432 -0.2654 -0.1132  0.1020
29884OCT     C159767   8.563  16.350  12.184 -0.1601 -0.0026 -0.1077
29884OCT     C259768   8.939  16.114  12.037  0.0952  0.2919  0.1189
29885OCT     C159769  19.255  11.254   7.095  0.0222  0.1945  0.1208
29885OCT     C259770  19.675  11.053   7.228  0.0367 -0.1056  0.0915
29886OCT     C159771  16.556   4.462   9.652 -0.2580  0.0187  0.2978
29886OCT     C259772  16.977   4.456   9.467  0.1424 -0.3169  0.2720
29887OCT     C159773   3.289  21.581  19.715  0.2154 -0.1674  0.1127
29887OCT     C259774   3.317  21.160  19.835 -0.2630  0.0212 -0.0617
29888OCT     C159775  11.103   9.160  18.440  0.0945  0.0470  0.2313
29888OCT     C259776  10.684   9.351  18.489 -0.1970  0.0182 -0.0268
29889OCT     C159777   6.972  17.182  16.530  0.3125  0.0155 -0.1608
29889OCT     C259778   6.544  17.039  16.718  0.0409  0.1003  0.3677
29890OCT     C159779  19.969   0.661  14.721 -0.4759  0.1784  0.0530
29890OCT     C259780  19.655   0.768  14.395  0.2591 -0.0026  0.1842
29891OCT     C159781  21.519   5.809  12.018 -0.2683  0.1656  0.1642
29891OCT     C259782  21.886   5.496  11.907  0.1989 -0.1392  0.3018
29892OCT     C159783  22.553  13.413   4.162 -0.0618 -0.0020 -0.3111
29892OCT     C259784  22.605  13.421   4.632 -0.0901  0.0553  0.1595
29893OCT     C159785  18.437   7.434  23.268  0.3748 -0.1766  0.1703
29893OCT     C259786  18.619   7.036  23.267  0.0353  0.1286 -0.2879
29894OCT     C159787  17.127  21.468  11.391 -0.2294 -0.3263 -0.4268
29894OCT     C259788  16.705  21.229  11.479 -0.0877  0.0077  0.2940
29895OCT     C159789  10.760   3.533   6.349  0.0895  0.2159  0.1028
29895OCT     C259790  10.837   3.999   6.376 -0.0305 -0.2605  0.1987
29896OCT     C159791   3.879  17.673  14.697  0.0869 -0.1852 -0.0830
29896OCT     C259792   3.635  17.790  14.317  0.0561 -0.3283 -0.1169
29897OCT     C159793   8.679  10.156  11.164 -0.0029  0.1453  0.2251
29897OCT     C259794   8.877  10.584  11.226  0.3810 -0.3640  0.0548
29898OCT     C159795   2.934   6.284   8.340 -0.2731  0.0401  0.0219
29898OCT     C259796   2.715   6.426   7.970 -0.0482 -0.0513  0.1052
29899OCT     C159797  21.780  17.531  23.196 -0.1774 -0.0650 -0.1659
29899OCT     C259798  21.462  17.232  22.998  0.3318  0.0420 -0.0346
29900OCT     C159799  21.678   0.407  15.111 -0.1140  0.4726  0.2087
29900OCT     C259800  21.842   0.803  14.933 -0.2235 -0.1521 -0.1471
29901OCT     C159801   0.827   2.759   4.073 -0.1562  0.0738  0.1879
29901OCT     C259802   0.635   2.964   4.422 -0.1540  0.3056  0.0098
29902OCT     C159803   2.888  21.580   4.652 -0.2226 -0.0172 -0.1753
29902OCT     C259804   2.607  21.475   4.253  0.2304  0.0794  0.2548
29903OCT     C159805  11.813   4.206  10.869  0.0577  0.2157  0.2145
29903OCT     C259806  11.992   4.293  10.435  0.1919 -0.2171  0.3146
29904OCT     C159807   4.416  13.888   5.641 -0.2331 -0.2457 -0.1994
29904OCT     C259808   4.282  14.308   5.480 -0.1749 -0.2915 -0.1337
29905OCT     C159809   3.237  13.080  16.601  0.2493 -0.1680  0.2705
29905OCT     C259810   3.107  13.430  16.915  0.1139 -0.1130  0.3000
29906OCT     C159811  22.730   6.126  17.036  0.1709 -0.0877  0.2945
29906OCT     C259812  22.466   6.038  17.390  0.1639  0.0118  0.0649
29907OCT     C159813  13.260  19.017  22.431  0.3553  0.2668  0.6466
29907OCT     C259814  13.387  18.701  22.709  0.0203  0.5909 -0.4213
29908OCT     C159815  15.895  17.630   6.606  0.3956  0.0798  0.0607
29908OCT     C259816  15.933  17.726   6.107  0.0973  0.3281 -0.0749
29909OCT     C159817   6.369  16.981  13.616 -0.1601  0.2726 -0.0291
29909OCT     C259818   6.057  17.351  13.727 -0.0416 -0.1011 -0.4848
29910OCT     C159819   4.931  19.227  18.141  0.4186 -0.3981  0.5058
29910OCT     C259820   4.894  18.749  18.209 -0.2009 -0.5834 -0.3883
29911OCT     C159821   8.098   8.708  19.531 -0.3653  0.2675 -0.0162
29911OCT     C259822   8.126   8.362  19.242  0.2816 -0.3613 -0.0129
29912OCT     C159823   2.867   6.156   8.911  0.2645  0.0990 -0.1834
29912OCT     C259824   3.273   6.304   9.129 -0.3844 -0.1679  0.0648
29913OCT     C159825  10.884  20.729   3.779  0.0857  0.0156  0.2055
29913OCT     C259826  10.452  20.833   3.531 -0.0421 -0.1967  0.0957
29914OCT     C159827   9.791   5.276  13.153  0.3091  0.2117  0.1365
29914OCT     C259828  10.074   5.175  12.810 -0.2543 -0.2467 -0.0761
29915OCT     C159829   0.154   3.773  11.265  0.2872 -0.1029 -0.1722
29915OCT     C259830  23.560   3.574  11.069  0.2150 -0.1842 -0.1806
29916OCT     C159831   7.909  13.542  11.970 -0.0740 -0.2186 -0.5235
29916OCT     C259832   7.740  13.221  11.688  0.2006  0.2685 -0.0208
29917OCT     C159833   5.623  15.801   9.354  0.2494  0.2294 -0.0716
29917OCT     C259834   5.202  15.973   9.511 -0.0887  0.1308  0.1705
29918OCT     C159835  16.135  13.788  19.515 -0.2564  0.1068  0.3520
29918OCT     C259836  16.488  13.524  19.292 -0.0862 -0.1157  0.0399
29919OCT     C159837   6.433  12.973  15.929 -0.2454  0.0543 -0.3262
29919OCT     C259838   6.387  13.472  15.831  0.0592 -0.1700  0.1053
29920OCT     C159839  11.086  12.406  14.559  0.1271 -0.0617  0.2344
29920OCT     C259840  11.221  12.062  14.878  0.1075 -0.0182 -0.1701
29921OCT     C159841  10.259  13.827   5.565  0.0065 -0.1285  0.2613
29921OCT     C259842   9.936  13.764   5.257  0.0137  0.0217 -0.1262
29922OCT     C159843  10.104  17.699   7.633  0.1357  0.1832 -0.0216
29922OCT     C259844   9.594  17.764   7.608 -0.0307 -0.2594 -0.0863
29923OCT     C159845  21.145   0.933   0.990  0.3055  0.1809  0.1118
29923OCT     C259846  21.382   0.703   0.641  0.4381  0.2518  0.2962
29924OCT     C159847   6.148  16.417   6.517  0.3558 -0.2000  0.1987
29924OCT     C259848   6.402  16.592   6.175 -0.0850  0.0820  0.1505
29925OCT     C159849  22.934  10.298  18.684 -0.1707  0.4134 -0.1110
29925OCT     C259850  22.590  10.086  18.463 -0.0476 -0.0860 -0.0549
29926OCT     C159851  19.318   7.337   8.738 -0.3028  0.4274  0.2521
29926OCT     C259852  19.668   7.458   8.576 -0.0482  0.0533 -0.0581
29927OCT     C159853   1.436   1.709   7.992 -0.2177  0.1796 -0.1702
29927OCT     C259854   1.798   2.038   7.968 -0.1735 -0.0243  0.1915
29928OCT     C159855  12.128  18.984  22.682  0.1944 -0.2682 -0.0167
29928OCT     C259856  12.005  18.997  22.189 -0.1282 -0.1748  0.0633
29929OCT     C159857   3.522  11.701  18.010  0.3165 -0.1366 -0.2391
29929OCT     C259858   3.314  11.857  18.424 -0.1500  0.1229 -0.1543
29930OCT     C159859   0.307  16.069  21.471 -0.2788  0.3928 -0.0292
29930OCT     C259860   0.096  16.232  21.045  0.1757  0.3074  0.1984
29931OCT     C159861  13.991  15.612  18.015 -0.1843 -0.1480 -0.2323
29931OCT     C259862  13.838  15.292  17.683  0.0025 -0.3287 -0.0042
29932OCT     C159863   3.404   7.363  10.356 -0.0461  0.3723  0.0289
29932OCT     C259864   3.704   7.039  10.220 -0.0900  0.0631 -0.0173
29933OCT     C159865  15.654   0.457  18.784  0.0428 -0.5031 -0.1358
29933OCT     C259866  15.614   0.026  18.679  0.1593 -0.0537  0.1880
29934OCT     C159867   3.846   8.536   8.993 -0.1379 -0.0089  0.3672
29934OCT     C259868   4.251   8.372   9.170  0.2255 -0.0898 -0.2202
29935OCT     C159869  12.725  12.711  18.330  0.2475  0.1718  0.0121
29935OCT     C259870  13.013  12.530  18.617  0.1579  0.2073  0.2167
29936OCT     C159871   6.446   6.336  12.625 -0.3277 -0.3185 -0.0278
29936OCT     C259872   6.297   6.702  12.938  0.0850  0.2758 -0.2035
29937OCT     C159873  11.774  12.227  14.056 -0.0064 -0.1606 -0.2282
29937OCT     C259874  11.781  11.843  14.284  0.0072 -0.2218  0.0548
29938OCT     C159875   2.710  16.988   7.580 -0.1867  0.0846  0.1644
29938OCT     C259876   3.114  16.712   7.532  0.1178 -0.1529  0.0382
29939OCT     C159877  22.184  18.618  22.262 -0.1195 -0.2029 -0.2395
29939OCT     C259878  22.581  18.541  22.437 -0.0101 -0.1768  0.1434
29940OCT     C159879  10.992  10.171   3.531 -0.5004 -0.0655  0.2014
29940OCT     C259880  11.288  10.011   3.887 -0.2367  0.1529  0.0611
29941OCT     C159881   2.425   9.302  12.225 -0.1828  0.4948 -0.1417
29941OCT     C259882   2.520   9.040  12.573  0.2316 -0.2052  0.2644
29942OCT     C159883   1.185  18.329  23.508 -0.3981 -0.0799  0.1974
29942OCT     C259884   0.801  18.539  23.208  0.1022  0.0166  0.1207
29943OCT     C159885  10.301   8.973   9.183 -0.0783 -0.1274  0.1822
29943OCT     C259886   9.957   9.283   9.167 -0.0860 -0.0383  0.1573
29944OCT     C159887  18.448   1.848  10.738 -0.3717  0.4064  0.1126
29944OCT     C259888  18.450   1.559  10.424 -0.0758 -0.0195  0.0229
29945OCT     C159889   6.455  13.498  13.353 -0.2944  0.1008  0.1713
29945OCT     C259890   5.992  13.297  13.438  0.1348 -0.2967  0.0632
29946OCT     C159891   4.997  14.851  19.895 -0.1012  0.3270 -0.4841
29946OCT     C259892   5.072  14.871  19.457 -0.3341 -0.1237  0.1263
29947OCT     C159893   3.514  21.580  22.324 -0.4688 -0.0622 -0.1677
29947OCT     C259894   3.371  21.947  22.621 -0.1407  0.2458  0.1614
29948OCT     C159895   6.362   4.801  21.374 -0.0731  0.0057 -0.2577
29948OCT     C259896   6.417   4.459  21.136  0.1660 -0.0491  0.0430
29949OCT     C159897  16.784  12.180  17.529 -0.1853 -0.0297  0.1020
29949OCT     C259898  17.120  12.475  17.638 -0.0143 -0.0480 -0.0411
29950OCT     C159899   6.705  15.481  15.256  0.3083  0.2533 -0.1335
29950OCT     C259900   6.345  15.730  15.393 -0.0549 -0.0202 -0.0298
29951OCT     C159901   4.346  17.102   1.745  0.0378 -0.1579 -0.0349
29951OCT     C259902   4.734  17.024   1.495  0.2939  0.0716  0.0057
29952OCT     C159903   8.016   4.355   6.081 -0.0632 -0.2020  0.1779
29952OCT     C259904   8.258   4.433   5.709 -0.2087  0.1523 -0.0100
29953OCT     C159905  19.549   5.075  14.403  0.1686  0.2965  0.2355
29953OCT     C259906  19.959   5.193  14.210 -0.0922 -0.0715  0.1154
29954OCT     C159907  22.860  10.431   1.811  0.2028 -0.1126  0.0827
29954OCT     C259908  22.985   9.997   1.790 -0.4054  0.3108  0.2824
29955OCT     C159909   6.776  22.850   5.413  0.0420  0.1618  0.0209
29955OCT     C259910   6.389  22.766   5.178 -0.0155  0.3361  0.2450
29956OCT     C159911   8.795   1.817  22.883  0.2933  0.0258  0.0081
29956OCT     C259912   8.874   2.258  22.846  0.3963 -0.0884  0.0709
29957OCT     C159913   3.100   2.871   5.043 -0.0832  0.0634 -0.2025
29957OCT     C259914   3.365   2.705   4.664 -0.1167  0.1920 -0.1267
29958OCT     C159915  18.571   1.137  11.980 -0.0867 -0.1315  0.0118
29958OCT     C259916  18.907   0.875  11.963  0.1632 -0.0325  0.1313
29959OCT     C159917  22.600   5.832  20.216 -0.2709 -0.0352  0.2153
29959OCT     C259918  22.500   5.434  19.981  0.1567  0.0665  0.0535
29960OCT     C159919  10.245   6.721   2.280 -0.2061  0.1067  0.2506
29960OCT     C259920  10.018   6.600   1.914  0.4351  0.0726 -0.0030
29961OCT     C159921   2.082  17.138   0.946 -0.0112 -0.1062  0.2684
29961OCT     C259922   2.084  16.775   0.602 -0.1391 -0.1291 -0.1075
29962OCT     C159923   3.518   6.055  19.100 -0.1729  0.2841 -0.1429
29962OCT     C259924   3.648   6.267  18.714  0.4722 -0.5970 -0.2919
29963OCT     C159925  17.722  14.828   1.908 -0.4409  0.0245  0.0599
29963OCT     C259926  17.473  15.276   2.030  0.1983 -0.0875  0.0451
29964OCT     C159927  10.281  12.079  12.431 -0.1690  0.0310 -0.0228
29964OCT     C259928   9.853  12.204  12.447  0.0080  0.0054  0.2613
29965OCT     C159929  19.679  10.947  21.057 -0.0135 -0.0017  0.1508
29965OCT     C259930  19.343  10.709  21.219  0.1924  0.1145 -0.3554
29966OCT     C159931   4.580   6.369  12.463  0.4172 -0.0594 -0.2721
29966OCT     C259932   4.794   6.756  12.427 -0.1421  0.0114  0.2179
29967OCT     C159933  23.326  22.361  11.644  0.2161  0.1899  0.0567
29967OCT     C259934  22.921  22.446  11.904 -0.1785  0.0030 -0.2506
29968OCT     C159935  12.203   3.666  23.489 -0.1647 -0.0173 -0.2339
29968OCT     C259936  12.046   3.789   0.165  0.1589  0.0497 -0.0692
29969OCT     C159937  14.837  18.654  11.285  0.0646 -0.2395 -0.3272
29969OCT     C259938  14.582  19.045  11.531 -0.2441  0.0437 -0.2149
29970OCT     C159939  19.318  17.175  15.184  0.0703  0.2068 -0.1327
29970OCT     C259940  19.590  17.555  15.094  0.2298 -0.1545 -0.0369
29971OCT     C159941  16.653   4.341  16.820 -0.3348  0.0044 -0.2588
29971OCT     C259942  16.447   3.919  16.937  0.5633 -0.2430  0.0789
29972OCT     C159943   6.166  23.229   4.954 -0.0912  0.0077  0.0810
29972OCT     C259944   5.714  23.334   5.002  0.2293 -0.1599  0.3357
29973OCT     C159945   9.456  19.603   6.972 -0.0315 -0.1164 -0.1913
29973OCT     C259946   9.701  19.993   6.889  0.0285 -0.0612  0.0465
29974OCT     C159947  19.755  22.256  15.208 -0.0143 -0.3253  0.1233
29974OCT     C259948  19.691  22.192  15.700 -0.3719  0.4527  0.1192
29975OCT     C159949   2.873  16.248  20.305  0.1151  0.0051  0.1918
29975OCT     C259950   2.709  16.202  20.762  0.0076  0.0197  0.0411
29976OCT     C159951   9.809   7.676   4.406  0.2375 -0.0317 -0.3773
29976OCT     C259952   9.991   7.912   4.060 -0.0903 -0.2781  0.0444
29977OCT     C159953  16.333  12.545  15.059 -0.3206 -0.1084  0.0110
29977OCT     C259954  16.558  12.236  15.288 -0.1493  0.2115  0.0396
29978OCT     C159955  10.504  18.239  10.223  0.0575  0.2641  0.3378
29978OCT     C259956  10.110  18.246   9.949  0.0061  0.0389 -0.1500
29979OCT     C159957   2.569   9.368  16.735  0.0699 -0.1998 -0.2150
29979OCT     C259958   2.754   9.731  16.477 -0.1398  0.0063 -0.0207
29980OCT     C159959  21.923   4.648   7.992 -0.2076 -0.0467  0.1062
29980OCT     C259960  22.033   4.573   7.522  0.0152 -0.0402 -0.0474
29981OCT     C159961   9.621  15.168  12.717  0.1695  0.3539  0.1233
29981OCT     C259962   9.406  14.876  12.945 -0.0470 -0.2263 -0.2173
29982OCT     C159963   1.450   0.545   7.101  0.2128 -0.1944  0.3008
29982OCT     C259964   1.313   0.116   6.853  0.2000  0.0304  0.1450
29983OCT     C159965   2.666  19.142   9.481  0.2065  0.0437  0.1525
29983OCT     C259966   2.935  19.373   9.864 -0.2787  0.3016 -0.1074
29984OCT     C159967   2.262   2.700   7.545  0.4767 -0.4137  0.2046
29984OCT     C259968   2.475   3.152   7.684  0.4081 -0.1106 -0.3737
29985OCT     C159969  13.789   0.664   1.867 -0.0108 -0.2446  0.2729
29985OCT     C259970  13.929   0.822   2.254 -0.2867 -0.0602  0.0961
29986OCT     C159971  19.694  13.308  22.711 -0.1044 -0.0868 -0.5385
29986OCT     C259972  20.025  13.075  22.946 -0.1448 -0.3761  0.3976
29987OCT     C159973   1.210  17.347   5.545 -0.4634 -0.1456 -0.0490
29987OCT     C259974   1.630  17.398   5.371 -0.1694  0.1374  0.1611
29988OCT     C159975   5.514   0.720  14.475  0.1400  0.1002  0.2195
29988OCT     C259976   5.440   1.160  14.391  0.2232 -0.2168 -0.0986
29989OCT     C159977  14.632  16.888  13.116 -0.0430 -0.5032 -0.1892
29989OCT     C259978  14.911  16.725  13.428 -0.1847  0.0575  0.1790
29990OCT     C159979  12.837  11.853   7.997 -0.0237 -0.3131 -0.0264
29990OCT     C259980  12.773  12.227   8.316 -0.4152  0.0724  0.1276
29991OCT     C159981   8.884   7.161  19.115  0.1058  0.0480  0.3192
29991OCT     C259982   8.541   7.386  18.856 -0.3358 -0.1123 -0.3659
29992OCT     C159983  14.278  13.279  17.913 -0.2695  0.2238  0.2954
29992OCT     C259984  14.229  13.107  18.330  0.1478 -0.0507  0.0062
29993OCT     C159985   2.406  15.511   0.370  0.4825 -0.0387 -0.0937
29993OCT     C259986   2.627  15.145   0.316 -0.4158 -0.0345 -0.3078
29994OCT     C159987   0.362  10.069  22.829 -0.1020 -0.0475  0.0147
29994OCT     C259988   0.744   9.807  22.757 -0.0527 -0.2201  0.0509
29995OCT     C159989  19.798  23.149  18.563 -0.0110  0.3464 -0.0842
29995OCT     C259990  19.879  23.560  18.502 -0.0552  0.1421 -0.0420
29996OCT     C159991   9.368  23.162   6.164 -0.4621 -0.0255 -0.2964
29996OCT     C259992   9.762  22.918   6.143 -0.3473 -0.1640 -0.1160
29997OCT     C159993   9.408   9.707  11.086 -0.3163 -0.0312  0.0837
29997OCT     C259994   9.608   9.868  10.693  0.1484  0.1534  0.0195
29998OCT     C159995   4.915  20.791  16.356  0.1165 -0.1037  0.3401
29998OCT     C259996   5.269  20.512  16.431 -0.1324  0.2362 -0.1779
29999OCT     C159997   8.761  11.268   7.916 -0.1121  0.1324 -0.1424
29999OCT     C259998   8.845  10.830   7.842 -0.2133 -0.0734 -0.3544
30000OCT     C159999  10.138  11.585  13.933 -0.0629 -0.1994 -0.1189
30000OCT     C260000  10.245  11.281  14.311 -0.1948  0.3077  0.1871
30001OCT     C160001   2.589   1.816   3.253  0.2119  0.2067 -0.2777
30001OCT     C260002   2.408   1.364   3.262  0.2756 -0.2565  0.0766
30002OCT     C160003   2.338  18.438   3.131 -0.2457  0.1912 -0.1015
30002OCT     C260004   2.802  18.420   3.273 -0.5614  0.0339  0.0791
30003OCT     C160005  20.085   8.247  14.483 -0.1779  0.0143 -0.0732
30003OCT     C260006  20.102   7.885  14.246  0.0742 -0.3358  0.1649
30004OCT     C160007   5.958   6.135  15.526 -0.0167 -0.0041  0.1669
30004OCT     C260008   5.619   6.255  15.243 -0.1625 -0.0460  0.1571
30005OCT     C160009  13.605  15.691  15.481  0.1319 -0.0413  0.1062
30005OCT     C260010  13.316  15.607  15.901 -0.1960  0.2578  0.2324
30006OCT     C160011  20.873  23.368   8.032  0.1026  0.1350 -0.0005
30006OCT     C260012  21.076   0.015   7.815 -0.0853 -0.0093 -0.3910
30007OCT     C160013  13.837   3.461   6.315 -0.3643  0.0181  0.3488
30007OCT     C260014  14.263   3.526   6.373 -0.0801  0.1522 -0.0498
30008OCT     C160015   6.330   7.460   0.333 -0.0601 -0.1329 -0.0565
30008OCT     C260016   5.936   7.537   0.105 -0.0892 -0.2412  0.1070
30009OCT     C160017   9.540  11.977  12.801 -0.1064 -0.4223  0.0640
30009OCT     C260018   9.524  11.539  12.809  0.1517  0.0844 -0.0037
30010OCT     C160019  23.399   3.129   9.468 -0.1524  0.1399 -0.0132
30010OCT     C260020  23.413   3.585   9.304  0.0074 -0.1891  0.2635
30011OCT     C160021  21.535   3.792  19.616  0.4051  0.3483  0.0013
30011OCT     C260022  21.326   4.175  19.496 -0.0414 -0.1163  0.3643
30012OCT     C160023  21.300   5.944   8.705  0.1779  0.0187 -0.5745
30012OCT     C260024  21.244   6.307   8.435 -0.2700 -0.3123  0.2207
30013OCT     C160025  12.103   2.331   3.961 -0.0859 -0.0195 -0.2674
30013OCT     C260026  11.798   2.265   3.614 -0.5537 -0.1898 -0.2356
30014OCT     C160027   2.296  21.246  16.916  0.2850  0.0779 -0.1789
30014OCT     C260028   2.019  20.974  17.185  0.2468  0.1897 -0.0129
30015OCT     C160029  14.279  10.984   1.416 -0.3039 -0.1351  0.1983
30015OCT     C260030  14.016  11.162   1.039  0.0309 -0.1142  0.1283
30016OCT     C160031  18.926   8.509   2.325 -0.0041  0.1236 -0.0142
30016OCT     C260032  18.946   8.737   1.924  0.3495 -0.2179 -0.2745
30017OCT     C160033  23.403  15.634  15.669  0.0328  0.0868  0.2503
30017OCT     C260034  23.540  15.460  16.092  0.2130  0.0297  0.0538
30018OCT     C160035  12.776   9.273  22.554 -0.0520  0.1166  0.2588
30018OCT     C260036  12.878   9.226  22.124 -0.0391  0.1268  0.0134
30019OCT     C160037   9.396  17.974  11.773 -0.0069 -0.1875 -0.2314
30019OCT     C260038   9.107  17.718  11.436  0.4516 -0.1954  0.0397
30020OCT     C160039  16.398  17.762  16.970  0.0951 -0.2948  0.0652
30020OCT     C260040  16.276  17.994  16.616  0.2731 -0.2896  0.2618
30021OCT     C160041  22.144  20.585  22.945 -0.0201  0.2428 -0.0376
30021OCT     C260042  22.251  20.323  23.337  0.0018 -0.2844 -0.1020
30022OCT     C160043  16.468   7.148   5.195  0.0811  0.1715 -0.0867
30022OCT     C260044  16.731   7.004   5.521  0.2757 -0.0212  0.0127
30023OCT     C160045  10.388  14.914  13.601  0.1663  0.0909  0.3256
30023OCT     C260046   9.940  15.178  13.581 -0.1111 -0.1627  0.1295
30024OCT     C160047  21.692   6.036   8.379  0.1337 -0.0101  0.1634
30024OCT     C260048  22.010   6.080   8.025  0.1167 -0.3686 -0.3163
30025OCT     C160049   7.142   4.343  22.568 -0.2796  0.0655 -0.3538
30025OCT     C260050   7.302   3.932  22.754 -0.5995  0.1935  0.4138
30026OCT     C160051  18.679   2.556  18.359  0.2174  0.0923  0.2077
30026OCT     C260052  19.030   2.794  18.503 -0.1642  0.0879 -0.4385
30027OCT     C160053   6.212   0.675  23.451  0.0480 -0.0213 -0.3471
30027OCT     C260054   6.484   0.995  23.641 -0.1614 -0.1126  0.2456
30028OCT     C160055  22.631  13.178   3.724 -0.0044  0.1231  0.1102
30028OCT     C260056  22.330  13.525   3.702  0.0317  0.3130  0.3860
30029OCT     C160057   6.817  20.951   7.531 -0.5207  0.2091 -0.0677
30029OCT     C260058   6.480  21.261   7.526 -0.1123  0.0617 -0.3003
30030OCT     C160059  16.950  20.704  14.334  0.0161  0.1815 -0.1941
30030OCT     C260060  16.642  20.546  13.972 -0.1498 -0.0475  0.2123
30031OCT     C160061  17.328  20.265  10.748  0.0878 -0.3702  0.1742
30031OCT     C260062  17.731  20.482  10.516  0.0960  0.1944  0.1675
30032OCT     C160063   1.809  17.424  15.346  0.2341 -0.2303 -0.0069
30032OCT     C260064   1.588  17.657  14.966  0.0919 -0.0985 -0.0790
30033OCT     C160065   5.962  21.292   3.614  0.1789  0.1504 -0.3302
30033OCT     C260066   5.845  20.874   3.416  0.1741  0.3885  0.0188
30034OCT     C160067  22.482   7.564  10.705  0.1051  0.1058  0.3834
30034OCT     C260068  22.352   7.997  10.571 -0.1877 -0.2296 -0.1532
30035OCT     C160069  16.139  12.339  13.887 -0.0715  0.1456 -0.1486
30035OCT     C260070  16.157  12.558  13.477  0.1958  0.2343 -0.1450
30036OCT     C160071  20.519   8.320   6.855  0.0099 -0.1989  0.3475
30036OCT     C260072  20.983   8.465   6.862 -0.1390 -0.1209  0.1859
30037OCT     C160073  17.228  16.992   4.301  0.2784 -0.0770  0.0178
30037OCT     C260074  16.851  17.185   4.443  0.1052  0.1321  0.2618
30038OCT     C160075  11.358  21.208   2.759  0.0004  0.1306 -0.1647
30038OCT     C260076  11.066  21.561   2.712 -0.0395 -0.0308  0.0176
30039OCT     C160077   8.461  12.675  22.170 -0.1257 -0.2761 -0.1337
30039OCT     C260078   8.920  12.529  22.053 -0.0629  0.4653 -0.1629
30040OCT     C160079   4.300   4.197   4.491  0.2528  0.0522 -0.1637
30040OCT     C260080   4.523   4.416   4.851  0.3140 -0.1965 -0.4605
30041OCT     C160081  14.942   2.776  22.381  0.2101  0.1506 -0.1437
30041OCT     C260082  14.587   2.823  22.093  0.1003 -0.2979  0.8376
30042OCT     C160083  21.871  16.223  19.744  0.1122 -0.1689 -0.1001
30042OCT     C260084  21.605  16.376  19.375 -0.1840  0.3478  0.2247
30043OCT     C160085  18.655   6.796  16.790 -0.1801 -0.2022 -0.0002
30043OCT     C260086  19.156   6.836  16.833  0.1630 -0.0473  0.0722
30044OCT     C160087  19.512  17.690   7.017 -0.1660  0.0483 -0.1340
30044OCT     C260088  19.767  17.953   7.346  0.0343  0.3239  0.1094
30045OCT     C160089   5.556   2.235  15.898  0.0902 -0.0223 -0.4405
30045OCT     C260090   5.759   1.867  16.104  0.2334  0.2776 -0.0463
30046OCT     C160091   9.139  17.639  14.872  0.1146 -0.1309 -0.1297
30046OCT     C260092   8.844  17.251  14.897  0.2793 -0.1570 -0.2488
30047OCT     C160093   0.446  15.968  20.327  0.2098 -0.0837 -0.0223
30047OCT     C260094   0.308  15.882  20.771 -0.0881  0.0379 -0.1148
30048OCT     C160095  21.640  16.796  12.848 -0.2629 -0.4443  0.0410
30048OCT     C260096  21.270  17.085  12.915 -0.0486 -0.0723  0.1034
30049OCT     C160097  19.432   1.225   8.868 -0.0812  0.3324  0.0703
30049OCT     C260098  19.024   1.335   8.687 -0.0515 -0.6536  0.4522
30050OCT     C160099  10.330  16.154  22.005 -0.2179 -0.0170 -0.3107
30050OCT     C260100  10.536  16.518  22.279  0.1992  0.0323 -0.0891
30051OCT     C160101   7.301  21.856  10.236  0.1562  0.0891  0.3306
30051OCT     C260102   7.187  21.524   9.942  0.0619 -0.1000  0.2106
30052OCT     C160103  11.377   3.473  16.671  0.1244  0.0356 -0.0055
30052OCT     C260104  11.690   3.246  16.465 -0.2281  0.2569 -0.2361
30053OCT     C160105  16.288  23.130   4.924 -0.2392 -0.2715  0.2971
30053OCT     C260106  16.014  22.925   4.628 -0.2275  0.1404  0.0185
30054OCT     C160107  14.477  18.889  12.155  0.2401  0.0612 -0.1270
30054OCT     C260108  14.321  19.277  12.378 -0.1433  0.0326  0.0187
30055OCT     C160109  12.186   8.812   6.548  0.0518 -0.0029 -0.0522
30055OCT     C260110  11.841   8.675   6.780  0.3093 -0.3068  0.0004
30056OCT     C160111   2.834  15.211  17.190  0.1626 -0.2207  0.3917
30056OCT     C260112   3.104  14.867  17.083 -0.4985  0.2765  0.1569
30057OCT     C160113   3.768   1.772  20.321 -0.2106  0.4617 -0.2786
30057OCT     C260114   4.067   1.445  20.075  0.3370 -0.2995 -0.0724
30058OCT     C160115   9.168  12.530   8.878 -0.0512  0.0597 -0.4850
30058OCT     C260116   8.873  12.864   8.722 -0.1951  0.0954  0.0162
30059OCT     C160117  18.846   9.070  23.729  0.0808 -0.0181 -0.2024
30059OCT     C260118  19.297   9.016  23.589 -0.1690  0.2037 -0.0462
30060OCT     C160119   4.237   9.382  23.570 -0.3815 -0.3330  0.0619
30060OCT     C260120   4.392   8.979   0.131 -0.1419 -0.2479  0.3657
30061OCT     C160121  15.207   1.384   0.107 -0.0160 -0.4350  0.0870
30061OCT     C260122  15.609   1.502   0.280  0.0887 -0.6739  0.2115
30062OCT     C160123  12.067  18.294   3.080 -0.2004  0.4900 -0.0943
30062OCT     C260124  12.224  18.033   2.706  0.0512  0.1768 -0.0343
30063OCT     C160125  21.247  11.578   4.194  0.1466 -0.1600  0.0423
30063OCT     C260126  20.950  11.392   3.892 -0.2583  0.0261  0.0655
30064OCT     C160127  16.682  15.061  22.323 -0.1907 -0.2213 -0.1249
30064OCT     C260128  16.726  15.437  22.615  0.2377  0.0325 -0.2515
30065OCT     C160129   1.849   6.331  16.980  0.1234 -0.1612  0.5203
30065OCT     C260130   1.483   6.190  16.822  0.2065  0.0432 -0.6476
30066OCT     C160131   6.749   2.506   9.410 -0.3635 -0.0938 -0.0467
30066OCT     C260132   7.179   2.691   9.646 -0.1243 -0.1708 -0.0632
30067OCT     C160133  15.615   0.669  11.167  0.5417  0.1533 -0.0823
30067OCT     C260134  15.669   0.236  10.998  0.1394  0.1454  0.0167
30068OCT     C160135   8.208   8.996  22.165 -0.2212  0.1660 -0.0902
30068OCT     C260136   8.221   9.164  22.609  0.3822  0.0351  0.0943
30069OCT     C160137  20.178  18.168  23.648 -0.1408 -0.2742 -0.1184
30069OCT     C260138  20.551  18.346   0.188  0.1501  0.1258 -0.2612
30070OCT     C160139  15.686  14.459  15.210  0.2139 -0.2377 -0.0223
30070OCT     C260140  15.457  14.299  15.617  0.0366 -0.3322  0.0901
30071OCT     C160141  16.090   1.379  13.962  0.2186  0.0732 -0.2080
30071OCT     C260142  16.114   1.149  13.591 -0.2505 -0.0950  0.2185
30072OCT     C160143  13.759  10.389   5.701 -0.1514  0.1519  0.1141
30072OCT     C260144  13.362  10.186   5.730 -0.0993  0.3216 -0.0761
30073OCT     C160145   5.387   7.225  11.254  0.0437 -0.1614 -0.0154
30073OCT     C260146   5.067   6.965  11.448  0.2809  0.0339 -0.2055
30074OCT     C160147   8.353  10.358   2.435  0.0641 -0.0438  0.0135
30074OCT     C260148   8.445  10.544   2.847  0.1275 -0.1253  0.2188
30075OCT     C160149  10.877  23.507   9.693  0.1931  0.4296 -0.0329
30075OCT     C260150  10.941  23.095   9.869 -0.2633  0.2173  0.1766
30076OCT     C160151  11.958   0.580  20.019 -0.0790 -0.0881 -0.2343
30076OCT     C260152  12.156   0.332  19.709 -0.3182 -0.0913 -0.4017
30077OCT     C160153   6.564   3.180  16.884  0.2119 -0.0917  0.2096
30077OCT     C260154   6.442   3.644  16.877  0.0691 -0.1928  0.2789
30078OCT     C160155   9.750  15.825  10.815  0.2295 -0.2473  0.0596
30078OCT     C260156   9.766  16.256  10.507 -0.1694  0.0662 -0.1308
30079OCT     C160157  19.916   3.518   7.612 -0.1054 -0.3434  0.3407
30079OCT     C260158  20.225   3.849   7.529  0.1402  0.1640  0.4581
30080OCT     C160159   4.143   1.913  14.444 -0.3085 -0.0184  0.1679
30080OCT     C260160   4.333   2.205  14.655  0.1389  0.0312 -0.0757
30081OCT     C160161   9.786  12.007  17.540 -0.1622 -0.2406  0.0150
30081OCT     C260162   9.760  11.527  17.622 -0.0907  0.0259  0.3900
30082OCT     C160163  15.587  10.905   0.388 -0.0962  0.0454  0.1055
30082OCT     C260164  15.747  10.931   0.795  0.1189  0.3693 -0.0217
30083OCT     C160165   6.898   6.352   5.816 -0.0592  0.2913 -0.1866
30083OCT     C260166   6.443   6.612   5.791 -0.0079 -0.0522 -0.1174
30084OCT     C160167  14.089   5.513  23.490 -0.0140 -0.0049 -0.0263
30084OCT     C260168  14.493   5.644  23.409  0.1154 -0.1016 -0.2073
30085OCT     C160169  16.980   2.439  18.568  0.2595  0.0303 -0.0033
30085OCT     C260170  16.935   2.032  18.346 -0.2208  0.0875  0.3379
30086OCT     C160171  10.654  20.588  14.715  0.0045  0.1704 -0.0365
30086OCT     C260172  10.566  20.291  14.997  0.1275  0.3401  0.0056
30087OCT     C160173  10.498  21.825   5.711 -0.0696  0.0745 -0.2983
30087OCT     C260174  10.184  21.940   6.078 -0.1907 -0.1206 -0.3773
30088OCT     C160175   5.749   3.488  16.317 -0.0375  0.0481  0.0434
30088OCT     C260176   6.006   3.416  16.721  0.0255  0.0503 -0.1983
30089OCT     C160177   9.194   1.885   7.015 -0.0697  0.0816  0.0001
30089OCT     C260178   8.778   1.696   7.217  0.0871  0.2426 -0.4839
30090OCT     C160179   4.448   8.111  16.767  0.6022 -0.1103 -0.1563
30090OCT     C260180   4.369   8.493  16.507  0.0043  0.1271 -0.0168
30091OCT     C160181  16.550  14.937   1.234  0.4955  0.0383  0.3769
30091OCT     C260182  16.431  15.147   0.895  0.1547  0.2725 -0.0563
30092OCT     C160183  18.493   7.687   3.920 -0.2713  0.1331  0.1761
30092OCT     C260184  18.212   7.601   4.337  0.5028  0.1546  0.0277
30093OCT     C160185   6.682   7.999  15.888 -0.0934  0.0043  0.3415
30093OCT     C260186   6.401   8.084  15.563 -0.3996 -0.0259  0.0955
30094OCT     C160187  23.244  23.504   1.159  0.0959 -0.2488  0.0457
30094OCT     C260188  23.345  23.072   1.022 -0.3899 -0.0078  0.2482
30095OCT     C160189   1.328   4.592  17.997 -0.3718 -0.2022  0.2039
30095OCT     C260190   1.508   4.360  17.612 -0.1560 -0.2089 -0.0108
30096OCT     C160191   5.344   3.451   4.190  0.1299 -0.2135  0.0723
30096OCT     C260192   5.396   3.055   3.954 -0.2309  0.0075  0.0807
30097OCT     C160193  11.141  18.559   3.571  0.1395 -0.1345 -0.1154
30097OCT     C260194  10.665  18.654   3.454 -0.1431  0.3325  0.0734
30098OCT     C160195  13.248  11.282  13.221 -0.2797 -0.1830 -0.1508
30098OCT     C260196  13.538  10.955  13.424  0.0200 -0.0314  0.1750
30099OCT     C160197   2.711  21.531  23.221 -0.2252  0.2461  0.1084
30099OCT     C260198   3.048  21.608  23.477 -0.0723  0.0840  0.0485
30100OCT     C160199  21.976  18.244   3.492 -0.1589 -0.0783  0.2943
30100OCT     C260200  21.541  18.434   3.567  0.1921  0.1023 -0.1366
30101OCT     C160201  22.848   6.971  10.354 -0.2874 -0.2106 -0.1839
30101OCT     C260202  22.648   6.658  10.653  0.2074  0.1424 -0.1800
30102OCT     C160203  18.453  14.581  17.327 -0.0874  0.1748 -0.0653
30102OCT     C260204  17.991  14.631  17.466  0.0193  0.1501  0.4012
30103OCT     C160205  21.464   7.981   1.859  0.1746  0.0824  0.0614
30103OCT     C260206  21.646   8.332   2.098 -0.1848  0.1086 -0.0349
30104OCT     C160207  16.327  17.228   7.179  0.4770 -0.0971  0.1462
30104OCT     C260208  16.262  17.699   7.089  0.0142  0.1623  0.3078
30105OCT     C160209  18.584   2.030  17.051  0.1735 -0.3262 -0.2771
30105OCT     C260210  18.340   1.878  17.490 -0.1081  0.0678  0.1680
30106OCT     C160211  12.053   4.386   4.299 -0.0729  0.3649 -0.1523
30106OCT     C260212  11.885   4.798   4.276 -0.0929  0.1627  0.0263
30107OCT     C160213  14.300   6.199  13.580 -0.0340  0.0831 -0.1067
30107OCT     C260214  14.055   5.845  13.454 -0.4330  0.2497  0.2067
30108OCT     C160215  18.811   0.232   2.274 -0.2962 -0.0085  0.0106
30108OCT     C260216  19.036   0.285   2.675 -0.2570 -0.2240  0.1075
30109OCT     C160217   8.585   6.008   4.681 -0.1322  0.0791 -0.2124
30109OCT     C260218   8.847   6.383   4.628  0.2422 -0.2128 -0.1239
30110OCT     C160219   0.195   4.355  16.453 -0.1051 -0.2255  0.1322
30110OCT     C260220  23.474   4.184  16.516 -0.1228  0.1641 -0.3012
30111OCT     C160221  22.070  22.202   4.674 -0.3003  0.1293 -0.2190
30111OCT     C260222  21.734  22.558   4.799  0.1412 -0.2104 -0.1584
30112OCT     C160223  10.516   6.042  15.680 -0.1685  0.3079  0.0508
30112OCT     C260224  10.940   5.883  15.656  0.4131 -0.0895 -0.3640
30113OCT     C160225  14.771  12.572  16.924  0.2088  0.1139  0.4018
30113OCT     C260226  14.589  12.280  17.245 -0.0405  0.6786  0.2204
30114OCT     C160227  17.026  18.383   8.464  0.1524  0.1708  0.4512
30114OCT     C260228  17.176  18.697   8.228  0.2418 -0.0349  0.4172
30115OCT     C160229   1.523  16.680   6.058 -0.0267 -0.1074  0.0919
30115OCT     C260230   1.636  16.698   6.530 -0.2055  0.4847  0.0101
30116OCT     C160231  10.560  20.119  12.617 -0.0469 -0.0058 -0.1535
30116OCT     C260232  10.513  19.668  12.712  0.0594  0.0424 -0.3374
30117OCT     C160233   2.723  11.040   0.664  0.1210  0.1383  0.1728
30117OCT     C260234   2.352  11.172   0.909 -0.0748  0.0097  0.0527
30118OCT     C160235  12.976   6.967   6.604 -0.0528  0.1224 -0.1038
30118OCT     C260236  13.316   7.010   6.293  0.0768 -0.3085 -0.2205
30119OCT     C160237   4.500   1.967   8.175  0.0224 -0.0763 -0.0864
30119OCT     C260238   4.127   1.848   8.477  0.2208 -0.0887  0.0007
30120OCT     C160239  17.501  11.566  18.974 -0.0326 -0.1219  0.3429
30120OCT     C260240  17.619  11.871  18.646 -0.2221  0.0143 -0.0698
30121OCT     C160241  18.575   4.211   0.708 -0.0534  0.1471  0.0222
30121OCT     C260242  18.537   4.551   0.402 -0.1759 -0.2005  0.3085
30122OCT     C160243   5.418  21.147   5.168 -0.1464  0.1234  0.3174
30122OCT     C260244   5.466  21.506   4.939  0.0735  0.1420  0.0510
30123OCT     C160245  20.498   9.936   2.619  0.4248 -0.1464  0.0793
30123OCT     C260246  20.145  10.184   2.823  0.0800  0.0040 -0.1157
30124OCT     C160247   9.562   1.768   3.184 -0.0242 -0.0240 -0.1892
30124OCT     C260248   9.178   1.942   3.144  0.0829 -0.0320  0.0401
30125OCT     C160249  11.914  19.881   7.408  0.3093  0.0225  0.0563
30125OCT     C260250  11.515  20.089   7.298  0.0556 -0.1494 -0.0990
30126OCT     C160251  10.804  16.778  22.621  0.0318 -0.5066  0.1820
30126OCT     C260252  10.579  17.170  22.716 -0.0101 -0.0135 -0.1054
30127OCT     C160253   3.598   9.372   7.659 -0.0409  0.2113 -0.0341
30127OCT     C260254   3.671   9.475   7.259 -0.5644 -0.3104  0.2676
30128OCT     C160255   7.911  20.629  12.470 -0.1208  0.2433  0.1811
30128OCT     C260256   7.801  20.364  12.828  0.1755  0.0301 -0.1655
30129OCT     C160257   4.250  17.369  21.849  0.1051 -0.1571 -0.5921
30129OCT     C260258   4.119  17.475  21.410 -0.0928 -0.8710 -0.4840
30130OCT     C160259  13.347   0.716  18.461 -0.1099 -0.2627  0.1346
30130OCT     C260260  12.989   0.872  18.189  0.4864  0.0039  0.1327
30131OCT     C160261   8.796   5.594   4.012  0.1694 -0.2322 -0.0146
30131OCT     C260262   9.210   5.777   3.778  0.2189 -0.1979 -0.1851
30132OCT     C160263  17.888  16.908  17.937 -0.3415 -0.0208 -0.0576
30132OCT     C260264  18.139  16.662  18.193  0.0362  0.0209  0.0450
30133OCT     C160265  15.405  11.143  19.005 -0.2856 -0.1241 -0.1283
30133OCT     C260266  15.896  11.277  19.119 -0.4280 -0.3056 -0.0355
30134OCT     C160267   1.935   7.731  15.460  0.3265  0.4537 -0.0651
30134OCT     C260268   2.025   8.014  15.857  0.2092  0.0662 -0.1224
30135OCT     C160269   1.173   2.067  10.348 -0.0396  0.3508 -0.0683
30135OCT     C260270   1.463   2.407  10.407  0.2991  0.3157 -0.1087
30136OCT     C160271   9.351   2.606  14.429 -0.2839  0.1019  0.4626
30136OCT     C260272   9.347   3.037  14.545 -0.1474 -0.2265 -0.0602
30137OCT     C160273   1.658  17.028   7.571 -0.1015  0.0028  0.2093
30137OCT     C260274   1.893  16.597   7.492  0.2239 -0.3563  0.0773
30138OCT     C160275  11.065   4.802  11.208 -0.0343  0.2425  0.0183
30138OCT     C260276  10.884   4.888  11.628  0.0115 -0.2355  0.3121
30139OCT     C160277  18.426  13.615  16.474 -0.0306 -0.3988 -0.3334
30139OCT     C260278  18.324  13.200  16.550  0.3286 -0.0143 -0.0441
30140OCT     C160279  22.948  23.558   0.749 -0.1897  0.2157 -0.3503
30140OCT     C260280  23.165   0.245   0.883 -0.0857 -0.1190  0.0474
30141OCT     C160281  15.610  21.390   8.115 -0.2230  0.1510  0.0174
30141OCT     C260282  15.646  21.723   7.772  0.3194  0.1898 -0.0997
30142OCT     C160283  12.836  19.818  19.153 -0.1628 -0.2189  0.3187
30142OCT     C260284  12.943  19.603  19.560 -0.0708 -0.2426  0.0449
30143OCT     C160285  15.594   1.488  20.668  0.1441 -0.0996 -0.2184
30143OCT     C260286  15.787   1.726  20.326 -0.1997  0.1692  0.0078
30144OCT     C160287   0.672  23.323  11.763  0.2380 -0.0943 -0.1680
30144OCT     C260288   0.836  23.705  11.847  0.2643 -0.0618 -0.1398
30145OCT     C160289  23.063  22.857  18.665  0.0270  0.2584 -0.2340
30145OCT     C260290  22.923  23.298  18.800 -0.1179 -0.0000  0.2044
30146OCT     C160291  13.756   6.537   3.133  0.0831 -0.2023 -0.1193
30146OCT     C260292  14.090   6.250   3.335 -0.2958  0.0953  0.0579
30147OCT     C160293   5.596  11.509   3.551  0.4718  0.1935 -0.0909
30147OCT     C260294   5.481  11.465   3.952  0.3230 -0.0302 -0.1043
30148OCT     C160295   6.846   3.163  10.610 -0.0379 -0.0662  0.4237
30148OCT     C260296   6.916   3.247  10.162  0.1486  0.2163  0.7703
30149OCT     C160297  22.660  19.790  13.609 -0.2511 -0.1371 -0.2946
30149OCT     C260298  22.501  20.256  13.605 -0.4717 -0.1845 -0.2494
30150OCT     C160299  19.902  20.378   1.395  0.1029  0.1492  0.1056
30150OCT     C260300  19.697  20.762   1.256  0.2288  0.2196 -0.1360
30151OCT     C160301  16.437  23.335   8.919 -0.0999 -0.2064  0.1058
30151OCT     C260302  16.459  22.924   8.685 -0.3312 -0.0537  0.0738
30152OCT     C160303  21.070   3.103  23.375  0.1675  0.2685 -0.2916
30152OCT     C260304  20.767   3.278  23.050 -0.1768 -0.0354 -0.1243
30153OCT     C160305  23.685   3.253  12.941 -0.4986 -0.0600  0.0021
30153OCT     C260306   0.292   3.225  13.240  0.5000  0.1366  0.1229
30154OCT     C160307   2.591  11.891  20.857  0.2417  0.2240  0.1206
30154OCT     C260308   2.366  12.200  20.546 -0.2256 -0.1006 -0.0985
30155OCT     C160309   6.207  15.729  22.046  0.1949  0.0247  0.0118
30155OCT     C260310   6.503  15.797  22.409 -0.1320  0.0729 -0.1912
30156OCT     C160311   6.187   1.627   9.847  0.1037 -0.3234  0.1087
30156OCT     C260312   6.589   1.533   9.613  0.2196 -0.2646  0.0048
30157OCT     C160313  15.331  20.975  18.463  0.1583  0.2931 -0.2037
30157OCT     C260314  15.388  20.700  18.834  0.0340 -0.2746 -0.4192
30158OCT     C160315  23.234   9.227   7.747 -0.4506  0.4195 -0.1416
30158OCT     C260316  23.554   9.445   8.044 -0.0516  0.0458  0.6666
30159OCT     C160317  18.258   0.264   1.287 -0.1000  0.1417 -0.0064
30159OCT     C260318  18.481   0.469   0.950  0.0390 -0.1587 -0.0755
30160OCT     C160319  13.547  13.162   5.962 -0.0453 -0.2084  0.2765
30160OCT     C260320  13.252  12.813   6.061 -0.0591 -0.1989  0.0215
30161OCT     C160321   1.466  22.071   1.965 -0.3495 -0.3861 -0.2408
30161OCT     C260322   1.050  22.018   2.070 -0.0931 -0.0700  0.2946
30162OCT     C160323  19.251  22.680   7.750  0.2483 -0.0006  0.2396
30162OCT     C260324  19.128  22.214   7.827  0.0265 -0.0292  0.1703
30163OCT     C160325  21.375  19.693   6.610 -0.1967  0.1835 -0.0654
30163OCT     C260326  21.459  19.833   6.181 -0.2062 -0.0958  0.0853
30164OCT     C160327   3.225   0.656   0.632 -0.0721  0.1921  0.1134
30164OCT     C260328   3.344   0.180   0.731  0.1757 -0.1743  0.1018
30165OCT     C160329  17.757   4.434   0.922 -0.0288  0.0976  0.1846
30165OCT     C260330  18.042   4.184   0.671  0.1376  0.0349 -0.0428
30166OCT     C160331  13.934   0.042   9.225 -0.0252  0.1010  0.0812
30166OCT     C260332  13.651   0.296   8.926  0.0578 -0.0953  0.1642
30167OCT     C160333   5.722  21.407   4.068 -0.1083 -0.2109 -0.0899
30167OCT     C260334   5.994  21.584   4.375 -0.2721  0.4323  0.0110
30168OCT     C160335  16.950   8.047  23.478 -0.1049  0.2797  0.0942
30168OCT     C260336  16.560   8.347  23.574  0.4624 -0.1541  0.1490
30169OCT     C160337  21.796   2.783   1.516 -0.1544 -0.1785  0.1426
30169OCT     C260338  21.964   3.128   1.769 -0.1288  0.1651 -0.1136
30170OCT     C160339   6.833  22.398  13.412  0.2691 -0.3540 -0.0367
30170OCT     C260340   6.816  21.976  13.650 -0.0817 -0.2066  0.1481
30171OCT     C160341   8.505   9.703  14.577 -0.1054  0.4889 -0.0343
30171OCT     C260342   8.828   9.463  14.293  0.4475  0.0100 -0.2814
30172OCT     C160343  22.790  16.426  10.893 -0.1561 -0.0615 -0.2694
30172OCT     C260344  23.194  16.438  11.106  0.2526 -0.2657 -0.0904
30173OCT     C160345   9.295   2.257   0.382 -0.2062 -0.1568  0.1794
30173OCT     C260346   8.923   2.063   0.270 -0.0866  0.2444 -0.0903
30174OCT     C160347   2.900   4.477  10.905  0.0133  0.0871 -0.2048
30174OCT     C260348   2.697   4.482  10.539 -0.1536  0.2717  0.2649
30175OCT     C160349  10.186   1.274   4.090  0.1812 -0.2268  0.2992
30175OCT     C260350  10.331   1.296   4.547 -0.1876  0.3372 -0.5240
30176OCT     C160351   7.217  11.924   2.552  0.3447  0.1280 -0.2377
30176OCT     C260352   7.412  11.731   2.957  0.1233 -0.2595 -0.2785
30177OCT     C160353  23.278   3.052  23.017 -0.0943  0.0955 -0.2585
30177OCT     C260354  23.631   2.922  23.226  0.2598 -0.1048 -0.4585
30178OCT     C160355  21.204  23.270  11.772 -0.1813  0.1684 -0.1060
30178OCT     C260356  21.058  23.514  12.095  0.1687 -0.3583  0.0569
30179OCT     C160357  21.781  13.240  14.168  0.2657 -0.3419 -0.2908
30179OCT     C260358  21.857  13.496  13.804  0.1052 -0.0394  0.3049
30180OCT     C160359  18.937  17.382   7.460 -0.2739  0.2093  0.0440
30180OCT     C260360  19.277  17.705   7.496  0.2654 -0.0879  0.2681
30181OCT     C160361  18.959   4.126  22.779  0.3562 -0.2730  0.0164
30181OCT     C260362  18.601   4.318  22.484 -0.1588  0.0985 -0.0628
30182OCT     C160363  22.714   0.671   0.045 -0.1444 -0.0952 -0.0985
30182OCT     C260364  22.951   0.264  23.679  0.2485 -0.0214  0.2260
30183OCT     C160365   9.019  18.345  12.362  0.0712  0.1018 -0.2871
30183OCT     C260366   9.464  18.227  12.310  0.2733  0.0515  0.1321
30184OCT     C160367  19.395  19.509  18.894  0.1244  0.2803  0.1204
30184OCT     C260368  19.221  19.207  19.177 -0.2721  0.2588  0.3036
30185OCT     C160369   2.555   5.253  19.510 -0.3728  0.1198 -0.1037
30185OCT     C260370   2.469   4.815  19.355 -0.2103 -0.2376 -0.0853
30186OCT     C160371   3.310   5.500  16.007 -0.2278  0.0891  0.1892
30186OCT     C260372   2.877   5.504  15.917  0.0818  0.1671  0.1898
30187OCT     C160373   4.178  17.973  20.645  0.0544  0.1816  0.0028
30187OCT     C260374   4.629  17.812  20.707 -0.5032  0.3938  0.0724
30188OCT     C160375   9.627   8.673   1.919  0.0055 -0.1382  0.1261
30188OCT     C260376   9.309   8.535   1.604 -0.3771  0.0732  0.1414
30189OCT     C160377  21.790  13.936   7.848  0.0138  0.2162 -0.0535
30189OCT     C260378  21.995  14.254   7.571  0.1254  0.1709 -0.2069
30190OCT     C160379   7.177   6.815  10.427  0.1534  0.0829  0.1059
30190OCT     C260380   6.867   6.840  10.744  0.3851  0.0718 -0.2174
30191OCT     C160381  20.258   4.495  23.465 -0.1988 -0.1801  0.5076
30191OCT     C260382  19.875   4.216  23.344 -0.1235 -0.0536 -0.1074
30192OCT     C160383  15.827  15.831   6.606  0.0505 -0.2291  0.1407
30192OCT     C260384  16.263  15.915   6.589  0.1728  0.0001  0.0306
30193OCT     C160385  23.389   2.503   4.611 -0.2952  0.2087  0.4308
30193OCT     C260386  23.032   2.315   4.360 -0.2394 -0.1838 -0.1106
30194OCT     C160387  13.810  11.745  19.643  0.3651  0.0676  0.1666
30194OCT     C260388  13.688  11.885  20.086 -0.0402 -0.2423 -0.0330
30195OCT     C160389  20.208   9.579   7.706 -0.2422  0.1533 -0.2270
30195OCT     C260390  20.597   9.793   7.787  0.2530  0.1498  0.4411
30196OCT     C160391   0.905  17.444   2.460 -0.2585 -0.0053 -0.1395
30196OCT     C260392   0.747  17.274   2.097 -0.0157  0.1672  0.3964
30197OCT     C160393   0.870   9.991  14.460  0.0700 -0.0282 -0.0441
30197OCT     C260394   0.867   9.726  14.069 -0.1673  0.0930 -0.1725
30198OCT     C160395  20.913  18.137  14.188 -0.1263  0.1022  0.0523
30198OCT     C260396  20.727  18.270  13.797  0.2024 -0.3255 -0.0262
30199OCT     C160397   1.693  20.436  21.422  0.1252  0.0366  0.0856
30199OCT     C260398   1.289  20.693  21.449 -0.1390  0.0159  0.3476
30200OCT     C160399  11.972   8.952   2.729 -0.1638 -0.0185 -0.0846
30200OCT     C260400  11.830   9.358   2.881  0.0153 -0.0152 -0.0693
30201OCT     C160401  14.528  21.223  12.025  0.0142 -0.1153  0.1758
30201OCT     C260402  14.124  21.068  11.791  0.0223  0.1656  0.0280
30202OCT     C160403   7.467   5.135   4.963 -0.1250 -0.0043  0.1363
30202OCT     C260404   7.495   5.516   4.650  0.1825 -0.0426 -0.1007
30203OCT     C160405  18.193  10.782  12.790  0.0936 -0.2709  0.1796
30203OCT     C260406  18.226  10.608  12.350  0.0117 -0.1375 -0.0920
30204OCT     C160407  17.638   5.923   2.068 -0.0297  0.2135  0.0991
30204OCT     C260408  17.410   5.732   1.692 -0.2229  0.3615  0.0131
30205OCT     C160409  21.370  18.936  21.832 -0.3489  0.2664  0.1564
30205OCT     C260410  21.585  19.386  21.777 -0.2157  0.0127  0.2126
30206OCT     C160411   9.968   8.649  17.741 -0.1554  0.2541  0.2122
30206OCT     C260412  10.361   8.500  17.974  0.1249 -0.1312 -0.1094
30207OCT     C160413   1.294   7.146   2.446  0.0106  0.1292 -0.0520
30207OCT     C260414   1.702   7.314   2.597  0.2242  0.1696 -0.1282
30208OCT     C160415  19.852   3.173   4.039 -0.1496 -0.2381 -0.2104
30208OCT     C260416  19.847   3.508   4.332  0.3989 -0.1160 -0.3986
30209OCT     C160417  16.777   9.217  21.388  0.1445  0.3685 -0.0232
30209OCT     C260418  16.938   9.464  21.719 -0.2217  0.2976  0.0672
30210OCT     C160419  13.006  10.346  19.033 -0.1545 -0.0453  0.1251
30210OCT     C260420  12.554  10.499  18.983 -0.0748  0.0886 -0.3287
30211OCT     C160421   2.045  16.892   5.317 -0.3257  0.0655  0.1619
30211OCT     C260422   1.818  17.132   4.975 -0.1404  0.1526  0.0455
30212OCT     C160423   8.826  21.181  12.378 -0.0122 -0.0285  0.0508
30212OCT     C260424   8.493  21.383  12.108 -0.1897  0.2803  0.1261
30213OCT     C160425   2.133  15.582   9.212 -0.3041 -0.0755 -0.2668
30213OCT     C260426   1.881  16.001   9.199 -0.2016  0.0731  0.2672
30214OCT     C160427   5.071  21.185  16.979 -0.1387  0.0132 -0.0969
30214OCT     C260428   4.859  21.391  17.347  0.1405  0.0147  0.0603
30215OCT     C160429  17.761  14.859   6.888 -0.1616  0.1041 -0.6842
30215OCT     C260430  18.036  14.509   6.793 -0.0798  0.0897  0.2845
30216OCT     C160431  18.531  21.264  11.318 -0.0902  0.3210  0.2624
30216OCT     C260432  18.247  21.048  11.620  0.0398  0.2528 -0.1346
30217OCT     C160433  22.855  17.375   3.457  0.0585 -0.0187  0.1609
30217OCT     C260434  22.411  17.341   3.456  0.4050 -0.0333 -0.1028
30218OCT     C160435  19.905   7.380  22.596 -0.0149 -0.2640  0.1793
30218OCT     C260436  19.975   7.807  22.664  0.1958  0.1197 -0.0596
30219OCT     C160437  19.500   6.911  16.249 -0.0370  0.1855 -0.1157
30219OCT     C260438  19.401   7.290  16.505 -0.2288 -0.0960  0.0162
30220OCT     C160439  15.104  19.115   0.354 -0.2320  0.1399 -0.0605
30220OCT     C260440  14.788  19.246   0.032  0.4863 -0.0431 -0.0839
30221OCT     C160441   6.554   8.568   2.342  0.1445 -0.0363  0.3234
30221OCT     C260442   6.481   8.132   2.171 -0.0855 -0.1205 -0.0314
30222OCT     C160443  10.207  19.965  14.727  0.2009  0.3438  0.3725
30222OCT     C260444  10.074  20.152  14.306 -0.0204 -0.0386 -0.4323
30223OCT     C160445  21.837   1.611  13.675  0.2088 -0.0402  0.2912
30223OCT     C260446  22.218   1.856  13.513  0.2254  0.1831  0.2689
30224OCT     C160447  20.689   3.421  23.552 -0.2816  0.3648 -0.0030
30224OCT     C260448  20.632   3.371   0.289  0.1892 -0.3108  0.2275
30225OCT     C160449   3.427  21.427   5.830  0.0450  0.3014 -0.2247
30225OCT     C260450   3.152  21.039   5.805 -0.0704  0.1907 -0.0411
30226OCT     C160451  23.124  15.699  19.439  0.1455  0.0333 -0.2180
30226OCT     C260452  23.284  15.236  19.463 -0.0344 -0.0628 -0.0604
30227OCT     C160453  18.955   4.798  10.330 -0.3978 -0.1676 -0.0957
30227OCT     C260454  18.932   4.900   9.858  0.0945 -0.2128  0.0402
30228OCT     C160455   4.568  23.225   4.115  0.0788 -0.2989  0.0560
30228OCT     C260456   4.506  22.737   4.080 -0.3038  0.0623  0.1432
30229OCT     C160457  13.149  14.661  18.760 -0.2673  0.1202 -0.3955
30229OCT     C260458  12.971  14.624  18.344 -0.1743  0.0505  0.0385
30230OCT     C160459  16.126   1.603   7.947  0.0829  0.0089  0.0835
30230OCT     C260460  15.930   1.756   8.305 -0.4401 -0.1325  0.2832
30231OCT     C160461  23.301   5.813   2.577  0.1153  0.0089 -0.1579
30231OCT     C260462  23.640   5.534   2.676 -0.0544  0.0061 -0.0860
30232OCT     C160463  21.590  10.875  11.070 -0.0624 -0.6372  0.2509
30232OCT     C260464  21.171  10.824  10.988 -0.0701  0.0630  0.3528
30233OCT     C160465   7.483   6.339  13.016  0.0338 -0.0341  0.2724
30233OCT     C260466   7.448   6.053  12.668 -0.6431 -0.2051  0.1122
30234OCT     C160467  18.116   8.492  15.449 -0.0857  0.1968 -0.1639
30234OCT     C260468  17.970   8.051  15.534  0.0793 -0.2223  0.3650
30235OCT     C160469   0.036   1.448  14.996 -0.1180 -0.1429 -0.0331
30235OCT     C260470   0.331   1.724  14.815  0.0193 -0.2267 -0.0075
30236OCT     C160471   8.444  11.185  19.925 -0.0352  0.1575  0.3670
30236OCT     C260472   8.236  11.362  19.520  0.2340 -0.0774  0.2085
30237OCT     C160473   5.342  21.995   4.153 -0.1611  0.2512 -0.0889
30237OCT     C260474   5.721  22.052   3.950  0.2603 -0.3307  0.1943
30238OCT     C160475  21.413  22.000   8.364 -0.0471 -0.3131  0.2018
30238OCT     C260476  21.424  21.810   7.974 -0.2304 -0.1603  0.0499
30239OCT     C160477  20.382   1.483   9.859 -0.2768  0.0248 -0.0386
30239OCT     C260478  20.469   1.060  10.070  0.5052  0.0376 -0.0711
30240OCT     C160479  17.181   8.728  13.706  0.1812 -0.0888 -0.1071
30240OCT     C260480  17.497   8.495  13.989  0.1125  0.1416 -0.2703
30241OCT     C160481  21.556   6.451  15.963 -0.3000 -0.0267  0.2109
30241OCT     C260482  21.524   6.878  15.953  0.1443 -0.3144  0.0281
30242OCT     C160483   0.741   5.340  19.097  0.0736 -0.1486 -0.0896
30242OCT     C260484   1.116   5.096  18.917  0.0228  0.0670 -0.0764
30243OCT     C160485  17.245  13.202   8.993  0.2585  0.2417 -0.2198
30243OCT     C260486  16.833  13.020   8.894  0.1730 -0.3109 -0.3300
30244OCT     C160487  19.956   2.155   9.930  0.1623 -0.5201 -0.2147
30244OCT     C260488  19.640   2.208  10.256 -0.4627  0.0903  0.0559
30245OCT     C160489  20.633   9.983   4.181 -0.3125  0.1695  0.0671
30245OCT     C260490  20.850   9.648   3.927 -0.0534  0.2535  0.0435
30246OCT     C160491  15.520  18.010   9.385  0.1799  0.2058  0.1768
30246OCT     C260492  15.737  17.947   9.742 -0.1098 -0.0177 -0.0840
30247OCT     C160493   7.099  23.175   9.566  0.1996 -0.2706 -0.1832
30247OCT     C260494   7.187  22.796   9.790  0.0021 -0.0630 -0.1222
30248OCT     C160495   2.714   7.958   2.782 -0.0397 -0.3309  0.2547
30248OCT     C260496   2.867   8.020   2.333  0.3066 -0.2610  0.0480
30249OCT     C160497  21.943   8.963   9.645  0.0196 -0.2561  0.1089
30249OCT     C260498  22.013   9.120   9.207 -0.2850 -0.2190 -0.4939
30250OCT     C160499  14.381   4.268   5.051  0.1008  0.1564  0.1391
30250OCT     C260500  14.592   4.692   4.959 -0.2127 -0.0218 -0.0564
30251OCT     C160501  11.857   0.362  11.214 -0.2022 -0.1544 -0.3409
30251OCT     C260502  11.416   0.494  11.336 -0.0038  0.2183  0.0621
30252OCT     C160503  10.563   9.890  17.043 -0.0249 -0.0875 -0.2120
30252OCT     C260504  10.325  10.089  16.650 -0.3882 -0.0699 -0.2293
30253OCT     C160505   5.793  22.425  19.617 -0.0376 -0.1970 -0.2714
30253OCT     C260506   5.578  22.735  19.848  0.1891  0.2761 -0.3180
30254OCT     C160507  21.886   0.316  18.739 -0.0150  0.5248 -0.0457
30254OCT     C260508  21.740  23.657  18.977 -0.0846  0.4263  0.2481
30255OCT     C160509   2.472  15.506  14.903 -0.0645  0.1017  0.0012
30255OCT     C260510   2.543  15.256  14.486 -0.3711 -0.1166 -0.0890
30256OCT     C160511   3.123  13.991  21.551 -0.5352 -0.2700  0.0577
30256OCT     C260512   3.191  13.547  21.346  0.1110 -0.0203  0.1592
30257OCT     C160513  14.576   3.254  17.391  0.2468 -0.0329  0.1800
30257OCT     C260514  14.313   3.597  17.237  0.2797  0.0111 -0.1710
30258OCT     C160515  12.992  12.632   9.343  0.2051  0.2051 -0.2307
30258OCT     C260516  12.820  12.204   9.475 -0.0041 -0.0828  0.1565
30259OCT     C160517   3.587   9.968   0.831  0.2516  0.4013  0.2516
30259OCT     C260518   3.548   9.960   1.326  0.2940 -0.1433  0.0174
30260OCT     C160519  10.602  10.584   9.944  0.2206 -0.0501 -0.0066
30260OCT     C260520  10.923  10.938  10.039  0.2474 -0.1749  0.1327
30261OCT     C160521  10.757   6.537   0.635 -0.1659 -0.1041  0.0154
30261OCT     C260522  11.229   6.622   0.578  0.0629 -0.2870 -0.1722
30262OCT     C160523   1.594  17.377  13.235 -0.0442 -0.1073  0.0236
30262OCT     C260524   1.311  17.391  12.897  0.1601 -0.2549 -0.1947
30263OCT     C160525   1.731   9.707  22.092 -0.0584 -0.0709  0.0723
30263OCT     C260526   1.754   9.602  22.564  0.0907  0.1600 -0.2934
30264OCT     C160527   1.954  20.256  17.897  0.2276  0.1267  0.0222
30264OCT     C260528   2.223  19.932  18.089 -0.0654 -0.0298 -0.2110
30265OCT     C160529  20.313  14.084  12.604 -0.1367  0.0337 -0.0037
30265OCT     C260530  20.609  13.812  12.396  0.3016 -0.0360  0.1302
30266OCT     C160531   4.408   1.568   4.432 -0.1844  0.0428 -0.1087
30266OCT     C260532   4.367   1.921   4.094  0.0193  0.3436 -0.0299
30267OCT     C160533   6.293  18.022  20.920  0.0210 -0.2192  0.0558
30267OCT     C260534   6.220  18.077  20.468 -0.0038  0.2345 -0.0954
30268OCT     C160535  19.945   6.145  14.333  0.0870  0.3594  0.2715
30268OCT     C260536  19.555   6.374  14.184 -0.0788  0.1474 -0.0677
30269OCT     C160537  22.410  23.535  17.239 -0.1472  0.2361 -0.2248
30269OCT     C260538  22.835  23.479  17.383 -0.1296  0.2060  0.3402
30270OCT     C160539  17.817   2.071  19.662 -0.0437 -0.1054  0.4581
30270OCT     C260540  17.694   1.627  19.507 -0.0173  0.0794  0.2314
30271OCT     C160541  10.332  10.829   0.715 -0.0449 -0.3434 -0.0663
30271OCT     C260542  10.421  11.292   0.804 -0.3376  0.1170  0.1136
30272OCT     C160543   6.349   8.676  13.601 -0.0654  0.4557  0.2897
30272OCT     C260544   6.071   8.926  13.307 -0.0380 -0.0016  0.1703
30273OCT     C160545  13.296   9.739  10.595  0.1924 -0.2627 -0.1817
30273OCT     C260546  13.434   9.321  10.745 -0.0624  0.0864  0.0222
30274OCT     C160547  22.093   5.004  11.279 -0.0864 -0.0445 -0.0072
30274OCT     C260548  21.629   4.880  11.088 -0.2016  0.0986 -0.1940
30275OCT     C160549  16.797  12.308  20.211  0.2308  0.0491  0.1794
30275OCT     C260550  16.685  12.690  20.492 -0.0916  0.0961  0.1051
30276OCT     C160551  12.159   5.893   3.670  0.0040 -0.0009 -0.1832
30276OCT     C260552  12.226   5.719   3.205 -0.2632  0.3022 -0.1414
30277OCT     C160553   8.744  12.635  16.514  0.0265 -0.1422 -0.1186
30277OCT     C260554   8.500  12.878  16.890  0.2991 -0.0756 -0.2174
30278OCT     C160555  13.573   4.064  17.442 -0.2858 -0.2289  0.2022
30278OCT     C260556  13.842   4.499  17.437 -0.0349 -0.1367 -0.1385
30279OCT     C160557   6.151   8.763   6.020  0.1306  0.0612  0.0958
30279OCT     C260558   6.323   9.071   6.320  0.0947 -0.1623  0.1060
30280OCT     C160559  18.678   0.528  18.305 -0.1851 -0.1420  0.0527
30280OCT     C260560  18.766   0.088  18.351 -0.1002 -0.0771  0.1007
30281OCT     C160561  19.138  22.951  10.432 -0.5060 -0.3271 -0.0344
30281OCT     C260562  18.740  22.675  10.466 -0.2558 -0.0834  0.3248
30282OCT     C160563   3.021  21.227  19.323 -0.0982  0.1636 -0.1460
30282OCT     C260564   3.417  20.948  19.339 -0.2547 -0.0948 -0.2019
30283OCT     C160565  22.029   1.059   1.252 -0.2482 -0.0141  0.0387
30283OCT     C260566  21.546   1.160   1.096 -0.3268  0.0644 -0.1159
30284OCT     C160567  22.870  18.288  23.037  0.1302  0.0846  0.2160
30284OCT     C260568  23.253  18.029  22.955 -0.2248 -0.3761 -0.2017
30285OCT     C160569  13.296  14.319   4.988 -0.2173  0.1098 -0.0775
30285OCT     C260570  13.454  14.532   4.637  0.1819 -0.2990  0.1893
30286OCT     C160571   6.380   6.279   6.959  0.4425 -0.1324  0.0478
30286OCT     C260572   6.796   6.282   7.178  0.2095  0.0207  0.1426
30287OCT     C160573  16.987   2.439  14.474 -0.2400  0.1913  0.1969
30287OCT     C260574  17.429   2.544  14.687 -0.5207 -0.3859 -0.2308
30288OCT     C160575  20.684  22.817  19.477  0.0319 -0.1377 -0.2288
30288OCT     C260576  21.111  22.799  19.662 -0.1114  0.0062  0.4914
30289OCT     C160577   3.037  10.536  19.923 -0.2744 -0.1111  0.1490
30289OCT     C260578   3.102  10.921  20.182 -0.3108 -0.2756  0.1203
30290OCT     C160579  18.519  17.761  21.543 -0.3447  0.0822  0.2617
30290OCT     C260580  18.284  17.580  21.181 -0.2223 -0.3110 -0.1595
30291OCT     C160581  14.413   7.785  10.394 -0.2443 -0.1468  0.0935
30291OCT     C260582  14.859   7.747  10.517  0.4498  0.0212 -0.2352
30292OCT     C160583   3.776   8.195  14.131 -0.0224  0.4516 -0.2262
30292OCT     C260584   3.894   7.739  14.002  0.1087 -0.0467 -0.2718
30293OCT     C160585   7.723  19.552  18.257 -0.1434  0.0344 -0.2032
30293OCT     C260586   7.639  19.186  18.541 -0.1749 -0.2930 -0.3215
30294OCT     C160587   3.909  21.424  11.568 -0.4203 -0.3472 -0.3912
30294OCT     C260588   3.668  21.570  11.178  0.0508 -0.1715 -0.1951
30295OCT     C160589  10.497  20.126   8.454  0.1800 -0.3100  0.1517
30295OCT     C260590  10.682  19.923   8.786  0.0877  0.0135  0.1288
30296OCT     C160591  23.002   0.598   0.463 -0.0135 -0.2524  0.2150
30296OCT     C260592  22.749   0.165   0.421  0.2346 -0.1478 -0.2940
30297OCT     C160593   4.921   8.267  19.690  0.0257  0.3354 -0.3802
30297OCT     C260594   5.305   8.054  19.785 -0.0917  0.2179  0.0418
30298OCT     C160595   3.850   2.172   1.423  0.1529 -0.1019  0.2895
30298OCT     C260596   3.798   2.277   1.899 -0.1529  0.0366 -0.0626
30299OCT     C160597   4.563   1.027   1.767  0.1738  0.1455  0.2817
30299OCT     C260598   4.660   0.811   2.173 -0.2693  0.1339 -0.0301
30300OCT     C160599   0.927   0.900  23.601 -0.0284 -0.0202 -0.4257
30300OCT     C260600   1.384   0.846  23.476 -0.3232 -0.0245  0.5303
30301OCT     C160601   7.629  19.141  10.416 -0.2061 -0.0015  0.0041
30301OCT     C260602   7.196  19.183  10.448  0.2415  0.0340 -0.0735
30302OCT     C160603  14.116  13.077   5.789 -0.0176  0.1756  0.0500
30302OCT     C260604  13.914  12.821   5.475  0.4454 -0.0797  0.0584
30303OCT     C160605   2.493  16.361  17.569  0.5236  0.0601  0.1896
30303OCT     C260606   2.028  16.491  17.538 -0.3014 -0.2995 -0.2237
30304OCT     C160607   6.924   4.722  12.884 -0.3825  0.2026 -0.0557
30304OCT     C260608   7.040   5.158  12.726 -0.3274 -0.1792 -0.1186
30305OCT     C160609  22.112  14.136   6.929  0.0088 -0.5991 -0.3542
30305OCT     C260610  22.388  14.363   7.247 -0.1180  0.0510 -0.2177
30306OCT     C160611  20.819   2.253  21.634  0.0645 -0.0128  0.2568
30306OCT     C260612  20.641   1.840  21.860 -0.1685 -0.0279 -0.0140
30307OCT     C160613   6.919  19.431  11.995 -0.3663 -0.3712  0.1962
30307OCT     C260614   6.593  19.684  12.144  0.2285 -0.1049 -0.0559
30308OCT     C160615   1.821  19.927  12.932  0.5146  0.0804  0.0605
30308OCT     C260616   1.435  20.184  12.877 -0.0857  0.2631 -0.1713
30309OCT     C160617  11.309  20.665   1.862 -0.1309 -0.5877 -0.0062
30309OCT     C260618  11.399  20.983   2.187 -0.1929  0.0074  0.1755
30310OCT     C160619   7.951  13.970   1.739  0.1107 -0.0028 -0.0542
30310OCT     C260620   8.146  13.841   2.136  0.1091  0.1451  0.1542
30311OCT     C160621   6.686  10.296  12.088 -0.1602  0.1512  0.2264
30311OCT     C260622   6.471   9.858  11.995 -0.4373 -0.1443 -0.4491
30312OCT     C160623  23.107  21.525  12.056  0.3603  0.1851 -0.0441
30312OCT     C260624  23.267  21.607  12.504 -0.1548 -0.1251 -0.1683
30313OCT     C160625  14.762   6.190   8.003  0.4193  0.0591  0.0656
30313OCT     C260626  14.730   6.655   8.009  0.1777  0.3018  0.0646
30314OCT     C160627  21.970   4.222  12.097 -0.2863  0.4230 -0.0496
30314OCT     C260628  21.669   4.113  11.711 -0.3504 -0.4599 -0.1442
30315OCT     C160629  22.864  22.201   2.891  0.1795  0.0166 -0.0133
30315OCT     C260630  22.997  22.488   2.537 -0.0070  0.3085  0.0369
30316OCT     C160631   6.292   9.508  13.089  0.0360 -0.4553  0.2173
30316OCT     C260632   6.450   9.327  13.471 -0.3096  0.0425  0.1758
30317OCT     C160633  11.386  23.586  18.530  0.2949  0.1481 -0.1829
30317OCT     C260634  11.335   0.317  18.516 -0.1494 -0.1012 -0.2539
30318OCT     C160635   2.123  20.707  18.405  0.1118  0.2144  0.2254
30318OCT     C260636   2.336  20.280  18.460  0.0617 -0.2443 -0.0598
30319OCT     C160637  14.904  15.747  13.145 -0.3326 -0.0445 -0.3143
30319OCT     C260638  14.948  16.125  13.437  0.3585 -0.0461 -0.2241
30320OCT     C160639  21.063  18.430  13.414 -0.2039 -0.1306  0.2118
30320OCT     C260640  21.529  18.343  13.366 -0.0373 -0.3635  0.0997
30321OCT     C160641  20.012  22.739   5.779 -0.1920  0.5734 -0.0742
30321OCT     C260642  20.115  22.977   5.386  0.0395 -0.0380 -0.0687
30322OCT     C160643   5.771  17.572  21.570  0.1724  0.1242 -0.2514
30322OCT     C260644   5.923  17.242  21.247  0.0797 -0.1347  0.3321
30323OCT     C160645  15.742  19.155   1.519  0.1391 -0.0229  0.2717
30323OCT     C260646  15.990  19.468   1.742 -0.2520  0.1917 -0.2395
30324OCT     C160647  14.630   6.528   7.303 -0.2619  0.0228 -0.3406
30324OCT     C260648  14.893   6.846   7.419  0.0012  0.0315  0.0798
30325OCT     C160649  14.890  16.508  15.811  0.0476  0.4841 -0.1050
30325OCT     C260650  15.097  16.746  15.457 -0.1486 -0.0260  0.1249
30326OCT     C160651  11.408  18.886   2.700  0.6335 -0.1482  0.1364
30326OCT     C260652  11.668  18.759   2.383  0.1750  0.1115 -0.1693
30327OCT     C160653   2.414   8.893   6.822  0.0263 -0.1051  0.4322
30327OCT     C260654   2.748   9.190   6.648  0.0980  0.0098 -0.3169
30328OCT     C160655   2.455  16.036   2.175  0.2346 -0.3319 -0.2938
30328OCT     C260656   2.651  16.415   2.039  0.3823 -0.1156  0.0399
30329OCT     C160657   7.818   2.634  15.484  0.0774 -0.0452 -0.0574
30329OCT     C260658   7.844   2.846  15.034 -0.0398  0.2720  0.0115
30330OCT     C160659  13.149  15.706   4.046 -0.3864  0.2877  0.2017
30330OCT     C260660  13.181  16.164   4.151  0.4263  0.2846 -0.2710
30331OCT     C160661   8.489   4.653  19.613  0.0628  0.1998  0.0591
30331OCT     C260662   8.707   4.935  19.920 -0.2447  0.0025  0.1852
30332OCT     C160663  22.575   6.242  22.924 -0.1106 -0.0497 -0.2121
30332OCT     C260664  22.334   6.238  22.573  0.2632 -0.0331  0.0179
30333OCT     C160665   3.523  20.092  22.568 -0.0086 -0.1992 -0.2790
30333OCT     C260666   3.433  19.804  22.914 -0.2667  0.2827  0.3121
30334OCT     C160667  22.824  21.625  21.139  0.0271 -0.1424  0.1437
30334OCT     C260668  22.543  21.425  20.837 -0.1429 -0.0565  0.3655
30335OCT     C160669   9.136  18.791   6.836 -0.0010 -0.0757  0.2765
30335OCT     C260670   9.382  19.124   6.685  0.1846 -0.1623 -0.1771
30336OCT     C160671  21.078   9.785  18.953 -0.2008  0.1540 -0.2781
30336OCT     C260672  21.436   9.527  18.651 -0.3302  0.0554 -0.1507
30337OCT     C160673   1.336  21.518  10.889 -0.1033  0.2512  0.1607
30337OCT     C260674   1.776  21.384  10.953 -0.2476  0.2840 -0.1193
30338OCT     C160675  14.182  14.087   5.222 -0.1802 -0.0984 -0.1994
30338OCT     C260676  14.159  14.391   5.546 -0.0674 -0.1500  0.2048
30339OCT     C160677  22.500  18.227  17.796 -0.2969  0.3961 -0.0080
30339OCT     C260678  22.209  18.492  17.559  0.0521 -0.0844 -0.4281
30340OCT     C160679   7.568   9.343   3.052 -0.3544 -0.0889  0.2237
30340OCT     C260680   7.770   9.275   2.611  0.0352 -0.0328  0.2611
30341OCT     C160681   0.894  17.167  18.137  0.2201  0.0815  0.0280
30341OCT     C260682   0.679  16.947  18.491  0.2667 -0.0567  0.0029
30342OCT     C160683  13.262  10.032   7.061 -0.1966 -0.1532 -0.0167
30342OCT     C260684  12.977  10.333   7.198  0.1702  0.4260  0.2039
30343OCT     C160685  18.051  20.426   6.572  0.1943 -0.1040 -0.2381
30343OCT     C260686  17.683  20.615   6.311  0.1543 -0.0750 -0.0352
30344OCT     C160687  23.287  18.790  20.751  0.2643  0.1496 -0.1201
30344OCT     C260688  23.140  18.618  20.352  0.0701 -0.0573 -0.1120
30345OCT     C160689  22.157   9.770  10.953 -0.1922 -0.0593 -0.0978
30345OCT     C260690  22.188  10.161  10.738  0.0293 -0.2539  0.1674
30346OCT     C160691  16.171  10.288  13.386 -0.0325  0.0629 -0.1385
30346OCT     C260692  15.876   9.996  13.091 -0.1306 -0.2869  0.1043
30347OCT     C160693  10.585   9.784  18.247 -0.1128  0.2620  0.0417
30347OCT     C260694  10.840  10.097  18.474  0.2553  0.0233  0.0557
30348OCT     C160695   7.985  10.666   8.303 -0.3423  0.3190  0.0633
30348OCT     C260696   7.506  10.672   8.499 -0.1458 -0.2028  0.1174
30349OCT     C160697  12.810  23.041   5.077 -0.1253  0.1275  0.0918
30349OCT     C260698  12.862  22.762   5.401  0.1732 -0.0050  0.0179
30350OCT     C160699   8.423   0.750  13.404 -0.5104  0.1096 -0.1254
30350OCT     C260700   8.148   0.659  12.988  0.1578 -0.0812  0.2318
30351OCT     C160701  23.589   9.506   9.893  0.0420  0.3083 -0.0872
30351OCT     C260702   0.273   9.694   9.771 -0.2603  0.1910  0.2061
30352OCT     C160703   1.311  15.727   7.715  0.0461 -0.0410  0.0551
30352OCT     C260704   1.190  16.035   7.361 -0.0486 -0.2079 -0.1922
30353OCT     C160705   8.514   7.537   1.989 -0.1772  0.4905  0.2746
30353OCT     C260706   8.205   7.749   1.789  0.1440  0.4484  0.1231
30354OCT     C160707  11.229  12.657   3.274  0.0248  0.0438  0.2482
30354OCT     C260708  11.452  13.067   3.276  0.0965  0.0691 -0.0832
30355OCT     C160709   9.795  20.878  13.117 -0.5974 -0.0498  0.3653
30355OCT     C260710   9.518  21.265  13.007  0.1185  0.2928 -0.1893
30356OCT     C160711   3.387  21.272   5.306 -0.1399 -0.1058  0.1158
30356OCT     C260712   3.052  20.910   5.312  0.1666  0.0569 -0.3083
30357OCT     C160713   4.741  22.023  18.905  0.0531  0.0596 -0.1275
30357OCT     C260714   4.992  21.717  19.075  0.1223  0.1730 -0.1341
30358OCT     C160715   5.957   4.782   6.963 -0.2797  0.1644 -0.4338
30358OCT     C260716   6.351   5.111   7.042  0.1044 -0.1084 -0.0304
30359OCT     C160717   5.158  21.724  13.110 -0.4062 -0.0360  0.2658
30359OCT     C260718   4.876  21.780  13.436 -0.0737 -0.1948 -0.2190
30360OCT     C160719   1.509  15.061   8.679 -0.0051 -0.1995 -0.2102
30360OCT     C260720   1.292  14.871   9.032  0.1537  0.2796 -0.1903
30361OCT     C160721   1.125  22.046  23.676 -0.0712  0.5780  0.0534
30361OCT     C260722   0.905  22.387  23.552  0.0036  0.1752  0.3022
30362OCT     C160723   1.345   3.110  11.462 -0.0681 -0.1504  0.2143
30362OCT     C260724   1.168   3.531  11.569 -0.0326  0.1017 -0.1964
30363OCT     C160725  21.305  22.472   5.416  0.0929 -0.0571 -0.0859
30363OCT     C260726  21.336  22.041   5.215  0.1614  0.3065  0.0745
30364OCT     C160727   3.932   9.418  11.549  0.1970 -0.1078 -0.2108
30364OCT     C260728   4.256   9.086  11.738  0.0400  0.3355 -0.2640
30365OCT     C160729  14.658  14.958  16.626  0.3841 -0.1792  0.0365
30365OCT     C260730  14.742  15.189  16.197 -0.0171 -0.0811 -0.1293
30366OCT     C160731   8.337   8.081  11.668 -0.0799  0.1747 -0.0608
30366OCT     C260732   8.357   7.630  11.471  0.0814 -0.2946  0.1492
30367OCT     C160733   9.522  23.346  12.044 -0.2322 -0.0774 -0.3157
30367OCT     C260734   9.519  23.507  11.575  0.3232  0.3020  0.1845
30368OCT     C160735   0.966  12.414  17.682  0.0446  0.3299 -0.2646
30368OCT     C260736   1.121  12.802  17.899  0.0995 -0.5521  0.0386
30369OCT     C160737   4.566   4.480  18.050  0.0317  0.4727  0.1310
30369OCT     C260738   4.635   4.818  18.372 -0.0053  0.0680 -0.1375
30370OCT     C160739   4.567  17.420   0.910  0.2451 -0.1248 -0.4042
30370OCT     C260740   4.271  17.341   0.518  0.0153  0.2352 -0.2155
30371OCT     C160741  19.173   0.973   4.472 -0.1812 -0.2397 -0.0965
30371OCT     C260742  18.912   1.118   4.821  0.0391  0.1448 -0.3482
30372OCT     C160743  19.940  21.174   2.212  0.3011 -0.4338 -0.0056
30372OCT     C260744  20.050  20.793   2.458 -0.1382 -0.0858 -0.1963
30373OCT     C160745   5.375  22.534  21.089 -0.4482 -0.0860  0.1207
30373OCT     C260746   5.745  22.440  20.752  0.2040  0.1390  0.3071
30374OCT     C160747   3.762  14.210  23.389 -0.1151 -0.1521  0.3212
30374OCT     C260748   3.728  14.565  23.646  0.2564 -0.1995  0.2973
30375OCT     C160749  16.101   9.380   4.155  0.2137 -0.0953  0.2039
30375OCT     C260750  16.322   9.407   4.547  0.0634  0.3319  0.0613
30376OCT     C160751   1.347   5.650  17.584  0.0201  0.1215 -0.0820
30376OCT     C260752   1.487   5.252  17.372  0.1220  0.2918 -0.0272
30377OCT     C160753  17.003  20.926   7.986 -0.3075  0.4199  0.3187
30377OCT     C260754  17.469  20.879   7.947  0.1375  0.0325  0.1627
30378OCT     C160755  21.315   3.729   7.130  0.0118  0.3682 -0.0141
30378OCT     C260756  20.966   3.427   7.185 -0.1700  0.0095 -0.2404
30379OCT     C160757  19.566  11.719   7.160 -0.0061  0.1869  0.1482
30379OCT     C260758  19.533  12.077   6.865 -0.2034 -0.1267 -0.0213
30380OCT     C160759   4.330  12.983  14.436  0.1848 -0.0384 -0.0158
30380OCT     C260760   4.573  13.242  14.081  0.1285  0.1825 -0.2752
30381OCT     C160761   6.090  19.883   2.965 -0.1283  0.0176  0.0682
30381OCT     C260762   5.926  19.587   3.274 -0.0161  0.1431  0.1705
30382OCT     C160763   1.096  16.370   9.788  0.0189 -0.0374  0.2803
30382OCT     C260764   1.152  15.941   9.691 -0.2376 -0.0186  0.1283
30383OCT     C160765   2.550   6.505   3.674  0.2071 -0.3511  0.3272
30383OCT     C260766   2.130   6.620   3.410 -0.0771  0.2611 -0.2880
30384OCT     C160767  11.782   6.754  16.360 -0.0105  0.1083 -0.0348
30384OCT     C260768  12.114   6.562  16.525  0.0226  0.0345 -0.0297
30385OCT     C160769   3.166  13.889  14.478 -0.0927  0.1701  0.0464
30385OCT     C260770   3.595  13.715  14.415 -0.1609 -0.1600  0.0876
30386OCT     C160771  19.257   7.071  14.670  0.3198  0.2792 -0.0791
30386OCT     C260772  19.426   6.639  14.575  0.2713 -0.0417  0.2479
30387OCT     C160773  16.335   8.524  12.534 -0.0530 -0.0179 -0.0445
30387OCT     C260774  16.798   8.602  12.680  0.2832 -0.0826 -0.4278
30388OCT     C160775   0.135   3.678  10.243 -0.0794  0.1385 -0.0471
30388OCT     C260776  23.737   3.655   9.793  0.1879 -0.2561  0.2424
30389OCT     C160777   5.629   5.782   3.405 -0.1812  0.0789  0.1365
30389OCT     C260778   5.902   6.104   3.529 -0.3855 -0.2039 -0.1284
30390OCT     C160779   3.256  21.837   6.484  0.1160  0.2466  0.1531
30390OCT     C260780   3.375  21.437   6.731 -0.1293 -0.1200 -0.0929
30391OCT     C160781  14.006  12.873  19.187  0.0503 -0.2254 -0.4448
30391OCT     C260782  14.260  13.244  19.179  0.0392 -0.0520 -0.1144
30392OCT     C160783   3.443  16.571   1.105 -0.2017  0.2565  0.1370
30392OCT     C260784   3.062  16.506   0.779 -0.0208 -0.0108  0.0898
30393OCT     C160785  16.284  18.167   8.383 -0.3370  0.3130 -0.3385
30393OCT     C260786  16.669  18.237   8.174 -0.2849  0.0363 -0.0077
30394OCT     C160787   4.135  10.269   4.461 -0.2160 -0.1722 -0.2651
30394OCT     C260788   4.231   9.841   4.616  0.0682 -0.0247  0.0004
30395OCT     C160789  10.456   3.974  15.846  0.1473  0.0715 -0.1442
30395OCT     C260790  10.573   4.393  16.010  0.3540 -0.0243 -0.0297
30396OCT     C160791   3.771   3.881   5.208 -0.2174 -0.3798  0.0541
30396OCT     C260792   4.176   4.044   5.075  0.0568  0.0538  0.3194
30397OCT     C160793   3.229  11.064  16.133 -0.0544 -0.0901  0.1403
30397OCT     C260794   3.146  10.834  15.712 -0.0101  0.0244 -0.0464
30398OCT     C160795   1.698   7.438   5.939  0.3385 -0.2073  0.0829
30398OCT     C260796   1.256   7.373   6.105  0.2906 -0.0034 -0.2196
30399OCT     C160797   5.171   8.317   6.545 -0.1296 -0.1583 -0.2584
30399OCT     C260798   5.008   8.050   6.210  0.1306 -0.0702  0.2008
30400OCT     C160799  16.845   9.911  10.246 -0.1609  0.2363 -0.1103
30400OCT     C260800  17.053  10.105  10.662  0.0698  0.4315  0.2909
30401OCT     C160801  21.044  15.570   2.554  0.3932 -0.1011  0.4003
30401OCT     C260802  21.461  15.506   2.741  0.1299 -0.0996 -0.1287
30402OCT     C160803   1.459   4.495   6.801 -0.0196 -0.0033  0.2209
30402OCT     C260804   1.266   4.820   6.598  0.0043 -0.0756  0.0998
30403OCT     C160805  16.510  22.754  16.299 -0.0838 -0.0398  0.0574
30403OCT     C260806  16.417  22.507  15.894  0.3109 -0.0948  0.3462
30404OCT     C160807   0.915   4.015  17.295  0.1248 -0.2873  0.2062
30404OCT     C260808   0.511   4.250  17.387  0.2507  0.5788  0.0281
30405OCT     C160809  16.697   7.849   2.561 -0.0588  0.0231  0.1228
30405OCT     C260810  17.075   8.095   2.393  0.2440 -0.1781  0.0338
30406OCT     C160811   0.294  18.811  13.214  0.1625 -0.0445 -0.2812
30406OCT     C260812   0.225  19.021  13.614 -0.4465  0.0012 -0.0393
30407OCT     C160813   1.338   0.160  20.687 -0.2795  0.2488  0.2076
30407OCT     C260814   1.606  23.634  20.455 -0.0814 -0.0224 -0.1102
30408OCT     C160815  10.112   9.103  17.473 -0.2719 -0.0662  0.1816
30408OCT     C260816   9.908   9.443  17.183 -0.0521 -0.1145 -0.2243
30409OCT     C160817  14.621  16.094  15.625 -0.0194  0.1956 -0.0033
30409OCT     C260818  14.471  16.565  15.526  0.2374  0.0728 -0.3199
30410OCT     C160819   6.873  15.914   7.275 -0.2754 -0.0355  0.3047
30410OCT     C260820   6.629  15.510   7.264 -0.0810 -0.1321 -0.0786
30411OCT     C160821   6.276  22.047  13.682 -0.1071 -0.0645 -0.0663
30411OCT     C260822   6.372  22.515  13.617 -0.0292 -0.1583  0.2133
30412OCT     C160823  20.119   2.248  18.947  0.1689 -0.2831  0.1733
30412OCT     C260824  20.278   2.152  18.531  0.0938  0.1532  0.0579
30413OCT     C160825  11.369   9.193  14.315 -0.2028 -0.0740  0.0224
30413OCT     C260826  11.650   9.466  13.982  0.2650  0.1940 -0.0843
30414OCT     C160827  19.951  16.904   9.322  0.1132 -0.3407  0.1684
30414OCT     C260828  19.891  17.177   9.698  0.0413  0.1030 -0.1781
30415OCT     C160829  15.021   7.202  20.606  0.1548  0.1049 -0.1610
30415OCT     C260830  15.389   6.919  20.597 -0.3062  0.2617  0.0435
30416OCT     C160831  13.688   7.472  15.681 -0.1560 -0.1512 -0.2074
30416OCT     C260832  13.924   7.866  15.818  0.0483  0.0790  0.1276
30417OCT     C160833   0.554  19.117   3.257 -0.0810 -0.0777 -0.2642
30417OCT     C260834   0.894  18.842   3.139  0.0358  0.1130 -0.1630
30418OCT     C160835  18.549   8.534  16.509  0.0795  0.0535  0.0822
30418OCT     C260836  18.368   8.180  16.306  0.1511  0.3388 -0.0072
30419OCT     C160837  22.669  16.642  20.562 -0.4170  0.1558 -0.2324
30419OCT     C260838  22.684  17.080  20.745  0.5593  0.1194 -0.1691
30420OCT     C160839   7.661   0.442   7.691 -0.0151 -0.2662  0.2822
30420OCT     C260840   8.078   0.509   7.875 -0.0299 -0.5886 -0.1449
30421OCT     C160841  23.054  10.283   2.250  0.1388 -0.4235  0.0630
30421OCT     C260842  22.943   9.862   2.264 -0.3872 -0.1862 -0.3013
30422OCT     C160843  15.634   8.328  19.967  0.2178  0.1618  0.0274
30422OCT     C260844  15.571   8.413  20.455 -0.0360  0.4377 -0.3537
30423OCT     C160845  15.861  12.974   7.500 -0.1162 -0.1075  0.1189
30423OCT     C260846  15.691  12.546   7.369  0.0976  0.2548  0.1084
30424OCT     C160847   2.770   3.184  18.942 -0.0408  0.3665  0.2599
30424OCT     C260848   3.119   2.888  18.967 -0.6345  0.3744 -0.1738
30425OCT     C160849  22.025   9.346  18.990 -0.0647  0.3627 -0.1049
30425OCT     C260850  22.221   9.549  18.664 -0.0988 -0.3803  0.1712
30426OCT     C160851  20.893  12.059  21.161  0.4609  0.1399  0.2292
30426OCT     C260852  20.936  12.410  21.462  0.0454  0.0733  0.5001
30427OCT     C160853  21.648   5.656  13.681  0.0307  0.4980 -0.1236
30427OCT     C260854  21.366   5.767  14.053  0.0127 -0.2412 -0.1680
30428OCT     C160855  15.484   8.855  16.536  0.0443 -0.3925  0.2807
30428OCT     C260856  15.074   8.881  16.769  0.0383  0.3519 -0.1686
30429OCT     C160857  13.794  12.313   4.921 -0.3031  0.3090  0.2264
30429OCT     C260858  14.085  12.364   5.292  0.0429 -0.0793 -0.4093
30430OCT     C160859  13.826  11.366  17.058 -0.2484 -0.0599 -0.1496
30430OCT     C260860  13.791  11.302  17.513  0.0091  0.3791  0.0035
30431OCT     C160861  17.523   1.152   3.255 -0.2302 -0.4051  0.1256
30431OCT     C260862  17.828   0.786   3.276  0.3945 -0.0697  0.1390
30432OCT     C160863  17.557  19.309   6.475  0.1098  0.1389 -0.0309
30432OCT     C260864  17.540  19.619   6.160  0.1840  0.4028  0.0637
30433OCT     C160865  20.118  18.842  22.726  0.0027  0.1784 -0.1973
30433OCT     C260866  20.386  19.209  22.762 -0.5813  0.3375  0.1310
30434OCT     C160867  12.551   7.947  20.329 -0.3879 -0.2403  0.0904
30434OCT     C260868  12.380   7.512  20.431  0.0671 -0.2421 -0.1043
30435OCT     C160869   4.252  10.360  23.111  0.1571 -0.1162  0.0362
30435OCT     C260870   3.902  10.367  23.429 -0.1227 -0.1419 -0.1225
30436OCT     C160871  13.614   7.776  21.303 -0.0252  0.1102 -0.0973
30436OCT     C260872  13.361   7.852  21.654 -0.0186 -0.0822  0.2189
30437OCT     C160873  10.275   9.895  23.492  0.1042  0.3757  0.3779
30437OCT     C260874  10.567   9.854   0.181  0.1949 -0.1337 -0.3132
30438OCT     C160875  11.469  10.305  20.153 -0.1375 -0.0440 -0.1200
30438OCT     C260876  11.079  10.130  19.957 -0.0820 -0.1513 -0.0153
30439OCT     C160877   3.176  13.481  22.324  0.0840  0.0722  0.0353
30439OCT     C260878   2.738  13.730  22.412 -0.0605 -0.2561 -0.3367
30440OCT     C160879  20.931  12.801  23.273  0.0704  0.0855 -0.0252
30440OCT     C260880  20.513  13.065  23.297 -0.1584 -0.2061 -0.0392
30441OCT     C160881  19.258   9.101   9.341 -0.0258 -0.1151  0.1641
30441OCT     C260882  19.134   8.843   9.716  0.2631  0.2807 -0.1178
30442OCT     C160883  23.101   8.717  20.926  0.0933 -0.1903  0.2575
30442OCT     C260884  22.850   8.534  21.259  0.3154 -0.1572 -0.2029
30443OCT     C160885  20.063   0.179   0.374  0.1738 -0.3688 -0.0512
30443OCT     C260886  20.233   0.408   0.000  0.0904  0.1096 -0.1173
30444OCT     C160887  19.289   6.891  10.704  0.4343  0.1091  0.2730
30444OCT     C260888  19.144   7.048  10.267  0.0259  0.1649 -0.2783
30445OCT     C160889   3.004   2.333   2.953 -0.1883 -0.0498 -0.0064
30445OCT     C260890   2.639   2.610   2.917  0.2050 -0.2608  0.1312
30446OCT     C160891  11.260   4.814   3.129  0.1046 -0.1162  0.0511
30446OCT     C260892  11.492   5.155   3.209  0.1507 -0.1221 -0.2602
30447OCT     C160893   6.842   8.214   5.756  0.1190  0.0639 -0.3344
30447OCT     C260894   6.422   8.347   5.945 -0.0779 -0.1362 -0.1745
30448OCT     C160895  19.549  17.387  22.232  0.0844 -0.3057  0.4646
30448OCT     C260896  19.919  17.194  22.010  0.3036  0.3298  0.2537
30449OCT     C160897  19.632   3.482   0.094 -0.0749  0.0906 -0.1973
30449OCT     C260898  19.527   3.542   0.539 -0.1804 -0.0812 -0.0708
30450OCT     C160899  18.361   8.254   3.858 -0.0108  0.0926 -0.1870
30450OCT     C260900  17.934   8.133   4.139 -0.1646 -0.2497 -0.1446
30451OCT     C160901   0.467  22.741   3.538  0.3845  0.3158 -0.0405
30451OCT     C260902   0.020  22.801   3.574  0.2206  0.0520  0.0073
30452OCT     C160903  17.439  17.764   9.767 -0.1782 -0.1622 -0.4120
30452OCT     C260904  17.917  17.935   9.661 -0.0962 -0.1185 -0.3029
30453OCT     C160905  18.092  13.531  14.787 -0.1628  0.3904 -0.1992
30453OCT     C260906  18.012  13.759  14.430 -0.0196  0.2822  0.2837
30454OCT     C160907  11.334   0.775  11.724  0.0588 -0.0324  0.2927
30454OCT     C260908  11.278   0.967  11.243  0.0237 -0.0801 -0.1922
30455OCT     C160909  14.124  15.266  12.927 -0.0708  0.4125 -0.1907
30455OCT     C260910  14.327  15.667  12.906  0.3255 -0.4271 -0.0420
30456OCT     C160911  12.021   4.186  11.999  0.0327 -0.1437  0.1365
30456OCT     C260912  12.311   4.047  11.665 -0.0359 -0.2733  0.3853
30457OCT     C160913  10.482   8.741  10.109  0.1374 -0.0568  0.0009
30457OCT     C260914  10.078   8.876   9.899  0.2567  0.1315 -0.0087
30458OCT     C160915  11.330   2.590   8.680  0.3422 -0.0634 -0.0894
30458OCT     C260916  11.343   2.712   9.146 -0.0794  0.1574  0.2268
30459OCT     C160917   8.334  19.006  18.588  0.0581 -0.1676 -0.0603
30459OCT     C260918   8.037  19.207  18.856  0.2348 -0.0688 -0.0350
30460OCT     C160919  19.567   3.036  16.079 -0.3785  0.5153  0.0769
30460OCT     C260920  19.667   3.322  16.454  0.0591 -0.2943 -0.0666
30461OCT     C160921  21.007  10.571  11.951 -0.0981  0.0096  0.3274
30461OCT     C260922  21.262  10.936  11.997 -0.2426 -0.1134 -0.3060
30462OCT     C160923  12.922  11.537  21.613  0.1106  0.2507 -0.0872
30462OCT     C260924  13.335  11.752  21.682  0.1165 -0.0139  0.1529
30463OCT     C160925  15.586  13.438  20.082 -0.0451  0.0378 -0.4055
30463OCT     C260926  15.678  13.664  19.739 -0.2314 -0.2678 -0.1453
30464OCT     C160927  12.525  23.303   3.129  0.0510 -0.0698 -0.0685
30464OCT     C260928  12.044  23.202   3.093  0.0255 -0.3023  0.2791
30465OCT     C160929  14.558   4.898   4.084 -0.1150 -0.2531  0.0319
30465OCT     C260930  14.279   4.948   3.708 -0.0310  0.3204 -0.0598
30466OCT     C160931  12.209  11.510   7.585 -0.3354  0.1257  0.2876
30466OCT     C260932  11.902  11.523   7.932 -0.1058 -0.1390  0.5012
30467OCT     C160933   8.693  22.202   9.817 -0.1135  0.3032  0.3452
30467OCT     C260934   8.651  22.244   9.330 -0.0552  0.0944  0.3985
30468OCT     C160935   2.126   4.554  10.561 -0.3874  0.1857  0.0750
30468OCT     C260936   1.977   5.005  10.555  0.1274  0.2568 -0.1535
30469OCT     C160937   3.032   3.187  22.275 -0.2128 -0.2664 -0.0350
30469OCT     C260938   3.060   2.949  22.622 -0.3295 -0.1264  0.2681
30470OCT     C160939  14.908   7.244   7.911  0.1976  0.0658  0.2844
30470OCT     C260940  14.507   7.204   8.131  0.1073 -0.1058 -0.0309
30471OCT     C160941   4.308  16.965  16.561 -0.1727  0.0653 -0.1987
30471OCT     C260942   4.590  16.836  16.960  0.2467  0.0557  0.0939
30472OCT     C160943  22.078  21.636   3.830  0.5028  0.0503 -0.2273
30472OCT     C260944  22.417  21.897   3.648  0.1443  0.1895  0.0791
30473OCT     C160945  23.024   0.593   8.751 -0.0823  0.5133 -0.0748
30473OCT     C260946  22.836   0.542   8.372 -0.1060  0.0347 -0.3466
30474OCT     C160947   6.722  19.445   4.578  0.1808 -0.4071  0.3368
30474OCT     C260948   6.524  19.723   4.231 -0.0990 -0.0596  0.2919
30475OCT     C160949  14.251  16.802  14.660  0.5842 -0.1773 -0.1170
30475OCT     C260950  14.352  17.111  14.297 -0.0402 -0.0577  0.1573
30476OCT     C160951   7.658  18.699   0.890 -0.1243  0.1792  0.2751
30476OCT     C260952   8.158  18.667   0.772 -0.1788  0.0179 -0.1725
30477OCT     C160953  18.437  20.664  15.294  0.1631  0.0788 -0.4150
30477OCT     C260954  18.214  20.405  15.671  0.2285 -0.3174 -0.1137
30478OCT     C160955  15.368  14.157   9.820 -0.0865 -0.0689 -0.4134
30478OCT     C260956  15.089  14.564   9.860  0.2925 -0.1478 -0.1984
30479OCT     C160957  21.665  11.251  23.363 -0.0272 -0.2642 -0.1543
30479OCT     C260958  21.345  11.439  23.709  0.1554 -0.2165  0.2970
30480OCT     C160959  13.991  20.428  16.028  0.1321 -0.0106  0.0424
30480OCT     C260960  14.179  20.827  15.808  0.0728  0.1296  0.1386
30481OCT     C160961   9.679   6.000  23.567  0.0171 -0.2723 -0.0785
30481OCT     C260962   9.487   5.654   0.042 -0.0859  0.2189  0.2005
30482OCT     C160963   9.754  18.521   7.536 -0.1369 -0.2291 -0.1109
30482OCT     C260964   9.662  18.162   7.182  0.2084 -0.4136  0.0943
30483OCT     C160965   9.696  16.837   8.092  0.0306 -0.0840  0.0823
30483OCT     C260966   9.379  17.026   8.332 -0.5462 -0.0998  0.0128
30484OCT     C160967   0.904  10.958   4.573 -0.1689  0.0084  0.1646
30484OCT     C260968   1.098  10.849   4.933 -0.2502 -0.1332 -0.3798
30485OCT     C160969  14.460  21.350  21.104  0.0845  0.2291  0.0952
30485OCT     C260970  14.004  21.193  21.114 -0.0014 -0.0190  0.0059
30486OCT     C160971  13.836   7.844   2.004 -0.1188  0.0012  0.0182
30486OCT     C260972  14.342   7.794   1.963 -0.2840  0.0980  0.3838
30487OCT     C160973   5.393  12.330   8.716  0.0397  0.0626  0.1163
30487OCT     C260974   5.337  12.773   8.862  0.0114  0.3529 -0.3713
30488OCT     C160975   9.333  20.885   0.449  0.1529  0.1482 -0.1120
30488OCT     C260976   9.737  21.031   0.619  0.1175  0.0713 -0.0690
30489OCT     C160977  20.520  10.685   7.477  0.0778  0.0607  0.2712
30489OCT     C260978  20.721  10.289   7.757 -0.0295 -0.2099  0.2956
30490OCT     C160979   5.844   3.027   4.323 -0.5106  0.0656  0.0996
30490OCT     C260980   5.738   2.589   4.094 -0.2415 -0.0562 -0.0619
30491OCT     C160981  13.539  13.001   2.609  0.1016  0.2239  0.1030
30491OCT     C260982  13.256  12.993   2.228 -0.0491  0.4197  0.0924
30492OCT     C160983  17.684  20.592  10.011  0.1371  0.1386 -0.1098
30492OCT     C260984  17.530  20.620   9.595  0.2440 -0.0131  0.0971
30493OCT     C160985  16.927   7.667   2.137 -0.0358 -0.2369  0.0305
30493OCT     C260986  17.150   8.018   1.903 -0.1167  0.4909  0.4877
30494OCT     C160987  18.946  15.934   8.519 -0.1600  0.1450  0.0533
30494OCT     C260988  19.329  16.147   8.242  0.0037  0.0615  0.2640
30495OCT     C160989  20.273  16.090   5.018  0.1286  0.1122  0.2002
30495OCT     C260990  20.102  15.683   4.985 -0.3396 -0.2831  0.0015
30496OCT     C160991   0.058  19.883  19.996  0.2103  0.1529 -0.2823
30496OCT     C260992  23.440  19.619  19.951 -0.0562 -0.3885  0.2537
30497OCT     C160993  15.481   8.173   8.054  0.1085  0.1939  0.0888
30497OCT     C260994  15.101   7.966   7.978  0.3771  0.1517 -0.0369
30498OCT     C160995  22.836  11.671  19.380  0.0410  0.1533 -0.1009
30498OCT     C260996  23.036  11.842  19.016  0.0031 -0.1059  0.1067
30499OCT     C160997  19.770   6.923  22.962  0.0129  0.3259 -0.0541
30499OCT     C260998  19.645   6.867  22.432  0.1732 -0.1586 -0.1711
30500OCT     C160999  11.300   6.571   0.078  0.0874  0.0675 -0.4197
30500OCT     C261000  11.445   6.224   0.395  0.2061 -0.2270  0.0522
30501OCT     C161001   8.306  16.667  16.042  0.0930  0.0248 -0.4101
30501OCT     C261002   8.112  16.950  16.372  0.1857 -0.0221  0.3401
30502OCT     C161003  18.381  23.172   8.643 -0.0297  0.0505 -0.0461
30502OCT     C261004  18.258  23.349   8.230 -0.1737 -0.1544  0.1677
30503OCT     C161005   5.051  14.090   8.607 -0.0245  0.1136  0.1218
30503OCT     C261006   5.327  13.904   8.864 -0.1412  0.1490  0.1541
30504OCT     C161007   6.023  10.834   9.780  0.0045 -0.1715 -0.2940
30504OCT     C261008   6.363  10.748  10.084  0.1394 -0.0374 -0.4337
30505OCT     C161009  20.438   0.797  18.770 -0.1633 -0.0142 -0.1493
30505OCT     C261010  20.616   1.240  18.715  0.1299  0.0730 -0.1696
30506OCT     C161011   0.345   5.004  16.002  0.1847  0.2840  0.1726
30506OCT     C261012  23.739   4.809  15.826  0.1761 -0.2095 -0.1819
30507OCT     C161013   4.564  16.207   8.051 -0.1073  0.1595 -0.0859
30507OCT     C261014   4.830  15.866   8.261 -0.1585  0.2266 -0.1550
30508OCT     C161015  14.470   3.323   7.185 -0.1497  0.2834 -0.0037
30508OCT     C261016  14.535   3.561   7.565  0.0500  0.0017  0.2617
30509OCT     C161017  22.400  15.096  19.701 -0.1261 -0.1393 -0.0256
30509OCT     C261018  22.574  14.658  19.713 -0.1366  0.2446 -0.0645
30510OCT     C161019  18.973  11.788   8.690  0.0491 -0.1681 -0.0706
30510OCT     C261020  18.987  11.935   9.124 -0.1094 -0.0785 -0.0788
30511OCT     C161021  16.734   5.283  12.977  0.0935 -0.1842 -0.1907
30511OCT     C261022  16.281   5.241  12.904  0.1094 -0.4299 -0.0689
30512OCT     C161023   0.386   0.668   9.846 -0.0862 -0.0174  0.3897
30512OCT     C261024   0.127   0.965  10.025 -0.3053  0.0201  0.1436
30513OCT     C161025  12.758  12.868  10.645 -0.1837 -0.1893 -0.0754
30513OCT     C261026  12.951  12.850  10.267 -0.1182 -0.1589 -0.1885
30514OCT     C161027  12.489   9.064  15.356  0.5077  0.3832 -0.0659
30514OCT     C261028  12.067   9.038  15.416 -0.2714 -0.1750 -0.4380
30515OCT     C161029  14.051  22.506  20.269  0.0724 -0.0484  0.0110
30515OCT     C261030  14.306  22.419  19.885  0.1353 -0.1810  0.1188
30516OCT     C161031  11.794  13.444  10.341 -0.0722 -0.1643 -0.2156
30516OCT     C261032  11.827  13.717   9.948 -0.1991 -0.2333 -0.3501
30517OCT     C161033  15.226  11.472   7.169 -0.0402 -0.2124 -0.0551
30517OCT     C261034  15.220  10.960   7.143 -0.0613  0.1071 -0.3226
30518OCT     C161035  21.882  23.389   6.315  0.0742 -0.1098  0.3354
30518OCT     C261036  22.226   0.004   6.404  0.1040 -0.2120  0.0536
30519OCT     C161037   1.447  23.413  19.381  0.3716  0.0507  0.1451
30519OCT     C261038   1.194  23.464  19.760  0.3340  0.4013  0.1319
30520OCT     C161039  22.660   3.901  18.447 -0.2135 -0.2456  0.0938
30520OCT     C261040  22.308   4.028  18.716  0.1424  0.1745 -0.0617
30521OCT     C161041  18.931  16.655   1.606 -0.1499  0.3414  0.3329
30521OCT     C261042  18.494  16.694   1.607 -0.0577 -0.1928  0.1182
30522OCT     C161043  19.767  20.073   6.983 -0.0142 -0.0073 -0.2018
30522OCT     C261044  19.915  19.812   6.639  0.0772  0.3163 -0.1991
30523OCT     C161045  11.365  12.554   7.252  0.1573  0.0176  0.2824
30523OCT     C261046  11.007  12.308   7.067 -0.1740  0.0105 -0.0056
30524OCT     C161047   5.752   4.325  12.907 -0.1330 -0.2149 -0.0697
30524OCT     C261048   5.945   4.668  12.650  0.3413  0.1116 -0.1037
30525OCT     C161049   5.519   2.116   4.058  0.0078 -0.0537 -0.0274
30525OCT     C261050   5.850   2.249   3.685 -0.0606 -0.0506 -0.1907
30526OCT     C161051  15.288  16.387   7.233  0.1679 -0.1669 -0.1706
30526OCT     C261052  15.467  16.554   6.868 -0.1590 -0.0597 -0.2261
30527OCT     C161053   0.659  15.701  16.672 -0.4346  0.3025 -0.2589
30527OCT     C261054   0.896  15.355  16.884  0.0695  0.0870  0.0882
30528OCT     C161055  21.752  14.671  17.379  0.2066  0.2349  0.0926
30528OCT     C261056  21.459  14.974  17.541  0.0405 -0.2346  0.1116
30529OCT     C161057  18.999  14.334   7.362 -0.2044 -0.2265  0.1068
30529OCT     C261058  18.687  14.645   7.305  0.0423 -0.3875 -0.1239
30530OCT     C161059   9.688  23.698  14.573  0.1706 -0.2701 -0.1758
30530OCT     C261060   9.384   0.088  14.232 -0.1176  0.0624 -0.1964
30531OCT     C161061  15.324  20.691  21.353  0.0207  0.1576 -0.0311
30531OCT     C261062  15.399  21.126  21.407 -0.0657 -0.0591 -0.0509
30532OCT     C161063   6.476  16.121   9.289  0.1249  0.0015 -0.2367
30532OCT     C261064   6.117  15.864   9.435  0.2191  0.1210  0.3480
30533OCT     C161065   1.682  10.332   3.592  0.0554 -0.0743 -0.0393
30533OCT     C261066   1.891   9.928   3.785 -0.0413  0.0029  0.0252
30534OCT     C161067  18.275   3.326   2.056  0.3066 -0.2202  0.1263
30534OCT     C261068  18.142   3.190   1.608  0.5427  0.0716 -0.0314
30535OCT     C161069  16.935   0.404  23.487  0.2946 -0.0452  0.2952
30535OCT     C261070  16.492   0.385  23.686 -0.0883  0.1036  0.1331
30536OCT     C161071  17.749   3.923  23.114  0.1434 -0.1032  0.3924
30536OCT     C261072  17.602   4.072  23.535  0.2351  0.0246  0.1566
30537OCT     C161073  17.381   6.264  22.484 -0.1874  0.0612 -0.1774
30537OCT     C261074  17.801   6.202  22.363 -0.3671 -0.0948  0.3381
30538OCT     C161075  11.034   8.265   8.399  0.0184 -0.3053 -0.0678
30538OCT     C261076  11.472   7.998   8.469  0.2542  0.1356  0.1343
30539OCT     C161077   9.924   1.801  12.596 -0.3795  0.1333 -0.3687
30539OCT     C261078   9.454   1.716  12.642  0.2487  0.0884  0.0037
30540OCT     C161079  15.169  18.012   7.675  0.1768 -0.0371  0.2542
30540OCT     C261080  14.841  17.896   7.925 -0.2586 -0.0393 -0.0057
30541OCT     C161081   1.898   1.793  21.085 -0.2953 -0.0736 -0.1386
30541OCT     C261082   2.134   2.125  21.317  0.1133 -0.0087  0.3002
30542OCT     C161083  15.444  22.292  19.727 -0.1626 -0.1025 -0.0027
30542OCT     C261084  15.538  22.647  19.466  0.1238 -0.1538  0.4403
30543OCT     C161085  17.849   9.364  13.609 -0.3867 -0.1265  0.0067
30543OCT     C261086  17.634   9.364  13.222 -0.2994  0.1470  0.0891
30544OCT     C161087  19.864  14.316  12.937 -0.1266 -0.4021  0.2803
30544OCT     C261088  20.204  14.051  13.153 -0.0977 -0.0067  0.2865
30545OCT     C161089  11.888  10.799   5.449  0.1678 -0.1052 -0.0491
30545OCT     C261090  11.767  11.235   5.579  0.0474 -0.2001 -0.4644
30546OCT     C161091   7.746  21.933  13.276 -0.2242  0.4529  0.4001
30546OCT     C261092   7.651  21.433  13.247 -0.4847 -0.0042 -0.0116
30547OCT     C161093   8.549   2.294   1.192 -0.0063 -0.1395 -0.1503
30547OCT     C261094   8.965   2.014   1.293  0.1861  0.2972 -0.0453
30548OCT     C161095   0.330  23.033  19.333 -0.2896 -0.2179  0.0703
30548OCT     C261096   0.485  22.616  19.305 -0.0043  0.1378  0.0984
30549OCT     C161097  12.398  21.349   7.208 -0.2033 -0.4229 -0.1968
30549OCT     C261098  12.747  21.435   7.457 -0.3461  0.2159  0.2046
30550OCT     C161099  11.734  16.132   3.585 -0.2260 -0.0002  0.2763
30550OCT     C261100  11.434  16.297   3.852  0.3608 -0.2501 -0.3707
30551OCT     C161101   2.885  20.938  15.714 -0.2950 -0.2234 -0.2920
30551OCT     C261102   2.903  20.505  15.898  0.1342 -0.0248  0.2164
30552OCT     C161103  20.306   0.256  19.234  0.1933  0.0050  0.0828
30552OCT     C261104  20.541   0.537  19.164 -0.2910  0.1054  0.0847
30553OCT     C161105   4.209  18.461   7.873  0.2947  0.3449  0.0407
30553OCT     C261106   4.563  18.420   7.561 -0.0930  0.1627  0.2713
30554OCT     C161107   1.484  11.042   4.677 -0.0689  0.1302 -0.3590
30554OCT     C261108   1.423  10.606   4.560  0.5180 -0.1490  0.3513
30555OCT     C161109  16.249  11.460  15.705 -0.0129 -0.1441 -0.2057
30555OCT     C261110  16.235  11.249  16.122  0.0433  0.2358 -0.4339
30556OCT     C161111  17.394  14.967  13.138  0.0388  0.0660 -0.3050
30556OCT     C261112  17.795  14.749  13.144 -0.0254  0.1932  0.1244
30557OCT     C161113   0.678   0.614  20.644 -0.0895  0.1939  0.0423
30557OCT     C261114   0.829   0.182  20.622  0.3006 -0.0936  0.3386
30558OCT     C161115   7.862  21.724   3.124  0.2116  0.4994 -0.0893
30558OCT     C261116   7.411  21.585   3.335  0.1094 -0.2366 -0.1047
30559OCT     C161117   9.569   7.827  16.220 -0.1767 -0.0825 -0.0819
30559OCT     C261118   9.169   8.078  16.280 -0.1731  0.3741  0.1231
30560OCT     C161119   2.417   2.448   7.980  0.1238 -0.4400  0.1642
30560OCT     C261120   2.643   2.780   8.278  0.0307  0.1138  0.0469
30561OCT     C161121   3.365   0.776   6.140 -0.1959 -0.0277  0.2533
30561OCT     C261122   3.480   0.362   6.304  0.0594 -0.1351 -0.1776
30562OCT     C161123  15.290  16.512  12.172 -0.1276  0.4511  0.0597
30562OCT     C261124  15.372  16.885  11.892  0.0513 -0.0605 -0.2871
30563OCT     C161125  22.615  18.156   6.964  0.0230 -0.0573 -0.0506
30563OCT     C261126  22.221  18.227   7.163 -0.1531  0.0562  0.1329
30564OCT     C161127   1.908   7.915   1.588 -0.2553 -0.0883  0.0534
30564OCT     C261128   1.514   8.088   1.350  0.1915 -0.3567 -0.1978
30565OCT     C161129   8.058   9.755  19.990  0.3575 -0.5306 -0.1795
30565OCT     C261130   7.701   9.459  19.911 -0.0957 -0.1459  0.1040
30566OCT     C161131   3.085  17.998  10.385 -0.0036  0.2947 -0.0898
30566OCT     C261132   3.245  18.104   9.938 -0.0011  0.0510  0.3024
30567OCT     C161133  13.115   3.978  23.359 -0.0015  0.1483 -0.4991
30567OCT     C261134  12.904   4.003  22.889  0.2869  0.2587 -0.0328
30568OCT     C161135  10.119  14.124  11.805  0.0336  0.0947  0.1394
30568OCT     C261136   9.735  13.869  11.653 -0.0636  0.0133  0.0483
30569OCT     C161137   7.072   5.090  15.756  0.1182 -0.0367 -0.3220
30569OCT     C261138   7.169   4.968  15.326 -0.0698  0.0911 -0.6009
30570OCT     C161139  19.882   1.393   3.812 -0.2401  0.1958  0.1584
30570OCT     C261140  19.725   1.836   3.672 -0.0824 -0.3305 -0.1211
30571OCT     C161141  13.800  11.930   6.140  0.4124  0.0306  0.1525
30571OCT     C261142  13.973  11.675   5.753  0.1223  0.3095 -0.3468
30572OCT     C161143   7.420  11.048  11.805 -0.0458  0.1766  0.1947
30572OCT     C261144   7.733  11.029  11.448 -0.0349  0.4630  0.3116
30573OCT     C161145  23.526  20.479  14.362 -0.0482  0.2059 -0.1485
30573OCT     C261146  23.460  20.136  14.035 -0.2013 -0.1128 -0.1403
30574OCT     C161147   0.403  13.358  16.459  0.1233  0.1875  0.0122
30574OCT     C261148   0.607  13.687  16.790  0.2762 -0.0741  0.4088
30575OCT     C161149  18.381   2.655   3.320 -0.2576 -0.1632  0.1904
30575OCT     C261150  18.669   2.999   3.216  0.1905  0.3078  0.0859
30576OCT     C161151  23.197  17.098   8.618  0.1118 -0.0944 -0.0125
30576OCT     C261152  23.389  16.998   8.204  0.3147  0.1376  0.3314
30577OCT     C161153   6.763  19.602   7.105  0.1436  0.4173 -0.2404
30577OCT     C261154   6.827  19.253   6.764  0.2339 -0.0440  0.0731
30578OCT     C161155  10.660  22.505  19.725  0.2714  0.0641 -0.3682
30578OCT     C261156  10.239  22.772  19.838  0.1650  0.0079 -0.2566
30579OCT     C161157   5.994  10.885   9.228 -0.0630  0.1874 -0.1037
30579OCT     C261158   6.054  10.874   8.750  0.1365  0.2215 -0.1967
30580OCT     C161159  17.204   5.389   8.178 -0.0023 -0.1471 -0.0118
30580OCT     C261160  17.425   5.711   7.944 -0.2037  0.0542 -0.1343
30581OCT     C161161  21.863  17.132  13.880 -0.0190  0.0384 -0.1590
30581OCT     C261162  22.089  17.265  14.248  0.1560  0.1551 -0.1137
30582OCT     C161163  12.687   9.707   6.541 -0.0851  0.0621 -0.1420
30582OCT     C261164  13.151   9.784   6.590  0.1858 -0.4277  0.5008
30583OCT     C161165  19.848   4.606  12.731 -0.0399  0.1883  0.2081
30583OCT     C261166  19.703   4.280  12.992 -0.1793  0.1873  0.0915
30584OCT     C161167   4.779   5.500   3.052 -0.0855  0.2281  0.0317
30584OCT     C261168   5.020   5.129   2.838 -0.2267 -0.0722 -0.4009
30585OCT     C161169   7.427   1.294  11.733  0.1577 -0.0918  0.3020
30585OCT     C261170   7.320   0.840  11.745  0.1762  0.0524  0.0310
30586OCT     C161171   3.859  14.084  15.677  0.2959  0.0858 -0.0718
30586OCT     C261172   4.198  13.810  15.612 -0.0179 -0.3535 -0.0905
30587OCT     C161173   7.640   7.524  21.387  0.0641  0.0080 -0.1867
30587OCT     C261174   7.742   7.494  21.824 -0.3169 -0.1294  0.1850
30588OCT     C161175   5.976   6.563  15.305 -0.0884 -0.3295 -0.0890
30588OCT     C261176   5.678   6.860  15.050  0.0737  0.0267 -0.0813
30589OCT     C161177   4.537   5.223   4.453 -0.1076  0.0044  0.0948
30589OCT     C261178   4.622   5.686   4.524  0.1885 -0.3184 -0.4840
30590OCT     C161179   3.762   0.153   4.701 -0.3371  0.0778 -0.1960
30590OCT     C261180   4.183   0.040   4.586 -0.2355 -0.4190 -0.2806
30591OCT     C161181   5.218   7.702   5.273 -0.0306  0.1300  0.3457
30591OCT     C261182   4.906   8.045   5.341  0.1254  0.3881 -0.3347
30592OCT     C161183  14.161   3.694  16.448  0.2740  0.0487  0.2414
30592OCT     C261184  14.531   3.634  16.715 -0.2263  0.1064  0.2076
30593OCT     C161185  20.874  13.995  22.197 -0.2302  0.1194 -0.0127
30593OCT     C261186  20.609  13.802  22.567  0.0526  0.2204 -0.0458
30594OCT     C161187   9.618  11.086  13.901  0.0485  0.1505 -0.2179
30594OCT     C261188   9.335  11.302  14.160  0.0821 -0.0606 -0.3309
30595OCT     C161189  14.064  17.711   1.635  0.0946 -0.0894  0.0828
30595OCT     C261190  14.127  18.176   1.525 -0.1636  0.0822  0.3819
30596OCT     C161191  13.714   8.563   4.330 -0.0621 -0.4942  0.1784
30596OCT     C261192  13.538   8.812   4.684 -0.0264  0.3254  0.0352
30597OCT     C161193  11.461  21.008  12.466  0.0793 -0.4134  0.0939
30597OCT     C261194  11.538  20.635  12.752 -0.1779 -0.0075  0.3154
30598OCT     C161195  17.529  23.297  19.435  0.2540  0.0762  0.3495
30598OCT     C261196  17.200  23.520  19.668  0.2372  0.1378  0.0728
30599OCT     C161197  19.866   3.088  22.804  0.3181 -0.2473 -0.0378
30599OCT     C261198  20.142   2.694  22.780 -0.1545  0.0439 -0.4632
30600OCT     C161199   7.633  13.860  14.629  0.0230  0.4447  0.2955
30600OCT     C261200   7.780  14.226  14.971 -0.0467  0.4875  0.0304
30601OCT     C161201  18.869   7.621   1.083  0.0569  0.3348  0.1636
30601OCT     C261202  18.487   7.532   1.313 -0.0208  0.0958  0.2205
30602OCT     C161203  15.712  18.822  10.262 -0.3565  0.2665  0.2291
30602OCT     C261204  15.539  19.008  10.706 -0.1264  0.1419 -0.0214
30603OCT     C161205  13.934   6.720  20.310  0.0582 -0.2861  0.1825
30603OCT     C261206  13.460   6.915  20.323 -0.1418  0.1680 -0.0245
30604OCT     C161207   3.339   7.864  20.846  0.3588  0.2688 -0.1490
30604OCT     C261208   3.725   8.124  20.894 -0.2515 -0.1336 -0.1574
30605OCT     C161209   7.471   1.159   8.415  0.2788  0.0205 -0.1775
30605OCT     C261210   7.266   1.021   8.014 -0.1385  0.1717 -0.2783
30606OCT     C161211   3.476   7.993  18.601 -0.1263 -0.2745 -0.0775
30606OCT     C261212   3.490   8.393  18.824 -0.2336  0.2360  0.1968
30607OCT     C161213  18.252  11.365  11.252 -0.3436  0.0558 -0.0012
30607OCT     C261214  17.910  11.096  11.476 -0.0594 -0.1744 -0.2128
30608OCT     C161215  17.719  21.012  17.792 -0.1391 -0.0249  0.0064
30608OCT     C261216  17.593  20.759  17.443  0.1896 -0.3665 -0.2428
30609OCT     C161217   7.478   9.915   6.215  0.2249 -0.0586  0.0277
30609OCT     C261218   7.391   9.639   5.842 -0.0579 -0.1307 -0.0284
30610OCT     C161219   2.043  10.972   3.178 -0.1160  0.0798 -0.1659
30610OCT     C261220   2.417  11.053   3.527  0.0167  0.2365 -0.3955
30611OCT     C161221  23.073   8.979  21.335 -0.0208  0.1736  0.1688
30611OCT     C261222  23.385   8.979  21.665 -0.0605 -0.0436  0.4362
30612OCT     C161223   8.854   0.311  15.403  0.0623 -0.0638  0.0912
30612OCT     C261224   8.958   0.014  15.114 -0.1826  0.1698 -0.0052
30613OCT     C161225  11.286   8.543  22.769  0.0953  0.1163  0.0504
30613OCT     C261226  11.154   8.754  23.103  0.2397  0.3300  0.0166
30614OCT     C161227  19.238   2.342  18.597  0.1830 -0.0987 -0.0905
30614OCT     C261228  19.113   2.453  18.148  0.6903  0.2414  0.1353
30615OCT     C161229   0.708   1.286   8.177 -0.0235 -0.3201  0.3034
30615OCT     C261230   0.780   0.889   8.439  0.0415 -0.1562 -0.2697
30616OCT     C161231  11.745  20.962  15.678  0.4528  0.1938 -0.2235
30616OCT     C261232  11.446  21.162  15.358 -0.2043 -0.0506 -0.1616
30617OCT     C161233   2.328  14.371  20.972 -0.2967 -0.0942 -0.1604
30617OCT     C261234   2.513  14.604  20.644  0.0455 -0.2691  0.2444
30618OCT     C161235  20.200  21.572   2.810 -0.0075  0.3604 -0.2917
30618OCT     C261236  19.892  21.812   2.585 -0.1895 -0.1791 -0.0900
30619OCT     C161237  15.197   5.097   2.336 -0.0966  0.1027  0.1125
30619OCT     C261238  15.157   4.835   2.727  0.2074  0.0233  0.2892
30620OCT     C161239   0.951   4.601   5.222 -0.1108 -0.2419  0.1142
30620OCT     C261240   1.349   4.485   5.033  0.2312 -0.2737  0.0317
30621OCT     C161241  15.689   8.987   3.173 -0.3363  0.3398 -0.2221
30621OCT     C261242  15.303   8.914   2.911  0.0326  0.5116 -0.1868
30622OCT     C161243  15.704  20.122   9.748  0.2335  0.0342 -0.1137
30622OCT     C261244  15.634  20.379   9.347 -0.2698 -0.0215  0.1774
30623OCT     C161245  23.392  22.717   0.651  0.1890  0.4769  0.0630
30623OCT     C261246  23.710  23.076   0.471 -0.2800 -0.2656  0.3800
30624OCT     C161247  20.089  12.422   9.812 -0.0296 -0.0692  0.3139
30624OCT     C261248  19.803  12.647   9.478  0.0693 -0.1585  0.2099
30625OCT     C161249  13.982  20.835  23.590  0.1498 -0.0428 -0.2520
30625OCT     C261250  13.606  20.891  23.267  0.2921 -0.0803 -0.1960
30626OCT     C161251  18.728  11.366  14.651  0.0605  0.0704 -0.0791
30626OCT     C261252  19.144  11.593  14.596  0.0401 -0.0905  0.4712
30627OCT     C161253   3.513  23.600   6.738  0.0871 -0.2737 -0.4883
30627OCT     C261254   3.492  23.418   6.345 -0.1524 -0.0149 -0.1095
30628OCT     C161255  23.247  17.983   2.349 -0.2759  0.2030 -0.0201
30628OCT     C261256  22.888  18.271   2.336  0.1388 -0.0982 -0.0299
30629OCT     C161257   1.995  12.844   8.564  0.0638  0.3538  0.1876
30629OCT     C261258   2.141  13.007   8.142  0.0473  0.1990 -0.2215
30630OCT     C161259  10.111   7.202   4.837  0.3268  0.0239 -0.4458
30630OCT     C261260   9.910   6.765   4.849 -0.1879 -0.0333  0.1060
30631OCT     C161261   7.578  17.796  16.336  0.2999  0.1797 -0.3691
30631OCT     C261262   7.152  17.621  16.275 -0.5496 -0.4193  0.1416
30632OCT     C161263  20.566   2.265   5.078  0.2166  0.3625  0.0241
30632OCT     C261264  20.825   1.977   5.342 -0.5053 -0.0072  0.0320
30633OCT     C161265   1.469   2.058  17.641  0.3167 -0.2588  0.2892
30633OCT     C261266   1.220   2.459  17.755  0.1087  0.4592  0.0318
30634OCT     C161267  20.564   6.503  23.313  0.0618  0.0879 -0.0006
30634OCT     C261268  20.712   6.540  23.688 -0.0635 -0.1593  0.0427
30635OCT     C161269  20.964  12.276  14.017 -0.1912  0.2011  0.0382
30635OCT     C261270  21.131  11.844  13.972  0.1449  0.0953 -0.1317
30636OCT     C161271   7.322  17.702  18.722 -0.0742 -0.0142 -0.0622
30636OCT     C261272   7.700  17.933  18.909  0.0234 -0.0837 -0.1239
30637OCT     C161273  15.929  23.685   3.918  0.2877 -0.5472 -0.0701
30637OCT     C261274  15.676  23.314   3.749 -0.0800  0.1056 -0.1076
30638OCT     C161275  19.883   1.102   8.837  0.0887  0.2323  0.3779
30638OCT     C261276  20.235   1.056   8.530 -0.1264  0.1004 -0.1986
30639OCT     C161277   3.845  19.606   5.972 -0.1919 -0.1351  0.2098
30639OCT     C261278   3.941  19.314   6.319 -0.0173 -0.1634  0.1286
30640OCT     C161279   2.222  18.743  15.333 -0.4684  0.2876 -0.1977
30640OCT     C261280   2.617  19.020  15.188  0.1736 -0.1976  0.4128
30641OCT     C161281   8.692  22.056   5.746  0.0257 -0.1008  0.1091
30641OCT     C261282   8.402  21.838   5.478  0.1129 -0.0120 -0.0398
30642OCT     C161283  14.838  13.132   9.684 -0.2561 -0.0200 -0.0274
30642OCT     C261284  15.094  12.743   9.763  0.3600  0.0010 -0.0026
30643OCT     C161285   9.208   3.225   7.114 -0.1102 -0.1222  0.2931
30643OCT     C261286   9.109   3.029   7.506  0.4957  0.0137 -0.1714
30644OCT     C161287   9.438   6.991  20.695  0.2075  0.2427  0.5069
30644OCT     C261288   9.839   6.863  20.593 -0.0179  0.1433  0.1241
30645OCT     C161289  17.114  19.904   9.753 -0.2255  0.4386 -0.1954
30645OCT     C261290  16.819  19.557   9.844 -0.1923  0.0397  0.1293
30646OCT     C161291  18.273  20.246  14.489  0.1190  0.1163  0.0385
30646OCT     C261292  18.704  20.292  14.793 -0.1437 -0.3408  0.0469
30647OCT     C161293   6.164  13.775  19.806 -0.2463  0.7068  0.1654
30647OCT     C261294   6.434  14.113  19.583 -0.1126 -0.0299 -0.2512
30648OCT     C161295  21.531  20.519  11.750 -0.3037  0.2399 -0.0953
30648OCT     C261296  21.369  20.082  11.630 -0.1484 -0.2638 -0.1042
30649OCT     C161297   8.130   8.281  15.631  0.4569 -0.2003  0.2143
30649OCT     C261298   8.306   8.619  15.912 -0.2308 -0.0500  0.1597
30650OCT     C161299  15.245  14.822   7.968 -0.0514  0.3303 -0.1264
30650OCT     C261300  15.467  14.441   7.853  0.2085 -0.1725 -0.3925
30651OCT     C161301  13.042  16.167  19.274  0.1873 -0.1262  0.0855
30651OCT     C261302  13.006  16.210  19.743 -0.1565  0.1506  0.2020
30652OCT     C161303   1.389  15.750  21.143  0.2536  0.1673  0.0261
30652OCT     C261304   1.682  15.892  20.806  0.0882 -0.1689  0.4702
30653OCT     C161305   9.575   6.385   7.951  0.0749  0.0560 -0.0006
30653OCT     C261306   9.684   6.666   8.290 -0.1220  0.3797 -0.4077
30654OCT     C161307  14.917  22.355   2.171 -0.3882  0.1159 -0.1190
30654OCT     C261308  15.301  22.308   1.903 -0.1708  0.4331  0.1289
30655OCT     C161309  14.199  21.244   1.615 -0.4441 -0.1836 -0.1532
30655OCT     C261310  14.514  21.366   1.336 -0.2946 -0.1144  0.4891
30656OCT     C161311  20.931   3.917   4.400  0.3787 -0.0327 -0.1711
30656OCT     C261312  21.203   4.241   4.557 -0.0576 -0.2395  0.2171
30657OCT     C161313  13.714   8.354  15.906 -0.2449 -0.2318 -0.0735
30657OCT     C261314  14.141   8.469  16.031  0.1410  0.2262  0.3814
30658OCT     C161315  20.408  22.495  22.339 -0.1543  0.1062 -0.2447
30658OCT     C261316  20.326  22.068  22.597  0.0134  0.3422  0.1071
30659OCT     C161317   5.010  22.797  22.476 -0.0778  0.0011 -0.0376
30659OCT     C261318   5.211  23.026  22.788 -0.1946 -0.0744  0.3141
30660OCT     C161319   9.996  11.587  15.566 -0.0882 -0.0664  0.0248
30660OCT     C261320  10.323  11.332  15.437 -0.3049  0.4290  0.0214
30661OCT     C161321   5.450   2.903  13.548  0.1476 -0.5661 -0.1004
30661OCT     C261322   5.120   2.821  13.850 -0.1115 -0.0597 -0.1192
30662OCT     C161323  21.605  21.453   4.157  0.3682 -0.3131 -0.2093
30662OCT     C261324  21.515  21.009   4.106 -0.1298  0.0584  0.3051
30663OCT     C161325  21.636  20.785  20.070 -0.3678 -0.4701 -0.0171
30663OCT     C261326  21.897  21.003  20.373 -0.1723 -0.0995 -0.0113
30664OCT     C161327   8.083  17.568   6.575  0.0152 -0.1465  0.3607
30664OCT     C261328   8.091  18.037   6.456 -0.0573 -0.1326  0.2355
30665OCT     C161329  23.313  17.210   2.698 -0.0439 -0.0401 -0.4593
30665OCT     C261330  23.228  17.428   3.080 -0.1247 -0.3629 -0.1877
30666OCT     C161331  16.899  19.031   9.973 -0.2492 -0.2533  0.0907
30666OCT     C261332  16.530  19.038   9.643  0.2998 -0.2485 -0.0135
30667OCT     C161333  15.796  10.463   6.486  0.1236  0.1728 -0.0562
30667OCT     C261334  15.885  10.707   6.902 -0.0220 -0.2389  0.0169
30668OCT     C161335  22.622   8.545  12.792  0.3102 -0.1412 -0.0500
30668OCT     C261336  22.611   8.843  12.497 -0.1670  0.2766  0.2800
30669OCT     C161337   6.232  15.421  10.713 -0.0510 -0.0065  0.0504
30669OCT     C261338   6.271  15.078  10.443 -0.1564  0.0121 -0.0490
30670OCT     C161339  12.981   7.843   7.747  0.3330  0.2067  0.0803
30670OCT     C261340  12.839   7.484   7.523 -0.0102  0.3739 -0.0689
30671OCT     C161341   3.829   7.130  14.455  0.2990  0.2206  0.1731
30671OCT     C261342   3.546   7.553  14.476 -0.4092  0.3799  0.1087
30672OCT     C161343   0.531  22.075  14.257 -0.0377  0.1503  0.0223
30672OCT     C261344   0.813  22.419  14.198 -0.0016 -0.0325  0.0462
30673OCT     C161345   3.957  22.120  13.498  0.1107  0.0760 -0.0309
30673OCT     C261346   3.868  21.699  13.374  0.1460 -0.0818  0.0152
30674OCT     C161347  15.908  14.836   1.012 -0.3238 -0.1826 -0.3799
30674OCT     C261348  15.811  14.730   1.429  0.2517  0.1666 -0.3494
30675OCT     C161349  10.499  20.260  22.971  0.0749 -0.2805  0.1847
30675OCT     C261350  10.235  19.947  22.794  0.2583  0.1050  0.0863
30676OCT     C161351   8.532   9.559   9.453 -0.0397 -0.3506  0.0785
30676OCT     C261352   8.399   9.195   9.746  0.0164  0.2815 -0.0366
30677OCT     C161353  19.548   6.895  12.989  0.2213 -0.0124  0.1275
30677OCT     C261354  19.499   7.125  12.518 -0.4462  0.1929 -0.2509
30678OCT     C161355  19.189   0.804  17.080 -0.2688  0.1738  0.0191
30678OCT     C261356  19.462   1.050  16.821 -0.0127  0.0415 -0.0428
30679OCT     C161357   4.451  13.768   2.618 -0.1988 -0.3284  0.4713
30679OCT     C261358   4.219  13.408   2.540  0.0197 -0.1887  0.1121
30680OCT     C161359   4.521  14.777  11.592 -0.1711 -0.0517 -0.0593
30680OCT     C261360   4.550  14.723  12.069  0.0846 -0.0419 -0.2154
30681OCT     C161361  14.443  13.623   2.286  0.1058 -0.1337 -0.1714
30681OCT     C261362  14.314  13.527   1.813  0.0565  0.2353 -0.3828
30682OCT     C161363  14.130  21.743   4.452 -0.0812 -0.1806 -0.3442
30682OCT     C261364  14.422  21.456   4.262 -0.0148 -0.0317 -0.2877
30683OCT     C161365  12.494  13.168  10.871  0.1382  0.3903 -0.3326
30683OCT     C261366  12.569  13.342  10.458 -0.2023 -0.4590  0.0749
30684OCT     C161367  20.671  12.394  18.468 -0.2327  0.0633 -0.3386
30684OCT     C261368  20.370  12.748  18.578 -0.1738 -0.0361  0.0553
30685OCT     C161369  10.251  18.913   6.650  0.1733  0.3113 -0.0552
30685OCT     C261370  10.596  18.956   6.939  0.3044  0.2356 -0.2586
30686OCT     C161371  10.986   4.960  17.971  0.0728  0.1308 -0.2958
30686OCT     C261372  11.063   4.807  17.555 -0.0333  0.0483  0.4263
30687OCT     C161373   2.290   1.805  12.082 -0.2755 -0.0473 -0.3422
30687OCT     C261374   1.957   2.025  11.904 -0.3166 -0.3390 -0.1940
30688OCT     C161375  13.786   4.164  11.086  0.1224 -0.0112 -0.1372
30688OCT     C261376  14.060   4.416  10.773 -0.2938  0.0959  0.2211
30689OCT     C161377  14.857  15.437   1.460 -0.5606 -0.0261 -0.1280
30689OCT     C261378  14.751  15.499   0.971 -0.2690  0.0923 -0.2329
30690OCT     C161379   2.051   4.330  11.353  0.1056  0.0187 -0.0432
30690OCT     C261380   2.009   4.026  10.988  0.0785  0.1553  0.2824
30691OCT     C161381  12.811   5.774  20.121  0.0935  0.1254 -0.6419
30691OCT     C261382  12.699   5.364  20.373  0.0181  0.0103  0.0264
30692OCT     C161383  21.666  15.727   5.341  0.1631 -0.0114 -0.3177
30692OCT     C261384  21.388  15.919   5.703  0.0798 -0.0761 -0.0704
30693OCT     C161385  11.016   4.847  15.991 -0.1572  0.4781  0.2444
30693OCT     C261386  11.219   5.023  15.597 -0.0958  0.5636  0.1694
30694OCT     C161387  15.035  22.721  20.461  0.0035 -0.1013  0.4214
30694OCT     C261388  15.092  22.336  20.107 -0.0074  0.0141 -0.0992
30695OCT     C161389   1.812   6.659   5.519 -0.1150 -0.0321 -0.1773
30695OCT     C261390   1.811   7.135   5.518  0.3456  0.1629 -0.1039
30696OCT     C161391   4.975   4.110  17.116 -0.5966 -0.1138  0.2511
30696OCT     C261392   4.682   3.767  16.978 -0.0528 -0.2370  0.1262
30697OCT     C161393   5.890   0.788   4.142  0.2732  0.2548 -0.1160
30697OCT     C261394   5.497   0.747   3.857 -0.0629 -0.2239 -0.2910
30698OCT     C161395   4.921   5.029  11.149 -0.2067  0.1805 -0.2141
30698OCT     C261396   5.214   4.726  10.830  0.1200 -0.6641 -0.3420
30699OCT     C161397  12.633   3.413  15.068  0.0482 -0.1891  0.0080
30699OCT     C261398  12.306   3.199  15.312  0.2084 -0.4217  0.1665
30700OCT     C161399  16.716   9.093  17.819 -0.3529 -0.0976 -0.2650
30700OCT     C261400  17.123   9.131  17.549 -0.1544  0.0672 -0.4451
30701OCT     C161401  13.913  21.114  19.421 -0.2523 -0.0624  0.0618
30701OCT     C261402  13.833  21.511  19.532 -0.1719 -0.1336  0.2370
30702OCT     C161403   8.943   3.704   6.566  0.2324  0.0656 -0.4169
30702OCT     C261404   9.352   3.694   6.436  0.4075  0.2122  0.1655
30703OCT     C161405  22.682   3.221   9.789  0.3284 -0.0107 -0.2012
30703OCT     C261406  22.868   2.954   9.453 -0.0232 -0.1613  0.1397
30704OCT     C161407  14.025   2.201  10.213  0.1008  0.1658 -0.2009
30704OCT     C261408  14.155   1.913   9.874 -0.2666  0.3462 -0.2570
30705OCT     C161409   7.283   4.938   5.877  0.1540  0.0225 -0.0798
30705OCT     C261410   7.700   4.839   6.117 -0.2413  0.1713  0.0631
30706OCT     C161411  14.071  22.967  11.908 -0.2118 -0.1194 -0.3641
30706OCT     C261412  14.487  22.851  12.107  0.1227  0.2367  0.4306
30707OCT     C161413   4.579   3.674   1.380  0.0844  0.2112  0.0087
30707OCT     C261414   4.503   4.104   1.323  0.0001 -0.3015 -0.2485
30708OCT     C161415  16.414  22.250   8.619 -0.1953 -0.4381 -0.4565
30708OCT     C261416  16.769  22.105   8.434 -0.4191  0.1401 -0.3113
30709OCT     C161417   4.742   2.779   3.485  0.0089  0.0695  0.0176
30709OCT     C261418   5.053   2.511   3.288  0.2638  0.1047  0.4227
30710OCT     C161419  13.552   5.982  17.530  0.1091  0.3296  0.1289
30710OCT     C261420  13.144   6.033  17.791  0.2603  0.1789  0.2297
30711OCT     C161421  10.038  13.524  14.768 -0.0569 -0.0707  0.2004
30711OCT     C261422  10.128  13.402  15.197 -0.1859  0.4142 -0.2747
30712OCT     C161423  19.792   3.087  18.957  0.2426  0.0133  0.1592
30712OCT     C261424  20.197   3.023  18.774  0.1103 -0.0831  0.1736
30713OCT     C161425  15.613  18.514  14.767 -0.2679  0.1347  0.1849
30713OCT     C261426  15.537  18.939  14.919 -0.1034  0.2407 -0.0160
30714OCT     C161427  14.292  13.631  17.463 -0.2985 -0.3175 -0.4898
30714OCT     C261428  14.140  13.890  17.814  0.2578  0.2285  0.2400
30715OCT     C161429  13.533  16.835   1.017 -0.2897 -0.2780 -0.0064
30715OCT     C261430  13.486  16.380   0.826 -0.2281  0.5750 -0.1586
30716OCT     C161431   6.067  18.468   8.508 -0.4709  0.2958 -0.1015
30716OCT     C261432   6.041  18.262   8.932  0.1250  0.0765 -0.2872
30717OCT     C161433  10.658   1.733  11.135  0.0710 -0.0088 -0.0805
30717OCT     C261434  10.554   1.332  10.919  0.0016  0.0455  0.3038
30718OCT     C161435   9.707   4.751   2.490 -0.1088  0.1689 -0.2383
30718OCT     C261436  10.013   4.641   2.153 -0.2132  0.0084 -0.1501
30719OCT     C161437  18.717   0.397   1.793 -0.2579 -0.4653  0.2432
30719OCT     C261438  18.394   0.392   2.142  0.1079  0.1515  0.0338
30720OCT     C161439  14.173  12.254   9.405 -0.0325  0.1789  0.1337
30720OCT     C261440  13.723  12.136   9.359  0.1756  0.1904  0.0454
30721OCT     C161441  14.863  21.607  17.426  0.0743  0.3146  0.2296
30721OCT     C261442  15.184  21.948  17.310 -0.0241 -0.2271 -0.2449
30722OCT     C161443  19.870  17.613  13.004 -0.5423 -0.1643 -0.0191
30722OCT     C261444  20.081  17.283  13.228 -0.2415 -0.3424 -0.1081
30723OCT     C161445   5.834  15.235   2.178  0.4972  0.1838 -0.0507
30723OCT     C261446   6.027  15.013   2.566 -0.1922  0.1313  0.1838
30724OCT     C161447   0.468  20.738   9.881 -0.0973 -0.0103  0.0447
30724OCT     C261448   0.888  20.611   9.980 -0.0436  0.1113  0.1571
30725OCT     C161449   8.656   4.375   8.779  0.2575  0.2082 -0.0578
30725OCT     C261450   8.221   4.343   8.623 -0.2222  0.1934  0.1930
30726OCT     C161451  10.391  16.520  11.861 -0.1166  0.0691  0.1245
30726OCT     C261452  10.333  16.951  11.700 -0.1299 -0.2428 -0.2983
30727OCT     C161453   5.845  13.822  13.778  0.2091  0.0556  0.0135
30727OCT     C261454   5.515  13.552  13.862  0.1765  0.3710 -0.0112
30728OCT     C161455  11.374   9.124   0.343  0.0546  0.4442  0.1190
30728OCT     C261456  11.098   9.042   0.710 -0.0223 -0.7682  0.2911
30729OCT     C161457   2.666  15.026  13.498  0.0802 -0.0343 -0.0044
30729OCT     C261458   2.740  14.996  12.999 -0.0367  0.1561  0.4157
30730OCT     C161459  18.408  14.082  14.509  0.1992 -0.2280  0.2917
30730OCT     C261460  18.420  14.392  14.862 -0.1868 -0.0768 -0.2234
30731OCT     C161461   6.369   4.721   9.347  0.3652  0.3205 -0.0390
30731OCT     C261462   6.513   4.406   9.054 -0.0364 -0.4274  0.3364
30732OCT     C161463  18.315  21.268  22.591  0.1109  0.4158  0.0826
30732OCT     C261464  18.235  20.799  22.517 -0.3079 -0.0721  0.0083
30733OCT     C161465   9.433   2.350  20.113  0.0980 -0.1987  0.0294
30733OCT     C261466   9.504   2.118  20.490  0.1874 -0.1144 -0.3484
30734OCT     C161467   2.378   7.139  19.212  0.3058  0.0566 -0.1262
30734OCT     C261468   2.055   7.287  19.563  0.1584  0.1552  0.0226
30735OCT     C161469   8.974   4.391   9.733 -0.1494  0.3186 -0.4229
30735OCT     C261470   9.251   4.228   9.396 -0.2455  0.0221  0.1032
30736OCT     C161471   8.290   7.071   5.201 -0.2608  0.2622  0.1577
30736OCT     C261472   8.703   7.137   5.453  0.0698  0.0662  0.1216
30737OCT     C161473   0.735   5.347   4.854 -0.2119  0.3387  0.3730
30737OCT     C261474   0.520   5.637   4.619  0.0647  0.0792  0.2068
30738OCT     C161475  17.026  17.376  16.066 -0.1114 -0.0638  0.0642
30738OCT     C261476  17.134  17.348  16.527  0.1468  0.2656 -0.1049
30739OCT     C161477  15.428  12.186   8.371  0.1705 -0.2145  0.1189
30739OCT     C261478  15.132  11.938   8.045 -0.2238 -0.1385 -0.2194
30740OCT     C161479   3.027  17.794  10.835  0.2472  0.1073 -0.2003
30740OCT     C261480   3.499  17.937  10.870 -0.0184 -0.0354  0.2388
30741OCT     C161481   3.131   7.406   8.846 -0.3675  0.0995 -0.0895
30741OCT     C261482   3.382   7.398   9.228  0.3432  0.0380  0.3153
30742OCT     C161483  22.815  22.462   4.719 -0.0257 -0.0231 -0.0723
30742OCT     C261484  22.671  22.896   4.972  0.0453  0.0288 -0.0059
30743OCT     C161485  14.079   7.410  17.909 -0.3485 -0.1781 -0.1020
30743OCT     C261486  13.905   7.445  18.304  0.1653  0.0701  0.0074
30744OCT     C161487  13.875   0.565   9.288  0.0376 -0.0250 -0.1552
30744OCT     C261488  13.849   0.979   9.495 -0.2860 -0.1904 -0.0797
30745OCT     C161489   3.020  22.543   7.609 -0.1129 -0.1304 -0.5051
30745OCT     C261490   3.397  22.885   7.681  0.0536  0.0014 -0.0966
30746OCT     C161491   4.844  15.719  11.776 -0.3706  0.1772  0.1219
30746OCT     C261492   5.208  15.964  11.596 -0.4194  0.1038 -0.2137
30747OCT     C161493   6.868   2.056  11.906  0.4289  0.0412  0.1107
30747OCT     C261494   7.047   1.637  11.890 -0.0024  0.0686  0.0578
30748OCT     C161495  14.810  11.715   9.857 -0.0455  0.2164  0.2055
30748OCT     C261496  14.796  11.646  10.316  0.0831  0.0442  0.4543
30749OCT     C161497  22.264   6.385   1.524 -0.0406 -0.2104  0.0137
30749OCT     C261498  22.481   6.781   1.609 -0.2478 -0.0764  0.1248
30750OCT     C161499   2.615  17.855  22.454  0.6148 -0.0569 -0.0119
30750OCT     C261500   2.191  17.625  22.558  0.0869  0.0482  0.0710
30751OCT     C161501  12.954  22.279  13.391  0.1780 -0.2469  0.0676
30751OCT     C261502  12.568  22.049  13.361 -0.2729  0.2202 -0.1184
30752OCT     C161503  23.034  12.091   6.515  0.0571 -0.3680 -0.1837
30752OCT     C261504  23.102  12.322   6.902 -0.2215  0.0148 -0.0308
30753OCT     C161505  16.538  20.556   4.691  0.0064  0.0178  0.1382
30753OCT     C261506  16.532  20.999   4.911  0.0454  0.0102 -0.0118
30754OCT     C161507  16.727  19.239   4.743 -0.1553 -0.0477  0.1526
30754OCT     C261508  16.733  19.393   5.187 -0.4121 -0.0537  0.1819
30755OCT     C161509  22.837  14.846  23.708  0.0007 -0.4356 -0.2117
30755OCT     C261510  23.252  14.558  23.723 -0.0215 -0.5280  0.0395
30756OCT     C161511   2.776   5.354   2.272 -0.0349  0.0013  0.0236
30756OCT     C261512   3.154   5.239   2.515  0.1524 -0.1685 -0.0878
30757OCT     C161513  16.568  10.401  16.663 -0.2868  0.1212 -0.0020
30757OCT     C261514  16.712  10.568  17.099  0.2237 -0.3002 -0.0132
30758OCT     C161515  17.666   0.206   0.386 -0.0804  0.0426 -0.2044
30758OCT     C261516  17.348  23.655   0.142  0.0889  0.1179 -0.1984
30759OCT     C161517   5.058  17.350   5.177  0.2634 -0.0029 -0.0598
30759OCT     C261518   5.191  17.710   4.974  0.0273 -0.1923 -0.1854
30760OCT     C161519  17.790  11.091  18.175 -0.1425  0.0252 -0.1302
30760OCT     C261520  17.584  10.710  18.360 -0.2569 -0.3429  0.1263
30761OCT     C161521   2.494   9.017  13.134 -0.0611  0.2658 -0.0167
30761OCT     C261522   2.466   9.157  13.552  0.1765 -0.0934 -0.0031
30762OCT     C161523   5.387  10.465   2.166  0.0859 -0.1883  0.1024
30762OCT     C261524   5.565  10.251   1.801  0.1761 -0.1949 -0.0494
30763OCT     C161525   1.815  11.762  21.939 -0.0982 -0.3202 -0.0974
30763OCT     C261526   1.967  11.559  22.363  0.1867 -0.1174  0.3455
30764OCT     C161527  17.153   8.392  21.419 -0.1096 -0.1497  0.1841
30764OCT     C261528  17.505   8.191  21.225  0.0503 -0.1460  0.0151
30765OCT     C161529  11.835  11.712   9.679  0.1049  0.1671  0.1049
30765OCT     C261530  12.078  11.555  10.056  0.2628  0.1733 -0.1768
30766OCT     C161531  13.635   3.057   3.552 -0.1175 -0.2941 -0.0032
30766OCT     C261532  13.459   3.289   3.860  0.1923 -0.3435 -0.1316
30767OCT     C161533   2.982   6.076  11.405 -0.0023  0.0618 -0.4736
30767OCT     C261534   3.425   6.134  11.454 -0.0268 -0.4039  0.0064
30768OCT     C161535   7.532   4.872  13.815  0.1600 -0.1187  0.0646
30768OCT     C261536   7.149   5.012  14.011  0.0267  0.0327 -0.3264
30769OCT     C161537   8.217   6.043   9.803  0.1677 -0.0833 -0.0027
30769OCT     C261538   8.291   6.048  10.238 -0.1172 -0.2093  0.1472
30770OCT     C161539  16.357  20.921  13.178 -0.1486 -0.1065 -0.1014
30770OCT     C261540  15.963  20.737  12.942  0.2401  0.0975 -0.0661
30771OCT     C161541   3.111  14.399  13.831 -0.0783  0.0240  0.2123
30771OCT     C261542   2.916  14.765  13.919  0.1592 -0.1047 -0.0793
30772OCT     C161543  11.269   9.814  17.696  0.1265 -0.2484 -0.0294
30772OCT     C261544  10.873   9.992  17.903 -0.4517 -0.0604 -0.0620
30773OCT     C161545  21.538   7.055  19.531  0.1611  0.0740 -0.0163
30773OCT     C261546  21.628   6.579  19.316 -0.3349  0.0193 -0.2891
30774OCT     C161547   2.088  13.535  10.732  0.0021  0.5528 -0.0786
30774OCT     C261548   2.200  13.717  11.202  0.3612  0.0761 -0.0015
30775OCT     C161549  19.092   1.811   0.891 -0.0537  0.1162  0.3578
30775OCT     C261550  18.628   1.705   0.822 -0.1102  0.1108  0.2191
30776OCT     C161551  15.896  18.980   7.847  0.0948 -0.2943 -0.1359
30776OCT     C261552  15.511  18.626   7.748  0.1464  0.3458  0.0838
30777OCT     C161553  21.808  11.040   8.544  0.0986  0.0041  0.0587
30777OCT     C261554  21.367  11.213   8.707 -0.2419 -0.4250 -0.2278
30778OCT     C161555  16.930   0.869  19.324  0.1587  0.2370 -0.0534
30778OCT     C261556  17.190   0.764  19.646 -0.1631  0.0526 -0.2048
30779OCT     C161557  14.133  13.487  14.675  0.1022 -0.0763  0.0317
30779OCT     C261558  13.841  13.727  14.962  0.0804 -0.0205 -0.1027
30780OCT     C161559  16.703  13.239   4.799  0.2155 -0.3977  0.1356
30780OCT     C261560  16.564  13.609   5.022  0.1813 -0.0301 -0.3600
30781OCT     C161561  10.293  12.144   1.834 -0.1399  0.0905 -0.6972
30781OCT     C261562   9.975  12.435   1.682  0.1351 -0.3028 -0.0078
30782OCT     C161563   1.816  11.631   7.907 -0.1346  0.0650 -0.1599
30782OCT     C261564   1.399  11.762   7.812  0.1125 -0.0153  0.1649
30783OCT     C161565  19.969  16.065  17.087 -0.0394 -0.1611  0.0127
30783OCT     C261566  19.670  16.330  17.328  0.2987 -0.1718 -0.2463
30784OCT     C161567   3.183  22.129  20.972  0.1356  0.0781  0.0966
30784OCT     C261568   3.539  22.182  20.679 -0.1818 -0.0498 -0.0879
30785OCT     C161569   2.940   1.629  11.364  0.0756 -0.0757  0.0839
30785OCT     C261570   3.213   1.469  11.062  0.3415  0.0011 -0.0098
30786OCT     C161571   6.971   3.648   5.190 -0.0006  0.1015  0.1318
30786OCT     C261572   7.115   3.926   4.898 -0.1974 -0.0695 -0.1501
30787OCT     C161573   1.089   8.078   7.212  0.1578 -0.1727 -0.2845
30787OCT     C261574   1.329   7.878   6.877 -0.1315  0.0416 -0.0297
30788OCT     C161575  19.153  22.108  18.245  0.0392  0.1225  0.2833
30788OCT     C261576  19.053  22.271  18.703  0.0949 -0.1710  0.0858
30789OCT     C161577  17.809   3.890   8.965  0.2939 -0.0306  0.2269
30789OCT     C261578  17.432   4.166   9.018  0.0081  0.2933  0.1117
30790OCT     C161579  11.795  14.108   8.059 -0.0533  0.1458  0.3012
30790OCT     C261580  11.477  14.253   8.335 -0.1041  0.4488  0.1205
30791OCT     C161581  15.473  16.475   4.094 -0.2593 -0.1919  0.4567
30791OCT     C261582  15.312  16.882   4.302 -0.0950  0.1815  0.2759
30792OCT     C161583   4.094   1.167   9.654 -0.0154 -0.0839  0.2757
30792OCT     C261584   3.865   0.779   9.627 -0.1204  0.2910 -0.2878
30793OCT     C161585  12.285  22.570   5.917  0.3635  0.0322 -0.4575
30793OCT     C261586  12.501  22.456   6.322  0.3525 -0.2064  0.0583
30794OCT     C161587  14.310  10.503  19.778  0.3475 -0.3714 -0.0665
30794OCT     C261588  14.009  10.805  20.016 -0.1032 -0.0382  0.2658
30795OCT     C161589  23.565  17.055   5.111 -0.0407  0.1621  0.1963
30795OCT     C261590  23.180  17.226   4.967 -0.1132  0.1975  0.0775
30796OCT     C161591  19.194  11.924   1.346 -0.1992  0.2132  0.2769
30796OCT     C261592  18.897  11.606   1.458  0.0590 -0.2399  0.2155
30797OCT     C161593  22.201  19.227  23.492 -0.0967 -0.1175 -0.1973
30797OCT     C261594  22.165  18.801  23.261 -0.2536 -0.0895 -0.1227
30798OCT     C161595   4.714   1.257   7.013  0.0720  0.0882 -0.3257
30798OCT     C261596   5.138   1.319   7.240 -0.1892  0.2115 -0.1124
30799OCT     C161597  19.879   0.222   8.527  0.2032  0.3343 -0.1803
30799OCT     C261598  19.997   0.649   8.354 -0.3133  0.0969  0.0276
30800OCT     C161599   9.072  22.951   0.969 -0.1511  0.2816 -0.2728
30800OCT     C261600   9.501  23.016   1.148 -0.1650  0.3009  0.3765
30801OCT     C161601   0.915   6.573  20.635  0.0281 -0.2054  0.0465
30801OCT     C261602   0.461   6.523  20.615  0.3148  0.1726 -0.3351
30802OCT     C161603  16.326  19.907   1.961 -0.0522  0.2721  0.2604
30802OCT     C261604  16.331  19.690   2.319  0.2346 -0.0526 -0.4769
30803OCT     C161605  17.323   8.927  13.280  0.0605  0.0543  0.1792
30803OCT     C261606  17.741   8.753  13.170 -0.2372 -0.2027  0.2920
30804OCT     C161607   5.971   0.587  19.376  0.0019 -0.1516  0.1661
30804OCT     C261608   6.294   0.809  19.645 -0.2635 -0.0690 -0.2596
30805OCT     C161609  18.948   4.377   4.816  0.1174 -0.2968 -0.1714
30805OCT     C261610  19.366   4.549   4.598  0.1965  0.2125  0.3673
30806OCT     C161611  15.828   4.088  13.703  0.0598 -0.0057  0.2423
30806OCT     C261612  15.365   4.188  13.786  0.0277  0.1851 -0.1982
30807OCT     C161613  11.792  13.066   5.282  0.2549 -0.0591 -0.3233
30807OCT     C261614  11.612  12.679   5.161  0.1285  0.2894  0.2513
30808OCT     C161615   0.321   8.632  21.907 -0.0355 -0.1451 -0.1192
30808OCT     C261616   0.754   8.763  21.732  0.2732 -0.1146 -0.2380
30809OCT     C161617   8.659   6.343  18.282  0.0867  0.2103  0.0210
30809OCT     C261618   8.808   6.196  18.703 -0.4206 -0.0544 -0.2735
30810OCT     C161619   8.086  22.436  21.731 -0.2945 -0.1400  0.0239
30810OCT     C261620   7.799  22.123  21.555  0.0922  0.0732  0.0845
30811OCT     C161621  13.226  13.924  18.623  0.5088 -0.1425  0.0776
30811OCT     C261622  13.569  14.276  18.577  0.1976  0.3503  0.2580
30812OCT     C161623   5.227  15.509  19.963 -0.2339 -0.3151  0.2123
30812OCT     C261624   5.656  15.623  19.831  0.0230  0.3045 -0.1825
30813OCT     C161625  17.555   6.053   8.305  0.0440  0.1598  0.1500
30813OCT     C261626  17.121   6.266   8.359  0.3163 -0.2097 -0.3741
30814OCT     C161627   6.166  11.347   1.698  0.0441  0.4747  0.1783
30814OCT     C261628   6.294  11.695   1.494  0.2256  0.0355 -0.0040
30815OCT     C161629  22.517  17.864   0.445 -0.0478  0.2310 -0.4065
30815OCT     C261630  22.132  17.638   0.201  0.3532 -0.1516 -0.2994
30816OCT     C161631   5.363  22.591   8.175 -0.2944 -0.4147 -0.0039
30816OCT     C261632   5.349  23.004   7.979 -0.1721  0.3744  0.2177
30817OCT     C161633  22.778  21.408  21.752 -0.3052 -0.2212 -0.1938
30817OCT     C261634  22.561  21.459  22.126  0.1577  0.1239  0.0549
30818OCT     C161635   5.432   4.314   8.451  0.0343 -0.3504  0.0496
30818OCT     C261636   5.188   4.237   8.819 -0.0969 -0.2820 -0.0908
30819OCT     C161637   4.437  11.983   7.128  0.3813  0.0495 -0.1234
30819OCT     C261638   4.479  11.756   7.542 -0.0194  0.2021  0.2792
30820OCT     C161639  16.829   3.102   1.164 -0.0338 -0.0860 -0.0211
30820OCT     C261640  17.006   2.652   0.967 -0.0861 -0.1439 -0.2401
30821OCT     C161641   3.583  20.275  22.157 -0.3360  0.3727  0.1528
30821OCT     C261642   3.542  20.060  21.745 -0.0018 -0.2594  0.1059
30822OCT     C161643   4.131  15.591   3.506  0.0898 -0.0296 -0.1290
30822OCT     C261644   4.204  15.183   3.708 -0.1409  0.0657  0.1790
30823OCT     C161645  14.603  11.427  13.002 -0.1717  0.2452 -0.1401
30823OCT     C261646  14.779  11.737  12.714 -0.1187  0.2618  0.3401
30824OCT     C161647   8.262  13.540  19.954  0.1665 -0.1501 -0.2116
30824OCT     C261648   8.616  13.538  20.266 -0.1426  0.0330  0.0647
30825OCT     C161649  16.764  19.868  16.732 -0.0168  0.2890  0.2199
30825OCT     C261650  16.785  20.075  17.140  0.2242  0.1300 -0.4007
30826OCT     C161651   8.861   1.157   9.344  0.0109 -0.0069 -0.0760
30826OCT     C261652   9.000   1.273   9.753  0.1651  0.0843 -0.2467
30827OCT     C161653  22.183  21.425  21.714  0.3515 -0.2355  0.1113
30827OCT     C261654  22.250  21.849  21.900  0.0905 -0.0096  0.0143
30828OCT     C161655  18.368  12.071  22.410  0.0768  0.2628 -0.0207
30828OCT     C261656  18.481  12.052  21.994 -0.1817  0.0822 -0.3107
30829OCT     C161657   8.027  11.240   1.505  0.0749 -0.2275 -0.0062
30829OCT     C261658   8.041  10.837   1.753  0.2168 -0.0834 -0.0135
30830OCT     C161659  17.101  19.478  13.895 -0.2631  0.0370 -0.0818
30830OCT     C261660  17.581  19.379  13.996  0.1124 -0.1098  0.0153
30831OCT     C161661  13.685   9.074   5.110  0.0671  0.2142  0.0047
30831OCT     C261662  13.881   9.295   5.463  0.1971 -0.0019 -0.1125
30832OCT     C161663   1.676  19.775  14.819 -0.1498 -0.0796 -0.0738
30832OCT     C261664   1.525  19.472  14.486  0.3116  0.1085  0.1748
30833OCT     C161665  15.918  12.701  11.233 -0.0425  0.2302  0.1291
30833OCT     C261666  15.925  12.474  11.640 -0.2973 -0.0688  0.0517
30834OCT     C161667  12.644   8.034   3.314  0.3023 -0.2962 -0.1685
30834OCT     C261668  12.801   7.593   3.348  0.1740 -0.1494 -0.0845
30835OCT     C161669  12.832  22.769  12.019  0.1613  0.0497  0.1828
30835OCT     C261670  13.211  22.761  12.330 -0.1475  0.1597 -0.1979
30836OCT     C161671  23.279   7.814  23.369 -0.1780 -0.0668 -0.0766
30836OCT     C261672  23.677   8.022  23.240  0.4452 -0.2081 -0.3780
30837OCT     C161673  22.830  17.810   5.530  0.1537  0.1426 -0.3546
30837OCT     C261674  23.038  18.212   5.706 -0.2661  0.2069 -0.3078
30838OCT     C161675   8.229   0.461  18.852  0.2110 -0.1949  0.0679
30838OCT     C261676   8.441   0.797  18.551  0.0910  0.1919  0.2126
30839OCT     C161677   6.672  16.724  15.942 -0.2889 -0.1234 -0.1479
30839OCT     C261678   7.137  16.668  15.955 -0.3934  0.0089  0.2708
30840OCT     C161679  17.407   0.915  12.223  0.1559 -0.2010 -0.0260
30840OCT     C261680  17.189   0.925  11.771 -0.2158  0.0222 -0.0799
30841OCT     C161681  17.594   2.589   7.636 -0.0951  0.0265 -0.0762
30841OCT     C261682  17.229   2.814   7.743 -0.0504 -0.0596 -0.0308
30842OCT     C161683  14.210   7.476   2.855  0.3164  0.1598 -0.1561
30842OCT     C261684  14.090   7.928   2.870 -0.1754  0.2139  0.0160
30843OCT     C161685   0.460  18.453  20.393 -0.3519  0.4435  0.2562
30843OCT     C261686   0.771  18.691  20.619  0.1458  0.1958 -0.2045
30844OCT     C161687   7.323  19.654  11.210  0.0101  0.3728 -0.0324
30844OCT     C261688   7.561  20.007  10.944 -0.2015 -0.0275 -0.3816
30845OCT     C161689  23.466  17.970  12.521  0.2347  0.3047 -0.1165
30845OCT     C261690  23.637  18.341  12.817  0.1921 -0.1746  0.0581
30846OCT     C161691  23.342  22.314  19.306  0.0123 -0.2401 -0.2841
30846OCT     C261692  23.477  22.045  19.692  0.1118 -0.3910 -0.0706
30847OCT     C161693  18.155  23.335   7.637 -0.2964  0.1808  0.0170
30847OCT     C261694  17.973  23.391   7.228 -0.0896  0.0815 -0.1291
30848OCT     C161695   9.217  14.001  23.011  0.0670  0.2332  0.1421
30848OCT     C261696   9.101  13.565  22.955  0.0774 -0.1971 -0.0209
30849OCT     C161697   1.726  22.485  10.909  0.4928 -0.1133  0.0277
30849OCT     C261698   2.156  22.601  10.767 -0.0748 -0.3672  0.0113
30850OCT     C161699  20.409   9.880   6.973  0.2207  0.0007 -0.0210
30850OCT     C261700  20.576   9.789   6.535  0.2452  0.0630 -0.5861
30851OCT     C161701  23.493  21.176  13.276  0.1014  0.0244  0.1215
30851OCT     C261702  23.412  21.247  12.840 -0.3025  0.1772 -0.0557
30852OCT     C161703  23.218  17.250   6.247  0.1568  0.2973  0.0790
30852OCT     C261704  23.254  16.871   5.956  0.2096  0.3553 -0.0343
30853OCT     C161705  15.425   1.390  21.953  0.2772  0.1657 -0.0789
30853OCT     C261706  14.996   1.491  22.021  0.1199  0.1989  0.0337
30854OCT     C161707   9.959  17.486   1.327  0.4459 -0.2726 -0.1089
30854OCT     C261708   9.776  17.043   1.169 -0.0422 -0.2050  0.0263
30855OCT     C161709   9.617  22.007  15.226 -0.3335  0.4646  0.4656
30855OCT     C261710   9.229  21.924  14.989  0.0202  0.0566  0.0864
30856OCT     C161711   2.799  14.090   7.553 -0.1341 -0.0482 -0.0449
30856OCT     C261712   2.801  14.550   7.580 -0.0899 -0.0573  0.0020
30857OCT     C161713   9.665  20.031  17.908  0.5029 -0.0900 -0.2296
30857OCT     C261714   9.383  20.399  18.025  0.1082  0.2842 -0.0061
30858OCT     C161715   4.696  20.139   8.173  0.0672  0.1471 -0.0381
30858OCT     C261716   4.563  20.058   8.662  0.4479 -0.3670  0.2243
30859OCT     C161717   5.657   5.783   4.857 -0.2057  0.0363  0.2811
30859OCT     C261718   5.354   5.803   5.208  0.2019 -0.4102  0.2382
30860OCT     C161719  15.048   5.345   8.465 -0.0657 -0.2924  0.2003
30860OCT     C261720  15.391   5.539   8.727 -0.2824  0.2269  0.2025
30861OCT     C161721   8.450  17.488   5.236 -0.2607  0.1299 -0.0888
30861OCT     C261722   8.700  17.826   5.379 -0.3119  0.1517  0.1304
30862OCT     C161723  14.642  16.017  21.080  0.2319 -0.0748 -0.2082
30862OCT     C261724  14.957  15.746  20.966 -0.0769 -0.1384 -0.4364
30863OCT     C161725  10.122   1.252  12.495 -0.5438 -0.1221 -0.4394
30863OCT     C261726   9.773   1.279  12.833 -0.4673  0.2429  0.0918
30864OCT     C161727  16.645  19.099  22.687  0.2860  0.4852 -0.3450
30864OCT     C261728  16.204  18.871  22.662 -0.1117 -0.3946 -0.1872
30865OCT     C161729  21.621  12.028  13.992  0.3003  0.0170  0.2590
30865OCT     C261730  21.771  12.243  14.403  0.2579  0.0901 -0.0350
30866OCT     C161731  14.563  12.769   3.784 -0.1519  0.1015 -0.0126
30866OCT     C261732  14.610  13.108   4.096 -0.0058 -0.2354 -0.0611
30867OCT     C161733  10.317  13.492  18.105  0.1329  0.3313 -0.1196
30867OCT     C261734  10.301  13.754  18.445 -0.1043  0.0735 -0.4400
30868OCT     C161735   3.450  22.711   5.767 -0.0507  0.0756 -0.3964
30868OCT     C261736   3.638  22.405   6.068 -0.1712 -0.0330  0.0300
30869OCT     C161737  17.771   8.714   1.580 -0.3775 -0.2267  0.0621
30869OCT     C261738  18.008   8.537   1.977  0.4004  0.0399 -0.1731
30870OCT     C161739   3.059  19.019   0.933 -0.3335  0.1057 -0.3197
30870OCT     C261740   3.287  18.762   0.620  0.3673 -0.0274 -0.0563
30871OCT     C161741   0.784  18.275   9.534  0.2062  0.0877 -0.4061
30871OCT     C261742   0.541  17.894   9.564 -0.5305  0.1141 -0.1640
30872OCT     C161743   5.492  12.642  10.926 -0.1892  0.4437 -0.0983
30872OCT     C261744   5.982  12.633  10.873  0.1979  0.4587  0.3438
30873OCT     C161745  16.590   7.030  20.449  0.2399  0.1150  0.0646
30873OCT     C261746  16.086   6.936  20.342  0.1582 -0.2107 -0.1908
30874OCT     C161747  11.361  19.824   8.182  0.1721 -0.1518  0.1343
30874OCT     C261748  11.113  19.938   8.554  0.0238  0.1216  0.0148
30875OCT     C161749   2.486   4.004   0.691  0.2356  0.1387  0.0223
30875OCT     C261750   2.053   4.082   0.505 -0.0468  0.2250 -0.4193
30876OCT     C161751  17.938  16.241   9.077 -0.0742  0.2352 -0.0882
30876OCT     C261752  17.785  16.531   9.348 -0.2353  0.3991 -0.1829
30877OCT     C161753   6.196  22.139   6.307  0.2517 -0.0321 -0.0807
30877OCT     C261754   6.208  22.097   6.776  0.1729  0.1762  0.1407
30878OCT     C161755  14.866   6.939  14.620  0.1795 -0.2257  0.0223
30878OCT     C261756  15.176   7.208  14.656 -0.0202 -0.2939 -0.1424
30879OCT     C161757  23.460  18.919  11.584 -0.2502 -0.3010 -0.3188
30879OCT     C261758  23.619  19.281  11.870 -0.4978 -0.1369  0.1765
30880OCT     C161759  21.639  11.093  17.158  0.0332 -0.1970 -0.2037
30880OCT     C261760  21.715  11.492  16.864 -0.1485 -0.1167  0.2756
30881OCT     C161761  10.735  23.298  16.849 -0.2562  0.1900 -0.1693
30881OCT     C261762  10.839  23.097  17.281 -0.3931 -0.5828  0.0645
30882OCT     C161763  14.306   7.037   0.021 -0.0979  0.3568 -0.1030
30882OCT     C261764  14.253   6.844   0.425 -0.1462  0.0722 -0.0828
30883OCT     C161765  10.189  10.342  18.598 -0.5902  0.1227  0.0161
30883OCT     C261766  10.182  10.068  18.911  0.1411 -0.0176  0.2195
30884OCT     C161767   4.304  14.157   0.741  0.1080 -0.0959 -0.0976
30884OCT     C261768   4.750  14.269   0.524  0.0528  0.0321 -0.3808
30885OCT     C161769  21.043   8.701   8.406  0.1160  0.0719 -0.0941
30885OCT     C261770  21.125   8.538   7.952  0.0648 -0.0138  0.0380
30886OCT     C161771   4.968  13.570  18.529 -0.0654  0.0879  0.0935
30886OCT     C261772   4.756  13.662  18.952  0.0610 -0.1102  0.1280
30887OCT     C161773   2.126   4.443   4.030 -0.2339  0.2351 -0.1296
30887OCT     C261774   2.517   4.585   4.225  0.0765  0.1331 -0.0601
30888OCT     C161775  22.237  10.801   9.977 -0.1208  0.1017  0.1912
30888OCT     C261776  22.447  10.459  10.162  0.2095  0.0758 -0.0405
30889OCT     C161777   2.810  14.593  22.637  0.5478 -0.1201 -0.0288
30889OCT     C261778   2.667  14.691  23.049 -0.1247 -0.0657 -0.1041
30890OCT     C161779   0.601   9.993  19.567  0.1246  0.0914  0.1107
30890OCT     C261780   0.221  10.007  19.801  0.0612  0.3583  0.1240
30891OCT     C161781   4.335   3.475   4.135  0.1724 -0.1695  0.0512
30891OCT     C261782   4.545   3.562   3.729 -0.2006 -0.0109  0.0038
30892OCT     C161783  19.871   7.481   3.799  0.1520 -0.2210 -0.1003
30892OCT     C261784  19.598   7.397   3.409  0.3524 -0.2022  0.0698
30893OCT     C161785   1.111   7.900  15.836  0.1342 -0.1917  0.1055
30893OCT     C261786   1.247   7.502  15.677  0.0638 -0.2123 -0.0203
30894OCT     C161787  11.140   0.472  14.315 -0.1492 -0.3496 -0.1279
30894OCT     C261788  10.739   0.186  14.494  0.1191 -0.0086 -0.1744
30895OCT     C161789   1.160  17.348  17.682 -0.3120  0.1216  0.1263
30895OCT     C261790   1.266  17.617  18.080 -0.2106  0.2315  0.1779
30896OCT     C161791   0.368   2.727  17.186 -0.1799  0.2290 -0.1364
30896OCT     C261792   0.034   2.985  17.252  0.1822  0.1318  0.0150
30897OCT     C161793  19.243   6.210   2.609 -0.2236 -0.2756 -0.1226
30897OCT     C261794  19.718   6.211   2.727 -0.0041  0.0424 -0.0627
30898OCT     C161795   2.509   2.467   9.587 -0.0802  0.0132  0.0826
30898OCT     C261796   2.417   2.028   9.455 -0.1957  0.1407  0.2772
30899OCT     C161797   8.558  16.852   8.781 -0.2788 -0.0092  0.0298
30899OCT     C261798   8.847  16.887   8.431  0.4028 -0.0507  0.1630
30900OCT     C161799   3.829   4.438   6.095  0.3202 -0.2557  0.1232
30900OCT     C261800   4.118   4.568   5.793  0.0213 -0.1320 -0.8016
30901OCT     C161801   7.090  18.991   6.363 -0.1331  0.0207 -0.1841
30901OCT     C261802   7.461  19.235   6.255 -0.0472  0.0113 -0.4091
30902OCT     C161803  20.711   2.555   8.548 -0.2895 -0.3089 -0.2268
30902OCT     C261804  20.807   2.275   8.205 -0.0440 -0.1477  0.0323
30903OCT     C161805  17.554  12.759  13.666  0.0126 -0.2074 -0.3568
30903OCT     C261806  17.130  12.539  13.665 -0.1235  0.0481  0.1249
30904OCT     C161807   3.889   9.884  12.299 -0.1672 -0.0909  0.0305
30904OCT     C261808   3.726   9.450  12.291 -0.2338  0.0421 -0.0296
30905OCT     C161809  22.557  21.084  13.006  0.1144  0.2020 -0.0572
30905OCT     C261810  22.166  21.322  12.900 -0.0723 -0.3389  0.3677
30906OCT     C161811  15.826   2.446   1.330 -0.2484 -0.0411 -0.2377
30906OCT     C261812  15.789   2.312   0.873  0.4802 -0.2904  0.1366
30907OCT     C161813  17.378  12.403   7.017  0.0959  0.2384 -0.1880
30907OCT     C261814  17.541  12.854   6.991 -0.1529 -0.1784  0.1792
30908OCT     C161815  19.790  21.049  23.021 -0.1266  0.0066  0.2152
30908OCT     C261816  20.118  21.341  22.902  0.0304  0.1311 -0.0871
30909OCT     C161817  20.055  16.753  18.757 -0.1700 -0.0865  0.1497
30909OCT     C261818  19.595  16.727  18.867  0.0062  0.0604  0.0784
30910OCT     C161819   2.680   1.783   7.621 -0.4949 -0.1428  0.0053
30910OCT     C261820   2.792   1.683   7.184  0.0896 -0.1191 -0.0802
30911OCT     C161821  21.307  13.267   9.671 -0.0270 -0.0149 -0.3609
30911OCT     C261822  20.886  13.053   9.809  0.0006  0.0533 -0.2119
30912OCT     C161823   3.435   8.703  19.970  0.3638 -0.0356  0.1311
30912OCT     C261824   3.001   8.896  19.937 -0.0511 -0.0551  0.4226
30913OCT     C161825  20.871   7.031  17.337  0.0501 -0.1800  0.0616
30913OCT     C261826  20.426   6.929  17.454  0.1763 -0.2663  0.1360
30914OCT     C161827  16.324  11.164  12.259  0.0549  0.2428 -0.3628
30914OCT     C261828  16.270  11.522  12.557  0.3657  0.1188 -0.3041
30915OCT     C161829  17.880  16.449  17.444 -0.2573  0.0053  0.1107
30915OCT     C261830  17.780  16.399  16.996  0.3134  0.1226 -0.3090
30916OCT     C161831  11.514   5.817   6.176 -0.0580 -0.1077 -0.1535
30916OCT     C261832  11.882   6.189   6.138  0.2013  0.3214  0.0147
30917OCT     C161833  18.078   6.683   0.951  0.3211  0.1366 -0.0237
30917OCT     C261834  18.537   6.775   1.040  0.0920  0.0438 -0.1178
30918OCT     C161835  21.542  22.415   8.107  0.1385  0.1365 -0.1798
30918OCT     C261836  21.256  22.248   7.867 -0.2770 -0.2751  0.1698
30919OCT     C161837  21.415  13.616   5.841  0.2208  0.0416 -0.2037
30919OCT     C261838  21.148  13.250   5.787  0.0597  0.0225  0.3180
30920OCT     C161839   2.464   4.801  12.483 -0.1253 -0.6285 -0.1255
30920OCT     C261840   2.013   4.914  12.528  0.1305  0.0121  0.0186
30921OCT     C161841  16.515  10.396   4.560  0.0063 -0.1986  0.3956
30921OCT     C261842  16.426  10.763   4.871  0.2998  0.0450 -0.0714
30922OCT     C161843   8.863   7.305   2.509  0.0074  0.0784  0.3033
30922OCT     C261844   9.285   7.350   2.704 -0.1734  0.3708 -0.0283
30923OCT     C161845  17.340   0.838  20.607  0.1824 -0.1316  0.2014
30923OCT     C261846  17.500   1.221  20.789 -0.3590  0.0375  0.0814
30924OCT     C161847   9.050  22.430  19.220 -0.2046  0.0085  0.0872
30924OCT     C261848   8.868  22.868  19.106 -0.1423 -0.0699 -0.0273
30925OCT     C161849  19.199  17.545  13.882 -0.2186 -0.1963 -0.0273
30925OCT     C261850  19.142  17.259  13.525 -0.1730 -0.1481 -0.2164
30926OCT     C161851  10.319   6.835   0.526  0.0038  0.3006  0.0554
30926OCT     C261852  10.380   6.754   0.956  0.3453 -0.1906 -0.1725
30927OCT     C161853  10.749   8.791   1.560  0.2410  0.1122 -0.0261
30927OCT     C261854  10.835   9.086   1.160  0.0368 -0.2316  0.1176
30928OCT     C161855  21.408  19.121  10.408 -0.1036  0.2144 -0.0781
30928OCT     C261856  21.238  19.354  10.087  0.1754 -0.3718  0.1400
30929OCT     C161857  18.545  12.118  10.322 -0.0406  0.1290  0.3338
30929OCT     C261858  18.092  12.085  10.395  0.3834 -0.1104 -0.2841
30930OCT     C161859  16.798   2.888  14.330 -0.3061  0.2355 -0.0051
30930OCT     C261860  16.590   2.531  14.106 -0.1559  0.0108 -0.0699
30931OCT     C161861   1.852  14.686  17.192 -0.2265 -0.3417 -0.1081
30931OCT     C261862   1.560  14.445  16.903 -0.1238 -0.1657  0.1074
30932OCT     C161863   4.484  12.187   9.906 -0.2954 -0.3343  0.2049
30932OCT     C261864   4.068  11.871  10.041  0.0423 -0.0220 -0.1340
30933OCT     C161865  11.936  20.889  21.263  0.2862 -0.3289 -0.0281
30933OCT     C261866  11.851  20.674  20.869  0.0589 -0.2728  0.2035
30934OCT     C161867   9.162   7.961   8.584 -0.3036  0.3570  0.2315
30934OCT     C261868   9.259   8.172   8.208 -0.1335 -0.2804 -0.0629
30935OCT     C161869   4.422  10.406  12.332 -0.0188 -0.1612 -0.2906
30935OCT     C261870   4.503  10.390  11.852 -0.0423  0.4866  0.3052
30936OCT     C161871  20.206  14.896  17.576 -0.3051  0.2991 -0.3736
30936OCT     C261872  19.880  15.152  17.803  0.0426  0.0329  0.2033
30937OCT     C161873   9.829  10.678   1.606 -0.0500  0.1857 -0.2043
30937OCT     C261874   9.845  10.343   1.963  0.2754  0.0058  0.3744
30938OCT     C161875  11.365   4.265  17.436 -0.4338 -0.2488  0.2157
30938OCT     C261876  11.708   4.090  17.118 -0.1120 -0.0309 -0.0567
30939OCT     C161877  22.080   4.090  19.105 -0.2171 -0.2284 -0.0779
30939OCT     C261878  22.054   3.625  19.028  0.1274 -0.0650 -0.2452
30940OCT     C161879   1.103   6.949  20.944 -0.1102  0.1257 -0.2596
30940OCT     C261880   0.644   6.882  20.907  0.0033 -0.2245  0.3610
30941OCT     C161881   9.296   8.269  12.267 -0.0276 -0.1834 -0.4460
30941OCT     C261882   9.475   7.876  12.430 -0.4474  0.4253  0.1982
30942OCT     C161883  19.895   6.839  12.384 -0.0440  0.0395 -0.3697
30942OCT     C261884  19.632   6.532  12.202 -0.2083 -0.3481  0.0578
30943OCT     C161885  17.340  22.484  20.542 -0.1245 -0.2589  0.1059
30943OCT     C261886  17.348  22.340  20.109 -0.4543 -0.1250  0.2126
30944OCT     C161887  22.160  10.042   6.623 -0.1749 -0.0240 -0.0128
30944OCT     C261888  22.155  10.428   6.307 -0.0709  0.0922 -0.0512
30945OCT     C161889   4.662   2.821  15.628 -0.0663  0.0373 -0.1501
30945OCT     C261890   4.826   2.690  16.058 -0.1245  0.1233 -0.0252
30946OCT     C161891  12.131   3.049   7.116 -0.3943 -0.1815 -0.2393
30946OCT     C261892  12.209   2.684   6.835  0.0008 -0.1355  0.3377
30947OCT     C161893  19.479  20.104  13.541 -0.1739 -0.0049 -0.0948
30947OCT     C261894  19.912  20.162  13.772 -0.2909 -0.3595 -0.0249
30948OCT     C161895  10.817   1.736   4.070 -0.1593 -0.0505 -0.3433
30948OCT     C261896  10.482   1.601   3.799 -0.3994  0.0749  0.0473
30949OCT     C161897   2.223  12.779   6.335 -0.4795  0.4111  0.2600
30949OCT     C261898   2.583  13.050   6.371 -0.1296  0.0726 -0.1830
30950OCT     C161899   3.683  15.529  12.525 -0.0851  0.2949  0.1116
30950OCT     C261900   4.051  15.660  12.334  0.0654 -0.4211 -0.0277
30951OCT     C161901   7.690  14.989  18.990 -0.1374  0.0661 -0.0995
30951OCT     C261902   7.741  14.580  18.829 -0.0006 -0.1463  0.1661
30952OCT     C161903  21.404  21.750  20.906 -0.3433  0.0765 -0.2678
30952OCT     C261904  21.315  22.103  21.212  0.0185  0.1860 -0.0759
30953OCT     C161905  15.093  22.913  19.406 -0.2278 -0.0821  0.1248
30953OCT     C261906  15.312  23.293  19.375 -0.4364 -0.0980 -0.2307
30954OCT     C161907  13.279  15.400   9.963  0.5018  0.0965 -0.2665
30954OCT     C261908  13.488  15.002   9.869  0.1872  0.1372  0.2918
30955OCT     C161909  11.724   4.118  17.933  0.0692 -0.0331 -0.1300
30955OCT     C261910  11.284   3.962  17.942 -0.1009 -0.1347 -0.2719
30956OCT     C161911  23.349   2.660  19.320  0.1678 -0.1013  0.2874
30956OCT     C261912  23.183   2.644  19.727 -0.4288  0.3183  0.2173
30957OCT     C161913  21.770   3.894   2.381  0.1485 -0.0037 -0.1697
30957OCT     C261914  21.908   4.317   2.318  0.0066 -0.3652 -0.2772
30958OCT     C161915  21.932  22.673  19.046  0.0965 -0.1971 -0.3180
30958OCT     C261916  22.143  22.459  19.367  0.1127  0.0126  0.3340
30959OCT     C161917  20.550   7.464  17.473 -0.2862  0.1459 -0.2012
30959OCT     C261918  20.425   7.349  17.019  0.0992 -0.0085  0.1210
30960OCT     C161919  12.779  23.655   1.112 -0.0203  0.0777  0.0246
30960OCT     C261920  13.143  23.367   1.301 -0.0155  0.0817 -0.0267
30961OCT     C161921   0.549  21.118  23.446  0.2702 -0.4108  0.1481
30961OCT     C261922   0.501  20.770  23.152  0.0842 -0.2475  0.1312
30962OCT     C161923  22.569  10.287   6.469  0.4011 -0.3439 -0.8492
30962OCT     C261924  22.593  10.395   6.007 -0.3365 -0.0636 -0.2679
30963OCT     C161925   5.837   6.429  17.668 -0.2101 -0.0592 -0.1782
30963OCT     C261926   5.730   6.222  18.069  0.0522 -0.0562  0.1800
30964OCT     C161927  22.688  13.338  20.508 -0.1759  0.2289 -0.0365
30964OCT     C261928  22.671  13.467  20.056  0.1779 -0.3462  0.2710
30965OCT     C161929  19.423   4.850   9.714  0.2420  0.0259 -0.4162
30965OCT     C261930  19.801   4.800  10.027 -0.0835 -0.1387 -0.1386
30966OCT     C161931  10.130  12.784  12.502  0.1970 -0.0512 -0.3777
30966OCT     C261932  10.271  12.474  12.820 -0.2092  0.0399 -0.1231
30967OCT     C161933   0.738  12.314  19.139  0.1547  0.0206 -0.0948
30967OCT     C261934   0.627  12.532  18.686 -0.2629  0.1228  0.4247
30968OCT     C161935  17.576  18.408  17.400 -0.2393  0.0755  0.2980
30968OCT     C261936  17.617  18.883  17.215 -0.0809  0.1380 -0.2240
30969OCT     C161937   1.520  19.856  17.146 -0.1445  0.1651  0.1113
30969OCT     C261938   1.474  20.180  16.838  0.0860  0.2890  0.1712
30970OCT     C161939   4.954   5.679  19.625 -0.1062 -0.1293 -0.1244
30970OCT     C261940   5.299   5.803  19.896 -0.0009  0.0671  0.1241
30971OCT     C161941  20.328  12.218   8.335  0.1577  0.2298 -0.0699
30971OCT     C261942  19.985  11.907   8.265 -0.0514  0.3082  0.1206
30972OCT     C161943  19.780  11.489   0.979 -0.7837  0.3442  0.1983
30972OCT     C261944  19.382  11.355   1.227  0.1079 -0.0644  0.0196
30973OCT     C161945  12.393   6.489  15.524  0.2580  0.0715 -0.2127
30973OCT     C261946  12.243   6.208  15.128  0.2828 -0.3967 -0.0512
30974OCT     C161947   0.831   5.646   6.686  0.0323 -0.1258  0.1510
30974OCT     C261948   1.306   5.732   6.674  0.0490 -0.0880 -0.3800
30975OCT     C161949  16.695  22.597   8.352 -0.1645 -0.3067 -0.2850
30975OCT     C261950  16.805  22.513   8.826 -0.1532 -0.0498  0.0635
30976OCT     C161951  18.657  23.588  19.570 -0.3998 -0.4196 -0.2302
30976OCT     C261952  18.342  23.340  19.348  0.2688  0.4199  0.0688
30977OCT     C161953   9.178  16.020   4.524 -0.3129  0.1537 -0.0241
30977OCT     C261954   9.022  16.060   4.936  0.1968  0.0038  0.1418
30978OCT     C161955  10.826  19.755  21.733  0.3996 -0.1701  0.3927
30978OCT     C261956  10.450  19.919  21.878 -0.1758 -0.1243 -0.1428
30979OCT     C161957  21.372  17.964   0.671  0.4170 -0.1328 -0.2577
30979OCT     C261958  21.422  18.366   0.889  0.0129 -0.3041  0.1791
30980OCT     C161959   0.242  11.034   3.811  0.1153  0.0171  0.0033
30980OCT     C261960   0.707  11.059   3.900 -0.2628 -0.0240 -0.4216
30981OCT     C161961  17.714  17.507  21.333  0.0954  0.1469 -0.2166
30981OCT     C261962  17.510  17.487  21.755 -0.2284  0.7344 -0.0522
30982OCT     C161963  14.970  23.271  12.747  0.1293  0.0592 -0.0158
30982OCT     C261964  14.725  23.646  12.775 -0.3697 -0.0862 -0.0605
30983OCT     C161965  18.020   7.497   9.135  0.1219  0.0821  0.2880
30983OCT     C261966  17.618   7.401   8.875 -0.4126 -0.1092 -0.2338
30984OCT     C161967  14.297   2.274   8.683 -0.1354 -0.1472 -0.0672
30984OCT     C261968  14.061   2.228   8.287 -0.1668 -0.0196  0.1230
30985OCT     C161969  21.717   2.920   4.164 -0.2763 -0.1447  0.2555
30985OCT     C261970  21.500   2.437   4.286 -0.0949  0.0116 -0.0629
30986OCT     C161971   7.491   5.141   3.248 -0.1750  0.2592  0.4345
30986OCT     C261972   7.616   4.778   3.510  0.0023 -0.1471 -0.1921
30987OCT     C161973  20.013  17.920  18.184  0.1485  0.2362  0.0022
30987OCT     C261974  19.833  18.362  18.178 -0.0218  0.3411 -0.5858
30988OCT     C161975   8.479  20.776   2.411 -0.3726 -0.1186  0.2889
30988OCT     C261976   8.569  21.290   2.499 -0.1985  0.1257  0.0560
30989OCT     C161977  11.709  11.543  13.091 -0.2916 -0.0705 -0.1501
30989OCT     C261978  11.900  11.158  13.311  0.4212 -0.3460  0.2059
30990OCT     C161979  21.540  16.214   6.121  0.0704  0.4751  0.0646
30990OCT     C261980  21.200  16.448   5.904  0.1641  0.1559  0.3533
30991OCT     C161981   6.674  15.448   1.831 -0.4608 -0.2190 -0.0009
30991OCT     C261982   7.042  15.459   1.565 -0.0561 -0.0577 -0.1962
30992OCT     C161983   4.906  16.045  23.148 -0.0035  0.0558  0.1139
30992OCT     C261984   5.321  15.991  23.194  0.0510 -0.2141  0.1096
30993OCT     C161985  20.914   7.015  18.798 -0.1675 -0.0689  0.0063
30993OCT     C261986  20.770   7.036  18.299 -0.0217 -0.0877 -0.3320
30994OCT     C161987  16.917   9.871  19.644  0.2868 -0.1580  0.0285
30994OCT     C261988  16.577  10.110  19.875 -0.0102 -0.1928 -0.0554
30995OCT     C161989   2.167   9.664   0.264  0.2176 -0.0773  0.1171
30995OCT     C261990   1.937   9.820   0.646 -0.1741 -0.0734 -0.0605
30996OCT     C161991   9.849  13.372  20.074  0.0688  0.1862  0.1654
30996OCT     C261992   9.952  13.615  20.500 -0.0129 -0.0984 -0.2449
30997OCT     C161993  16.472  23.616  20.657  0.0342  0.3219 -0.0086
30997OCT     C261994  16.380   0.288  20.906  0.1411  0.2693 -0.0834
30998OCT     C161995  16.174   7.148   4.264 -0.3639  0.0552 -0.3953
30998OCT     C261996  16.043   7.566   4.371 -0.0827  0.2240 -0.0642
30999OCT     C161997  18.532   0.618  19.292 -0.0627 -0.2016  0.3765
30999OCT     C261998  18.667   0.475  18.847  0.2170 -0.0765 -0.0497
31000OCT     C161999  21.273  12.170  16.605 -0.1485 -0.2359 -0.1513
31000OCT     C262000  21.311  11.705  16.654  0.1999 -0.0794 -0.0194
31001OCT     C162001   2.105  16.885   6.371  0.1459 -0.4286 -0.0518
31001OCT     C262002   2.131  16.441   6.583  0.0928  0.1238 -0.1304
31002OCT     C162003   3.362  23.384  15.412 -0.3793  0.0698 -0.3793
31002OCT     C262004   3.718  23.220  15.649 -0.3294  0.0397  0.2062
31003OCT     C162005   1.039  10.568   8.453  0.1696  0.2816 -0.3449
31003OCT     C262006   0.590  10.524   8.223 -0.0675  0.0262 -0.1836
31004OCT     C162007   3.881  11.901   3.033 -0.1066 -0.1875  0.1647
31004OCT     C262008   3.431  11.751   2.939 -0.0382  0.1037 -0.1248
31005OCT     C162009  11.335   2.413  20.377 -0.1676 -0.2359  0.0588
31005OCT     C262010  11.143   2.369  19.972 -0.5367  0.0014 -0.3125
31006OCT     C162011  11.935   3.913   4.331  0.0590  0.0589  0.0885
31006OCT     C262012  12.356   3.880   4.470  0.1577 -0.1312 -0.1050
31007OCT     C162013  15.834  19.620   6.169 -0.1580 -0.0491  0.2886
31007OCT     C262014  15.539  19.944   6.218 -0.1123 -0.1013  0.1639
31008OCT     C162015   4.056   1.230  18.816  0.1427 -0.1213  0.0947
31008OCT     C262016   3.583   1.113  18.890 -0.1025 -0.0621  0.1105
31009OCT     C162017   6.884  15.730  18.051 -0.3931  0.0347 -0.3436
31009OCT     C262018   7.024  15.590  18.477 -0.4602 -0.3014  0.1115
31010OCT     C162019   3.440   9.449  10.896  0.2625 -0.2631  0.1246
31010OCT     C262020   3.112   9.480  10.597  0.2193 -0.0615 -0.1407
31011OCT     C162021   0.176  16.130   2.266  0.2817  0.0607 -0.3573
31011OCT     C262022  23.736  16.519   2.269 -0.2275 -0.4569  0.1206
31012OCT     C162023  13.484   8.128   4.404  0.1630 -0.2350 -0.2806
31012OCT     C262024  13.588   8.238   3.951  0.1873  0.1823 -0.0333
31013OCT     C162025  12.690   7.809   4.447  0.0777  0.1432  0.1313
31013OCT     C262026  12.503   7.417   4.580  0.1522  0.0175  0.0714
31014OCT     C162027  12.938  11.463   1.296 -0.3007 -0.1776  0.2392
31014OCT     C262028  12.652  11.160   1.143  0.5997 -0.4564 -0.0571
31015OCT     C162029   3.312  21.848   5.526  0.2047  0.1842  0.2951
31015OCT     C262030   3.142  21.861   5.065  0.1237  0.0435 -0.0620
31016OCT     C162031  13.121  23.635  14.275  0.3383  0.3819  0.3375
31016OCT     C262032  13.226  23.573  13.850  0.0548 -0.1847  0.2496
31017OCT     C162033  10.066  17.305  13.960  0.2508 -0.0709 -0.2006
31017OCT     C262034   9.911  17.567  14.310 -0.2675 -0.1529 -0.0300
31018OCT     C162035  16.222   8.060  15.242 -0.2313  0.0096  0.1366
31018OCT     C262036  16.492   8.420  15.432  0.0710  0.2437 -0.0874
31019OCT     C162037  18.531  21.244   0.042  0.2334  0.0611 -0.0317
31019OCT     C262038  18.808  21.286   0.421  0.1961 -0.0850  0.3188
31020OCT     C162039   2.288  21.156   7.316  0.1848  0.0246  0.0187
31020OCT     C262040   2.756  21.068   7.356  0.0748  0.0405 -0.1689
31021OCT     C162041   7.929  18.094  11.787 -0.2582  0.1780  0.1305
31021OCT     C262042   8.164  18.241  12.154 -0.0684 -0.1447 -0.0072
31022OCT     C162043  18.138   3.085  14.723  0.2247  0.3372 -0.0768
31022OCT     C262044  18.263   2.668  14.559 -0.0554 -0.3239 -0.3792
31023OCT     C162045  14.179   8.649  10.725  0.0067  0.0554  0.1871
31023OCT     C262046  14.288   8.246  10.839 -0.0488  0.0439 -0.1857
31024OCT     C162047  22.483   7.485   5.492 -0.0128 -0.1610 -0.1658
31024OCT     C262048  22.873   7.724   5.430  0.0730  0.1802  0.3082
31025OCT     C162049  12.255   5.168   4.872  0.4260 -0.0182  0.3793
31025OCT     C262050  12.746   5.148   4.923 -0.1351 -0.1388  0.2746
31026OCT     C162051  20.174  17.384  18.886 -0.0624  0.1278  0.0477
31026OCT     C262052  20.525  17.281  18.600  0.2695 -0.2827  0.4554
31027OCT     C162053  19.398  12.904  13.810  0.1542  0.3864  0.0571
31027OCT     C262054  19.622  12.830  14.228 -0.1819  0.1612 -0.0679
31028OCT     C162055  14.111  18.797  13.739  0.1006 -0.2780 -0.1296
31028OCT     C262056  14.254  18.345  13.736 -0.1213 -0.3279  0.1978
31029OCT     C162057   7.442  10.992  12.979  0.0399 -0.1118 -0.0103
31029OCT     C262058   7.248  10.623  13.135  0.0021  0.0267  0.3760
31030OCT     C162059   7.021  14.378  14.229  0.0596  0.0914 -0.2458
31030OCT     C262060   7.203  14.329  14.663 -0.0218 -0.2245  0.1214
31031OCT     C162061  22.414  21.254  21.260  0.0160 -0.1437 -0.1274
31031OCT     C262062  22.313  21.700  21.322 -0.1387 -0.2261 -0.3206
31032OCT     C162063  15.494   6.347  20.406 -0.2452  0.2876 -0.1647
31032OCT     C262064  15.623   6.732  20.267 -0.1393 -0.4009  0.2740
31033OCT     C162065  14.337  12.657  10.310 -0.0528 -0.1217  0.2816
31033OCT     C262066  14.009  12.352  10.177 -0.1177 -0.0303  0.1504
31034OCT     C162067   1.676  18.211  20.204  0.1505 -0.1587 -0.1806
31034OCT     C262068   1.941  18.680  20.216 -0.0691 -0.0592 -0.3164
31035OCT     C162069   3.497  16.210  15.152  0.1407 -0.2675 -0.0258
31035OCT     C262070   3.565  16.199  15.651  0.2760 -0.1661  0.0325
31036OCT     C162071   5.651   9.814   8.053  0.0403 -0.0164  0.2173
31036OCT     C262072   5.719   9.796   7.571  0.0977 -0.0511  0.0006
31037OCT     C162073  10.917  21.490  10.854 -0.1521 -0.1940 -0.2335
31037OCT     C262074  10.908  21.931  10.925 -0.0166 -0.2014  0.1079
31038OCT     C162075  15.649   2.862  20.733  0.2223 -0.3656  0.3167
31038OCT     C262076  15.538   3.317  20.716  0.2720 -0.0906  0.2750
31039OCT     C162077   3.290   4.672  10.421  0.0382 -0.3217 -0.0691
31039OCT     C262078   2.964   4.928  10.447  0.1556 -0.0978  0.1901
31040OCT     C162079   5.153   2.422   0.821  0.0494 -0.1709  0.2143
31040OCT     C262080   5.485   2.217   0.597 -0.2253  0.0532 -0.0831
31041OCT     C162081  11.643   4.189  12.345  0.4981  0.1730  0.1482
31041OCT     C262082  11.578   4.650  12.390 -0.1425 -0.0775  0.0830
31042OCT     C162083   5.840   5.626   4.348  0.3017 -0.3283 -0.0290
31042OCT     C262084   5.718   5.329   4.691  0.0508 -0.1539 -0.1979
31043OCT     C162085  16.837  11.478   0.717  0.0285 -0.0232  0.4427
31043OCT     C262086  16.482  11.726   0.510 -0.0439 -0.0438  0.1814
31044OCT     C162087  12.057   7.183  13.113 -0.0027  0.0031 -0.2583
31044OCT     C262088  11.613   7.312  13.136 -0.3541  0.3603 -0.0505
31045OCT     C162089   9.563  12.073  19.883 -0.3487 -0.1308 -0.0039
31045OCT     C262090   9.134  12.223  20.004 -0.0272 -0.0602  0.0766
31046OCT     C162091   4.815   5.677  18.237  0.0572 -0.0581  0.1416
31046OCT     C262092   4.329   5.742  18.313 -0.1657  0.3626  0.3020
31047OCT     C162093  15.492  20.194   3.309 -0.2348  0.0863 -0.3364
31047OCT     C262094  15.212  20.190   2.925  0.1200  0.1323 -0.3600
31048OCT     C162095  22.017  10.681   8.925 -0.0053 -0.0522  0.0158
31048OCT     C262096  22.043  10.567   9.341 -0.1287  0.1184  0.2393
31049OCT     C162097  14.851  11.778   2.162  0.0932 -0.0323  0.3544
31049OCT     C262098  14.809  12.231   2.175  0.0296  0.6053 -0.4014
31050OCT     C162099   7.838  23.078  12.064  0.1741  0.2169  0.3499
31050OCT     C262100   7.639  22.756  12.369 -0.0810  0.0915 -0.1433
31051OCT     C162101  15.167  11.435  18.231  0.0825 -0.2226 -0.1953
31051OCT     C262102  14.773  11.532  17.952 -0.1208 -0.1221 -0.0918
31052OCT     C162103  22.900   1.963  22.934 -0.0909 -0.0565 -0.3279
31052OCT     C262104  22.573   1.714  22.643  0.0696  0.0222  0.0530
31053OCT     C162105  14.006  10.289  10.502 -0.0245  0.2384  0.0935
31053OCT     C262106  13.675  10.346  10.847  0.4196 -0.1422 -0.0167
31054OCT     C162107   7.658  10.509  14.968  0.0601  0.0977 -0.0689
31054OCT     C262108   7.619  10.581  14.513  0.1063 -0.0362  0.0485
31055OCT     C162109  12.869   5.763  11.610  0.1116 -0.1484  0.1592
31055OCT     C262110  12.964   6.122  11.934  0.2248 -0.1609  0.1777
31056OCT     C162111  18.956   3.492   0.411  0.2895  0.0431  0.0770
31056OCT     C262112  19.239   3.769   0.216  0.0066  0.1756  0.0535
31057OCT     C162113  21.115   7.845   5.494  0.0499  0.0501  0.1860
31057OCT     C262114  21.128   7.790   5.048 -0.0575  0.5273  0.0490
31058OCT     C162115   9.083  16.324  14.123 -0.3358  0.1435  0.2289
31058OCT     C262116   8.986  16.752  14.052 -0.1476  0.1843  0.0932
31059OCT     C162117  11.222   1.664  22.386 -0.0763  0.1285 -0.3065
31059OCT     C262118  11.313   1.927  22.079  0.1647  0.2313 -0.0021
31060OCT     C162119  21.477  11.044   3.752 -0.4595 -0.1360 -0.2205
31060OCT     C262120  21.753  10.765   3.601 -0.1178  0.5553  0.1362
31061OCT     C162121  21.685   5.807   6.620 -0.0024 -0.0395 -0.2952
31061OCT     C262122  21.290   5.695   6.814 -0.0235 -0.0488 -0.1468
31062OCT     C162123  16.393  19.922  19.274  0.2230  0.0151  0.0635
31062OCT     C262124  16.704  19.725  19.039 -0.0779 -0.1230  0.0800
31063OCT     C162125  13.309   8.800   0.814 -0.2230  0.2304 -0.2632
31063OCT     C262126  12.888   8.795   1.092  0.2756  0.2661  0.2119
31064OCT     C162127  23.461   8.954  23.141  0.3332 -0.2787 -0.0719
31064OCT     C262128  23.640   8.547  23.099  0.1235 -0.0509 -0.1230
31065OCT     C162129   7.206  10.969   8.191 -0.2108  0.1502 -0.2873
31065OCT     C262130   7.099  10.492   8.226  0.2730 -0.1624 -0.0970
31066OCT     C162131   1.918  10.929  17.887  0.0408  0.0125 -0.0974
31066OCT     C262132   2.162  10.496  17.875 -0.2761  0.2381 -0.1018
31067OCT     C162133  11.625   8.665  20.629  0.0447 -0.4167  0.1786
31067OCT     C262134  11.542   8.690  21.076  0.0089 -0.0647 -0.0023
31068OCT     C162135   1.364   7.905  16.952  0.0235 -0.1633  0.0001
31068OCT     C262136   1.281   7.752  16.463 -0.5690  0.0408 -0.0953
31069OCT     C162137   5.966  20.810  20.979 -0.0800  0.1142  0.0351
31069OCT     C262138   5.664  20.582  21.269 -0.1767  0.1361  0.0794
31070OCT     C162139  13.405  20.092  10.049  0.0874  0.1238  0.0868
31070OCT     C262140  12.927  19.957  10.161  0.0329  0.2863  0.2355
31071OCT     C162141  18.694  17.187  18.911  0.0200  0.0521 -0.3217
31071OCT     C262142  18.942  17.073  19.307 -0.0047  0.2142  0.0973
31072OCT     C162143   3.326  10.005  22.408  0.0294 -0.2488  0.0149
31072OCT     C262144   3.625  10.192  22.710  0.2805  0.0036 -0.2646
31073OCT     C162145  17.417  11.644  14.753  0.4196  0.2067 -0.3772
31073OCT     C262146  17.660  11.547  14.341 -0.1701 -0.0802 -0.2747
31074OCT     C162147  21.702  20.026   8.883 -0.0457  0.1143  0.1632
31074OCT     C262148  21.422  19.711   9.121 -0.1483  0.0107  0.1013
31075OCT     C162149  11.375  23.056  16.900 -0.0304 -0.0928 -0.3337
31075OCT     C262150  11.352  23.299  17.262 -0.1605  0.0751  0.0137
31076OCT     C162151   4.817   1.407  21.802 -0.3630 -0.0166  0.2008
31076OCT     C262152   4.629   1.504  22.215  0.2176  0.0122  0.0222
31077OCT     C162153   6.716  16.953  20.316  0.0984 -0.1676  0.0547
31077OCT     C262154   7.026  17.127  19.998  0.0068  0.1333 -0.1727
31078OCT     C162155   5.750  12.707   8.588  0.2105 -0.0936 -0.1583
31078OCT     C262156   5.800  12.579   9.053 -0.2816 -0.3470  0.1654
31079OCT     C162157   2.933   1.321  15.003 -0.0636 -0.1553 -0.0590
31079OCT     C262158   2.762   1.649  14.695  0.0014 -0.5744 -0.0987
31080OCT     C162159  10.818  23.006   5.582 -0.4093  0.3580  0.1976
31080OCT     C262160  10.489  22.915   5.945 -0.1446  0.1005 -0.1005
31081OCT     C162161   2.916  17.776   0.706  0.1447  0.0021  0.0666
31081OCT     C262162   3.073  17.680   0.207  0.3724  0.1990  0.0812
31082OCT     C162163  22.484  18.255  19.994 -0.0830 -0.0836  0.3259
31082OCT     C262164  22.038  18.334  19.924 -0.2000  0.0455  0.1828
31083OCT     C162165   8.663  10.276   9.776 -0.0335 -0.1796  0.2664
31083OCT     C262166   8.808  10.619   9.463  0.1213 -0.2001  0.0895
31084OCT     C162167   8.293  20.959   0.467  0.3642 -0.0415  0.2679
31084OCT     C262168   8.617  21.271   0.639 -0.0342  0.2375  0.2438
31085OCT     C162169  21.853  11.333  14.843  0.1329 -0.0841 -0.1853
31085OCT     C262170  21.399  11.467  14.813 -0.0253  0.3122 -0.3164
31086OCT     C162171   9.574  13.402   8.507  0.3318  0.1181  0.1504
31086OCT     C262172   9.490  13.772   8.173  0.1297 -0.1419 -0.4467
31087OCT     C162173   2.465  11.857   3.005 -0.0744  0.2852 -0.0735
31087OCT     C262174   2.644  12.094   3.337 -0.3802  0.0281 -0.2500
31088OCT     C162175  11.168  20.049  15.944  0.5361  0.0048 -0.0710
31088OCT     C262176  11.507  19.982  15.696  0.1577  0.0735 -0.1171
31089OCT     C162177  17.743   8.882  15.896 -0.1522  0.1400  0.0871
31089OCT     C262178  17.808   8.434  15.903  0.1132 -0.2852  0.1608
31090OCT     C162179   3.363  19.889  20.133 -0.0049  0.0411 -0.2486
31090OCT     C262180   3.481  19.579  19.805 -0.1843  0.1699  0.0016
31091OCT     C162181  18.368   4.983  22.918  0.1191 -0.0752  0.2187
31091OCT     C262182  17.953   5.260  22.831 -0.0891 -0.5156 -0.0496
31092OCT     C162183   7.383  16.327  13.380  0.1150  0.1003  0.2886
31092OCT     C262184   7.291  15.824  13.416  0.0692  0.1088  0.0472
31093OCT     C162185  11.510  12.053   0.259  0.0259  0.3584 -0.4281
31093OCT     C262186  11.091  11.893   0.440 -0.1046  0.0754  0.0716
31094OCT     C162187   8.611  11.884  22.102 -0.1766 -0.0435 -0.0476
31094OCT     C262188   8.538  12.275  21.875  0.1212 -0.0064 -0.1815
31095OCT     C162189  17.951  13.233  20.485 -0.1646  0.0607 -0.0942
31095OCT     C262190  18.084  13.219  20.046 -0.0858 -0.0822 -0.0536
31096OCT     C162191   0.770  10.525  19.845  0.5436  0.0402 -0.0138
31096OCT     C262192   1.030  10.178  19.666  0.1199 -0.1318 -0.1863
31097OCT     C162193  22.056  10.048  15.277 -0.1262  0.2243  0.0230
31097OCT     C262194  22.302   9.664  15.350  0.2460 -0.0396 -0.2892
31098OCT     C162195  20.833  14.994   7.537  0.1601  0.0570 -0.1331
31098OCT     C262196  20.740  15.236   7.925 -0.1832 -0.0905  0.0683
31099OCT     C162197  21.841  12.272  18.339 -0.4436 -0.0133 -0.5621
31099OCT     C262198  21.406  12.144  18.167 -0.3737  0.1191 -0.3779
31100OCT     C162199  20.954  22.410  22.090  0.0619  0.1425 -0.1115
31100OCT     C262200  20.703  22.655  21.771 -0.1677 -0.3626 -0.0988
31101OCT     C162201   5.038  17.789  14.456 -0.0550  0.0391 -0.3754
31101OCT     C262202   5.172  17.504  14.072 -0.1511  0.0459 -0.2875
31102OCT     C162203   5.350  17.416   3.978 -0.3265  0.0485 -0.0694
31102OCT     C262204   4.995  17.633   4.182  0.0971  0.2064 -0.1858
31103OCT     C162205  18.896  11.746  10.413  0.1532 -0.1040 -0.1178
31103OCT     C262206  19.310  11.688  10.449 -0.1840  0.3396  0.0938
31104OCT     C162207   4.491   5.375  16.589 -0.0365  0.1023  0.1455
31104OCT     C262208   4.472   5.164  16.190  0.1675 -0.0820  0.1191
31105OCT     C162209  15.607   4.056   9.269  0.1850  0.0729 -0.2656
31105OCT     C262210  15.313   4.097   9.654 -0.1658 -0.1935 -0.1819
31106OCT     C162211  23.272  21.294  19.593 -0.3068 -0.1774 -0.0814
31106OCT     C262212  23.258  20.953  19.299  0.1715 -0.1982  0.0119
31107OCT     C162213  11.386  22.409  18.459  0.0821 -0.1598  0.1004
31107OCT     C262214  11.727  22.487  18.800  0.0208  0.0568  0.0614
31108OCT     C162215  13.864  22.947  20.314  0.3070  0.0425  0.1495
31108OCT     C262216  14.271  23.162  20.152  0.0769 -0.0548 -0.3491
31109OCT     C162217  21.045  11.225  11.191  0.0443 -0.1857 -0.0731
31109OCT     C262218  21.214  11.464  11.575 -0.0625  0.2675  0.1667
31110OCT     C162219  22.317   7.305   9.882 -0.1250 -0.0968 -0.3310
31110OCT     C262220  22.805   7.256   9.948 -0.5284  0.1327  0.1684
31111OCT     C162221  14.027  16.328   9.039 -0.1717 -0.2988 -0.0457
31111OCT     C262222  13.754  15.939   9.049 -0.0082  0.2234 -0.2307
31112OCT     C162223  16.188  10.559  10.677 -0.1853  0.4442 -0.2686
31112OCT     C262224  16.298  10.570  11.143 -0.0669  0.3015  0.1447
31113OCT     C162225  23.025  22.926   9.419 -0.0241 -0.0120 -0.2127
31113OCT     C262226  22.619  22.602   9.401 -0.1163  0.2220 -0.1688
31114OCT     C162227  11.854  15.449  11.080 -0.0459 -0.2015  0.1919
31114OCT     C262228  12.108  15.378  11.473 -0.1021 -0.2003  0.0686
31115OCT     C162229  11.948  15.062  13.257 -0.3274 -0.0656  0.1130
31115OCT     C262230  12.209  14.820  12.977 -0.0167 -0.3087  0.0722
31116OCT     C162231  18.391   1.931  20.731 -0.2145  0.1153 -0.1650
31116OCT     C262232  18.580   1.787  21.168  0.0906  0.5106 -0.3474
31117OCT     C162233  14.584  16.109  12.676  0.0456  0.0363 -0.2889
31117OCT     C262234  14.557  16.546  12.716 -0.0050 -0.1740  0.0587
31118OCT     C162235  15.965  15.259  15.748 -0.0704  0.2897 -0.2320
31118OCT     C262236  16.060  15.558  15.396 -0.0870  0.1001 -0.1993
31119OCT     C162237  19.027   1.645  11.835  0.0363  0.1064  0.2685
31119OCT     C262238  19.074   1.813  11.399 -0.1644 -0.2386 -0.1971
31120OCT     C162239  20.487  17.630  17.039 -0.1818  0.3244 -0.4261
31120OCT     C262240  20.970  17.710  17.091  0.0393 -0.1285  0.2923
31121OCT     C162241  13.214   4.136  19.907  0.1369  0.1893  0.4480
31121OCT     C262242  13.383   4.059  20.329 -0.0001 -0.2643 -0.1295
31122OCT     C162243  15.247  18.446   8.526 -0.3473  0.0468 -0.1684
31122OCT     C262244  15.003  18.341   8.133  0.3285 -0.0646 -0.2439
31123OCT     C162245  21.671  13.361  16.557  0.2646  0.1069 -0.3501
31123OCT     C262246  21.243  13.294  16.435 -0.2124 -0.2870  0.3055
31124OCT     C162247  11.604   2.661  14.198 -0.0188 -0.0460  0.1341
31124OCT     C262248  11.243   2.494  13.928  0.4097  0.0700  0.2687
31125OCT     C162249  16.646  16.954  11.461  0.2383  0.2204  0.2123
31125OCT     C262250  16.469  16.987  11.872 -0.0885  0.2801  0.0373
31126OCT     C162251  10.930  13.266   4.586 -0.3398 -0.4137  0.0159
31126OCT     C262252  10.735  12.881   4.788 -0.0390  0.1582  0.2570
31127OCT     C162253  22.680  10.244   8.726 -0.0034 -0.1576 -0.0145
31127OCT     C262254  22.683  10.122   8.259 -0.2595  0.3316  0.1173
31128OCT     C162255  17.305   1.266  22.052 -0.1885 -0.1510  0.1089
31128OCT     C262256  17.451   1.366  21.641 -0.2160 -0.1120  0.0245
31129OCT     C162257   9.569  14.303   8.817  0.0257 -0.3937  0.2017
31129OCT     C262258   9.924  14.482   8.608  0.0877 -0.1513 -0.1243
31130OCT     C162259  20.115  16.829  15.774 -0.1135  0.4115 -0.3723
31130OCT     C262260  20.128  16.620  16.228  0.4739 -0.0249  0.0522
31131OCT     C162261   2.268   3.781   9.488  0.2566 -0.1296 -0.1037
31131OCT     C262262   1.920   3.482   9.619  0.2171 -0.0813 -0.1586
31132OCT     C162263  20.064  15.047   3.979  0.2137 -0.1436 -0.1227
31132OCT     C262264  20.321  14.740   3.726 -0.0073 -0.0497  0.1675
31133OCT     C162265  22.596  19.965   1.050 -0.2958  0.3752  0.0812
31133OCT     C262266  22.923  20.149   1.289  0.3824  0.0536 -0.2648
31134OCT     C162267  21.115  13.652  15.338 -0.1375  0.3309 -0.0360
31134OCT     C262268  21.172  13.603  14.897  0.0146  0.1496  0.0542
31135OCT     C162269  17.118   8.922   0.442  0.1629 -0.1547  0.1180
31135OCT     C262270  16.949   9.345   0.604 -0.0897 -0.4755 -0.0068
31136OCT     C162271   8.889  17.373   0.907 -0.2087  0.2745 -0.2333
31136OCT     C262272   8.514  17.485   0.643  0.1665  0.1978  0.2544
31137OCT     C162273  17.046  14.508   5.118 -0.2090  0.0289  0.0832
31137OCT     C262274  17.226  14.766   5.511  0.0699  0.1080 -0.0850
31138OCT     C162275   4.689  14.176  19.066 -0.1663  0.0229 -0.0981
31138OCT     C262276   5.093  14.229  19.264  0.3213  0.1049 -0.0756
31139OCT     C162277   8.083  18.152  17.966  0.1154 -0.0157 -0.4557
31139OCT     C262278   7.746  18.083  17.674  0.0810  0.4392 -0.0887
31140OCT     C162279  22.081  10.958  18.283 -0.0901 -0.2390 -0.2257
31140OCT     C262280  22.419  11.116  18.579  0.4167  0.2215 -0.0405
31141OCT     C162281  13.112  17.348  21.494  0.1201  0.1539  0.3274
31141OCT     C262282  12.820  17.360  21.155  0.1388 -0.5881  0.0622
31142OCT     C162283   2.434   6.819   6.072  0.5963  0.0645  0.0391
31142OCT     C262284   2.917   6.995   6.171 -0.3719  0.1196  0.1864
31143OCT     C162285   8.338   1.810  17.039 -0.2883 -0.1460 -0.1284
31143OCT     C262286   8.422   1.504  16.734 -0.3247 -0.1112 -0.2622
31144OCT     C162287  16.541   1.185  20.289 -0.2591 -0.1922 -0.1831
31144OCT     C262288  16.917   1.502  20.160 -0.0434  0.2418 -0.2137
31145OCT     C162289  20.301   8.195  12.929 -0.0348 -0.1330 -0.0959
31145OCT     C262290  20.141   8.537  13.257  0.3235  0.1439 -0.2211
31146OCT     C162291  22.749  16.190  13.481  0.0932  0.3500  0.0757
31146OCT     C262292  22.993  16.578  13.568  0.1100 -0.1199 -0.1342
31147OCT     C162293  12.686   7.718   4.966  0.0986 -0.0085  0.0190
31147OCT     C262294  12.287   7.817   4.788 -0.2317 -0.4399 -0.3067
31148OCT     C162295   3.819  13.586  17.899 -0.2534 -0.0160 -0.2437
31148OCT     C262296   4.028  13.988  17.821  0.0937  0.1122  0.1808
31149OCT     C162297   9.803  22.565   7.340 -0.2747  0.0646  0.1156
31149OCT     C262298   9.486  22.841   7.159  0.1241 -0.1325 -0.0771
31150OCT     C162299  22.491  11.048   4.897  0.0591  0.1163  0.0004
31150OCT     C262300  22.880  11.023   4.595  0.1748 -0.0938 -0.2275
31151OCT     C162301  13.141   2.081   5.410  0.2597 -0.1696 -0.0455
31151OCT     C262302  13.308   1.729   5.227  0.2412 -0.1974 -0.3904
31152OCT     C162303   3.199   5.653  13.792 -0.3351 -0.1641  0.1626
31152OCT     C262304   3.642   5.468  13.775  0.1402  0.0945 -0.3105
31153OCT     C162305   2.621   9.174   5.295  0.1491  0.2562  0.0360
31153OCT     C262306   2.444   8.755   5.163  0.1855 -0.0428  0.3088
31154OCT     C162307  18.953   4.414  17.077  0.3367  0.0564 -0.1091
31154OCT     C262308  19.115   4.541  17.507 -0.1667 -0.2356 -0.0412
31155OCT     C162309   0.947  13.199  13.301  0.1005  0.3370  0.3147
31155OCT     C262310   0.721  12.829  13.084  0.2948 -0.3275 -0.1390
31156OCT     C162311   4.721   1.882  23.547  0.2593  0.2689 -0.2505
31156OCT     C262312   4.722   1.619   0.204  0.2169 -0.2346 -0.4418
31157OCT     C162313  12.014  16.931  16.540  0.2784  0.0829 -0.0592
31157OCT     C262314  11.988  17.324  16.852  0.2181  0.0562  0.2490
31158OCT     C162315  17.563  23.009  23.581 -0.1240  0.1605 -0.4303
31158OCT     C262316  17.565  23.394  23.278  0.3924  0.5300  0.0069
31159OCT     C162317   2.630  23.421  13.619  0.2926 -0.2342 -0.2681
31159OCT     C262318   2.621  23.196  13.181 -0.0829  0.0477 -0.0346
31160OCT     C162319   0.888  12.660  13.550 -0.0544 -0.2336 -0.0086
31160OCT     C262320   0.813  12.537  13.986 -0.1233 -0.2442  0.0502
31161OCT     C162321  19.117  22.918   0.782 -0.0588  0.0649 -0.2759
31161OCT     C262322  19.339  23.120   0.425  0.1149  0.2651 -0.1555
31162OCT     C162323  18.348  13.060  18.292 -0.2053  0.1179  0.0384
31162OCT     C262324  17.999  12.768  18.467 -0.6328 -0.1517 -0.1369
31163OCT     C162325   3.859  19.753  17.589 -0.0712  0.1402  0.2822
31163OCT     C262326   3.526  19.501  17.295 -0.3423  0.5612 -0.5902
31164OCT     C162327   9.809  10.537  17.335  0.4013  0.0570  0.0370
31164OCT     C262328   9.873  10.384  16.895 -0.5839  0.1526 -0.0623
31165OCT     C162329  16.080   0.083   9.058  0.1140  0.0161  0.3125
31165OCT     C262330  16.287   0.312   9.413 -0.0203  0.1551  0.0760
31166OCT     C162331  12.936  12.434  17.452  0.4891 -0.2378  0.3480
31166OCT     C262332  12.705  12.617  17.046 -0.1152 -0.0840 -0.1339
31167OCT     C162333   6.064  14.837   3.625  0.2592  0.4318  0.2839
31167OCT     C262334   6.180  14.426   3.710  0.0305 -0.1989 -0.1654
31168OCT     C162335  19.746  21.616   6.207 -0.2009  0.5068 -0.0626
31168OCT     C262336  20.063  21.896   6.407  0.1891  0.1980 -0.1517
31169OCT     C162337   8.396   2.716  16.079  0.1137 -0.2624 -0.0530
31169OCT     C262338   7.979   2.487  15.970 -0.1052 -0.0920  0.0111
31170OCT     C162339   7.073   4.703  21.925 -0.2983 -0.0466 -0.0223
31170OCT     C262340   7.139   5.174  21.931 -0.0190 -0.0958  0.0248
31171OCT     C162341  22.253  15.343   0.684  0.0685 -0.1483  0.2413
31171OCT     C262342  21.923  15.670   0.756  0.0724  0.1287  0.0224
31172OCT     C162343  15.552   8.204  13.641  0.1482 -0.0001 -0.0477
31172OCT     C262344  15.874   8.096  13.289  0.0106 -0.1751  0.3438
31173OCT     C162345   1.381  16.661  15.649  0.2282 -0.0661 -0.2114
31173OCT     C262346   1.059  16.313  15.923 -0.1675  0.0571  0.3866
31174OCT     C162347   5.230  19.386  18.843  0.1348  0.2137 -0.2077
31174OCT     C262348   5.307  18.919  19.067 -0.2671  0.1887  0.2664
31175OCT     C162349   8.495   5.359  11.770  0.0495 -0.1089 -0.3073
31175OCT     C262350   8.422   5.634  12.147  0.0090 -0.0229  0.0007
31176OCT     C162351  19.617  19.961  19.173 -0.2497  0.0875 -0.4870
31176OCT     C262352  19.516  19.553  19.405  0.0786  0.3203  0.3430
31177OCT     C162353  19.594  22.326  17.957  0.2255 -0.2359 -0.3570
31177OCT     C262354  19.624  22.220  18.462 -0.1765 -0.1381 -0.0474
31178OCT     C162355   4.392   4.622   0.202 -0.0483 -0.2875 -0.1683
31178OCT     C262356   4.834   4.542   0.030  0.1690 -0.0902  0.0066
31179OCT     C162357   0.510  13.820  11.780  0.2371 -0.3674 -0.0360
31179OCT     C262358   0.599  14.295  11.691  0.2483 -0.2701 -0.2328
31180OCT     C162359   6.158   6.182  14.541  0.1033  0.1845 -0.1948
31180OCT     C262360   6.074   6.123  15.060 -0.2775  0.3087  0.0004
31181OCT     C162361   6.115  13.632  14.439 -0.0688 -0.0455  0.0119
31181OCT     C262362   5.837  13.364  14.783  0.0178  0.1553  0.0469
31182OCT     C162363  19.338   4.416   0.452 -0.0228  0.1704  0.3396
31182OCT     C262364  19.330   4.301  23.722 -0.0971 -0.2457 -0.2973
31183OCT     C162365  17.878   8.211   3.644 -0.1495  0.1467  0.0340
31183OCT     C262366  17.964   8.673   3.733  0.3905 -0.3454  0.1444
31184OCT     C162367   2.836  18.809  15.570 -0.2110  0.2943  0.0020
31184OCT     C262368   2.638  18.415  15.402 -0.2435  0.0223  0.1046
31185OCT     C162369   0.548  21.959   7.866 -0.0009 -0.2086 -0.1645
31185OCT     C262370   0.166  22.228   7.878 -0.0508  0.2475  0.2237
31186OCT     C162371  17.505  14.780  13.672  0.1883 -0.2571  0.0928
31186OCT     C262372  17.061  14.854  13.940  0.0555 -0.2511  0.1860
31187OCT     C162373   9.154  13.329   3.425 -0.0679  0.3167 -0.0600
31187OCT     C262374   9.486  13.094   3.392 -0.0212  0.0237 -0.0564
31188OCT     C162375  19.958  12.413   8.000 -0.1069 -0.1017 -0.0276
31188OCT     C262376  20.107  12.529   7.555  0.2452  0.1286  0.0366
31189OCT     C162377   9.801   8.416  13.060 -0.0198 -0.0137 -0.1873
31189OCT     C262378   9.472   8.468  13.405  0.0539 -0.0007  0.1802
31190OCT     C162379   8.704  19.408   9.886  0.3952 -0.2763  0.1981
31190OCT     C262380   8.671  19.338   9.379 -0.0451 -0.1057  0.0203
31191OCT     C162381   9.420  17.430   4.425 -0.0119  0.3022  0.2181
31191OCT     C262382   9.088  17.146   4.465  0.0064  0.0624  0.0041
31192OCT     C162383  22.667   7.574   0.125  0.2422  0.0496 -0.1080
31192OCT     C262384  22.541   8.001   0.066 -0.1730  0.0111  0.1407
31193OCT     C162385  11.123  21.904  17.451 -0.0997  0.3440  0.0801
31193OCT     C262386  10.909  21.861  17.051 -0.1173 -0.2130 -0.2141
31194OCT     C162387  13.842  21.131  14.472  0.0642 -0.0949  0.0364
31194OCT     C262388  14.000  21.491  14.123  0.1884  0.1452 -0.0379
31195OCT     C162389  19.209  18.894   2.782 -0.1961 -0.1673  0.1259
31195OCT     C262390  18.811  18.774   2.501 -0.2528 -0.0857 -0.5684
31196OCT     C162391  23.438  13.418   1.057  0.0560  0.1899 -0.2857
31196OCT     C262392  23.301  13.012   1.223 -0.3388 -0.0615  0.3410
31197OCT     C162393  13.126  12.611  23.351 -0.3253  0.2444 -0.3780
31197OCT     C262394  13.623  12.659  23.434  0.0484 -0.1735  0.1936
31198OCT     C162395   7.347  19.426  21.818  0.2795 -0.1684 -0.2133
31198OCT     C262396   7.653  19.543  22.103  0.2725 -0.1994 -0.1400
31199OCT     C162397   3.443  16.068   0.968 -0.1366 -0.1882  0.4141
31199OCT     C262398   3.106  15.995   1.291 -0.2909 -0.3327  0.1507
31200OCT     C162399  15.086  22.217  19.416 -0.1359 -0.3144  0.3934
31200OCT     C262400  15.226  21.821  19.647 -0.2599  0.1380 -0.1320
31201OCT     C162401  15.340   5.316  14.281 -0.0436 -0.0678  0.0895
31201OCT     C262402  15.556   4.916  14.382  0.0092 -0.2762  0.1550
31202OCT     C162403  18.744  20.824   2.457  0.2824  0.0246  0.2261
31202OCT     C262404  19.038  20.720   2.127  0.1358 -0.0639 -0.3619
31203OCT     C162405  12.045   0.499  23.062 -0.0721  0.3798 -0.1809
31203OCT     C262406  11.639   0.281  22.943  0.2015  0.0727 -0.5785
31204OCT     C162407   1.875  12.043   1.893  0.2329  0.1202  0.3368
31204OCT     C262408   2.159  12.057   2.260  0.4696 -0.1712 -0.0727
31205OCT     C162409  13.661  22.020  15.414 -0.0611 -0.0361 -0.0656
31205OCT     C262410  13.743  21.774  15.838  0.0252  0.1110  0.0794
31206OCT     C162411  20.460  13.511  22.966  0.0990 -0.2141 -0.0533
31206OCT     C262412  20.500  13.958  23.033 -0.2207 -0.1285  0.3123
31207OCT     C162413   7.314  12.728   6.095  0.2585  0.2260 -0.0857
31207OCT     C262414   7.569  12.548   6.428 -0.1145  0.1505  0.0048
31208OCT     C162415  18.868   7.222   8.700 -0.2411  0.0704 -0.0754
31208OCT     C262416  18.629   6.806   8.638 -0.0237 -0.1820  0.0527
31209OCT     C162417   7.908  16.565  17.976  0.2171  0.0923  0.2911
31209OCT     C262418   7.697  16.892  18.200 -0.0191  0.0903  0.2563
31210OCT     C162419  19.104  20.468   4.087  0.1644 -0.3493  0.0250
31210OCT     C262420  18.935  20.099   4.412 -0.2056  0.0540  0.1369
31211OCT     C162421  18.657  19.276  22.215 -0.0600 -0.1877 -0.1294
31211OCT     C262422  18.578  19.090  21.821  0.0814 -0.0578 -0.0979
31212OCT     C162423   7.985  17.539   7.538  0.1065 -0.0396 -0.0819
31212OCT     C262424   7.933  18.057   7.567  0.0972  0.1130 -0.1327
31213OCT     C162425  23.308  17.719   5.155  0.4080  0.0217 -0.0313
31213OCT     C262426  23.434  18.044   5.472 -0.1191  0.3452  0.0345
31214OCT     C162427  22.217  22.867   0.259 -0.2484 -0.4417  0.4189
31214OCT     C262428  22.509  22.518   0.353 -0.0457  0.0941  0.0693
31215OCT     C162429   1.870  18.908  12.193  0.1431 -0.1067  0.2343
31215OCT     C262430   2.228  18.731  12.446  0.3986 -0.0203 -0.2640
31216OCT     C162431   1.582   7.833  22.086 -0.0494 -0.1305  0.4622
31216OCT     C262432   2.059   7.807  22.064  0.0036  0.0441  0.3471
31217OCT     C162433   6.855  22.027   5.128  0.2640 -0.4661  0.1778
31217OCT     C262434   6.837  22.490   5.024 -0.0818  0.0897  0.0478
31218OCT     C162435  22.454  15.513   5.464 -0.1850  0.2898 -0.1847
31218OCT     C262436  22.851  15.417   5.704  0.1880  0.0287 -0.0360
31219OCT     C162437  19.077   7.191   2.516  0.0552  0.0202  0.1096
31219OCT     C262438  19.033   6.692   2.518  0.0868 -0.0759 -0.1631
31220OCT     C162439  10.023  18.313  17.311  0.0557  0.2459 -0.0873
31220OCT     C262440  10.217  17.920  17.451 -0.1830  0.0884  0.1364
31221OCT     C162441   7.687   7.263  23.516  0.3569  0.0063  0.0747
31221OCT     C262442   7.774   7.726  23.526  0.2250  0.3143  0.1122
31222OCT     C162443  22.295  10.152  14.049  0.3285  0.2003 -0.2674
31222OCT     C262444  22.567  10.157  14.456  0.2225 -0.0309  0.3163
31223OCT     C162445  18.065  17.811   5.544 -0.0171  0.0627  0.3503
31223OCT     C262446  17.748  17.672   5.913  0.2322  0.1001  0.2092
31224OCT     C162447  14.135  14.259   9.782 -0.0343 -0.1614  0.2832
31224OCT     C262448  13.767  13.998   9.844  0.2599 -0.0891  0.0068
31225OCT     C162449   6.197   0.361  19.942  0.2104  0.3256 -0.0130
31225OCT     C262450   6.036   0.082  19.607 -0.0153 -0.1268  0.3705
31226OCT     C162451  14.499  22.282   2.684  0.3776 -0.2022 -0.2273
31226OCT     C262452  14.124  22.440   2.448 -0.0506 -0.1245 -0.2128
31227OCT     C162453   8.234   8.734   4.541  0.1638  0.1634  0.2097
31227OCT     C262454   7.923   9.107   4.639 -0.2817  0.1973  0.4347
31228OCT     C162455  22.117  18.534   4.983  0.2372 -0.4952 -0.2868
31228OCT     C262456  22.011  18.472   4.532  0.2808  0.4082  0.0742
31229OCT     C162457  18.393   9.910  11.858  0.0792 -0.1151  0.0071
31229OCT     C262458  18.623   9.528  12.073  0.3380  0.0983 -0.0178
31230OCT     C162459   0.036  18.350   3.747 -0.0196  0.1262  0.0084
31230OCT     C262460   0.465  18.326   3.681  0.1902  0.1858  0.0082
31231OCT     C162461  19.375   8.981   3.962 -0.0191 -0.1512 -0.2784
31231OCT     C262462  18.982   8.678   4.018 -0.3978  0.1294 -0.3361
31232OCT     C162463  10.554  15.758   6.744 -0.1603  0.0666  0.0403
31232OCT     C262464  10.950  15.999   6.668  0.1907  0.1364 -0.0013
31233OCT     C162465   2.356   8.168   3.067 -0.1190 -0.1489 -0.4375
31233OCT     C262466   2.256   7.763   2.890  0.4822  0.0605  0.0275
31234OCT     C162467  11.032  11.717  21.619  0.1038 -0.0556  0.0044
31234OCT     C262468  11.235  11.434  21.354  0.1237  0.0779 -0.2365
31235OCT     C162469   0.281  18.168  12.509  0.0145 -0.1567 -0.2123
31235OCT     C262470   0.427  17.804  12.216  0.0311 -0.3027  0.1366
31236OCT     C162471  10.261  10.453   1.143  0.2409 -0.0719  0.2534
31236OCT     C262472  10.427  10.714   1.518 -0.2821 -0.3121 -0.2251
31237OCT     C162473   7.866  14.654  21.167  0.1990  0.4015  0.1035
31237OCT     C262474   7.855  14.465  20.744 -0.4652  0.2697  0.2133
31238OCT     C162475  10.293   5.885  19.125  0.0501  0.0284 -0.0340
31238OCT     C262476  10.309   5.613  19.506  0.2015  0.1883 -0.1205
31239OCT     C162477  15.020   3.020   3.851 -0.0465  0.0925  0.1541
31239OCT     C262478  14.937   2.578   3.810  0.0449  0.1621 -0.5140
31240OCT     C162479   0.497   1.934  20.548 -0.0878  0.1191  0.3784
31240OCT     C262480   0.078   2.175  20.654 -0.0293 -0.0031  0.3758
31241OCT     C162481   0.679  23.136   2.399  0.2351 -0.2082  0.2197
31241OCT     C262482   0.283  23.284   2.575  0.3871  0.3911 -0.1899
31242OCT     C162483   9.747  22.313   0.280  0.1605 -0.0605 -0.1270
31242OCT     C262484   9.717  22.767   0.092 -0.0498 -0.3791 -0.2934
31243OCT     C162485   7.920  19.660   4.898 -0.0274  0.1417 -0.0489
31243OCT     C262486   8.229  19.574   5.245  0.1222  0.0636  0.0214
31244OCT     C162487   1.478   5.318  18.476 -0.0903  0.2178  0.2063
31244OCT     C262488   1.763   4.983  18.231  0.1285  0.3171  0.0385
31245OCT     C162489  21.986  13.410   8.233  0.1735 -0.2289  0.2070
31245OCT     C262490  21.609  13.533   8.331  0.1401 -0.2456  0.2924
31246OCT     C162491  17.773   0.151   9.911  0.0813  0.1026 -0.2357
31246OCT     C262492  18.157  23.711  10.199  0.0404 -0.3420 -0.0799
31247OCT     C162493   0.768   3.871   1.252  0.0073  0.5065  0.2410
31247OCT     C262494   1.125   3.588   1.267  0.1642 -0.3170 -0.1457
31248OCT     C162495   8.753  14.947   5.047 -0.0106  0.3988 -0.2376
31248OCT     C262496   9.087  14.632   4.931  0.0367  0.1559 -0.0075
31249OCT     C162497  16.157   7.634  10.303  0.3272 -0.0841  0.3274
31249OCT     C262498  16.572   7.765  10.350 -0.2200  0.3194 -0.1044
31250OCT     C162499  20.942  12.557   6.410  0.0165  0.4331 -0.0500
31250OCT     C262500  20.475  12.528   6.623 -0.2159  0.4115  0.1381
31251OCT     C162501  15.198  22.661  11.536  0.0205  0.3028 -0.0352
31251OCT     C262502  14.940  23.030  11.399  0.1623  0.2342  0.1180
31252OCT     C162503  10.484   4.973  11.269 -0.0257 -0.1913 -0.3220
31252OCT     C262504  10.698   4.981  10.840  0.0377  0.2640 -0.0809
31253OCT     C162505  12.729  18.323  17.812  0.1882  0.2573 -0.3618
31253OCT     C262506  12.382  18.604  17.838 -0.0564 -0.0683 -0.2102
31254OCT     C162507   6.665   2.192   0.586 -0.1167  0.3646  0.1192
31254OCT     C262508   6.411   1.775   0.367 -0.1329 -0.0386  0.2318
31255OCT     C162509   2.006   1.050  16.056  0.1480  0.0617  0.1365
31255OCT     C262510   1.842   1.505  16.013 -0.1632  0.2933 -0.1380
31256OCT     C162511   3.258  22.326   2.202 -0.2438  0.1685 -0.2318
31256OCT     C262512   3.335  22.684   2.506  0.0016 -0.1420  0.0024
31257OCT     C162513  14.598   3.310   3.646  0.2221 -0.0403 -0.0459
31257OCT     C262514  14.157   3.097   3.581 -0.0256 -0.3292  0.2654
31258OCT     C162515  20.028  16.765   2.846 -0.3559  0.0117  0.1194
31258OCT     C262516  20.419  16.880   3.121  0.2865  0.1830  0.2081
31259OCT     C162517   6.753  19.217  21.199 -0.3985  0.0226 -0.0962
31259OCT     C262518   7.205  18.997  21.344  0.2666 -0.2398 -0.0948
31260OCT     C162519   6.991   3.286  22.349 -0.0734 -0.4562 -0.0579
31260OCT     C262520   7.213   3.717  22.314 -0.0499 -0.1537 -0.1561
31261OCT     C162521  12.576  11.858  20.588 -0.1022  0.2774 -0.0477
31261OCT     C262522  12.280  11.588  20.321  0.2409  0.3091 -0.1910
31262OCT     C162523   1.516   8.532   6.010  0.1049  0.1018  0.0551
31262OCT     C262524   1.988   8.480   5.995  0.0100  0.0221 -0.0129
31263OCT     C162525   5.021   6.315  11.623 -0.0049 -0.4648  0.0737
31263OCT     C262526   4.678   6.617  11.395 -0.2542 -0.4450 -0.0347
31264OCT     C162527   4.279  12.077  19.623  0.1373 -0.0725  0.0217
31264OCT     C262528   4.042  11.969  19.975  0.2772 -0.0198  0.1217
31265OCT     C162529   6.592  21.550   9.780 -0.0665 -0.1074 -0.0976
31265OCT     C262530   6.630  21.042   9.899  0.0782 -0.2026 -0.0419
31266OCT     C162531  23.002  23.153  16.994 -0.0035 -0.1439 -0.2262
31266OCT     C262532  22.935  22.868  16.659 -0.0094 -0.1092  0.2605
31267OCT     C162533  21.668   1.950   0.903  0.2663  0.2145 -0.1995
31267OCT     C262534  21.795   2.071   1.305  0.0765  0.0019  0.0599
31268OCT     C162535   9.664   0.679  12.965  0.0192 -0.0973  0.1757
31268OCT     C262536   9.515   1.038  13.288 -0.0547 -0.0342 -0.1487
31269OCT     C162537  23.456   0.292  16.177 -0.0397 -0.0019 -0.2346
31269OCT     C262538  23.422   0.020  16.575  0.0799  0.1052 -0.0246
31270OCT     C162539   2.309  22.994   4.133  0.2952  0.0844  0.1301
31270OCT     C262540   2.235  22.852   4.582  0.1780  0.2930 -0.1383
31271OCT     C162541   0.530  18.275  14.855 -0.1655 -0.1645  0.0802
31271OCT     C262542   0.824  18.074  15.195 -0.1901  0.3060  0.2114
31272OCT     C162543  11.021  17.190  22.340 -0.2838  0.0582 -0.5597
31272OCT     C262544  11.221  17.060  21.939  0.1140  0.1123  0.2449
31273OCT     C162545  12.094  10.723  20.149 -0.0514  0.0249  0.2410
31273OCT     C262546  11.836  10.432  19.776 -0.4453  0.0837  0.2314
31274OCT     C162547  10.279  19.684   8.627  0.4154 -0.2423  0.2795
31274OCT     C262548   9.855  19.592   8.392  0.0874  0.1155  0.0312
31275OCT     C162549   9.221  15.450   2.548  0.3967  0.0410  0.0658
31275OCT     C262550   9.308  15.697   2.908  0.1105  0.0989 -0.2382
31276OCT     C162551  22.022   7.009   6.195 -0.0052 -0.0862  0.1644
31276OCT     C262552  21.965   7.248   6.549  0.0560  0.0749  0.0511
31277OCT     C162553  14.329  15.102  10.024  0.0371 -0.0309 -0.1884
31277OCT     C262554  13.946  15.204   9.736  0.1990  0.3944 -0.2714
31278OCT     C162555   4.179  10.211  16.745  0.3268 -0.0618  0.0118
31278OCT     C262556   3.878   9.994  16.526  0.0558 -0.4613  0.0254
31279OCT     C162557   9.546  13.443  18.889  0.3317 -0.0053 -0.1263
31279OCT     C262558   9.690  13.760  19.178  0.3366 -0.2840 -0.2746
31280OCT     C162559  11.841  23.547   2.755 -0.0944  0.1359  0.0694
31280OCT     C262560  11.503  23.639   2.446  0.3769 -0.3021  0.0286
31281OCT     C162561  20.459  16.458  20.090  0.3366 -0.1557 -0.1569
31281OCT     C262562  20.741  16.710  20.373 -0.1706 -0.2121  0.1094
31282OCT     C162563  19.067  13.345  21.340 -0.0981  0.0341  0.2052
31282OCT     C262564  19.397  13.038  21.510  0.0140  0.1087  0.1944
31283OCT     C162565   6.192  11.218  15.567  0.2227 -0.0104 -0.3351
31283OCT     C262566   6.408  10.837  15.555  0.3817 -0.5191  0.1830
31284OCT     C162567  13.516   7.760  22.155 -0.0421 -0.0091 -0.0152
31284OCT     C262568  13.219   7.958  22.435  0.3282  0.1804 -0.1759
31285OCT     C162569   3.651  19.487  10.571  0.0155  0.2075  0.0549
31285OCT     C262570   3.256  19.449  10.271  0.4380 -0.0978 -0.0969
31286OCT     C162571   2.611   9.636   9.095  0.1191  0.0859  0.2050
31286OCT     C262572   2.923   9.903   8.820 -0.1316 -0.1733 -0.0497
31287OCT     C162573   4.511  23.038   9.878  0.2904 -0.5064  0.2515
31287OCT     C262574   4.106  23.157   9.700 -0.3094 -0.0221  0.1472
31288OCT     C162575  11.519   3.216   3.187  0.2656  0.1585 -0.4117
31288OCT     C262576  11.164   2.921   3.301 -0.1107  0.0032  0.0774
31289OCT     C162577  18.418   7.165   3.849 -0.5302  0.1421 -0.0267
31289OCT     C262578  18.012   7.242   4.072 -0.1060  0.2499 -0.1962
31290OCT     C162579  19.439  19.384  15.785 -0.0802 -0.2195 -0.0918
31290OCT     C262580  19.746  19.044  15.714 -0.1135  0.3215 -0.0962
31291OCT     C162581  20.862  19.616   4.852  0.2580  0.0055  0.2062
31291OCT     C262582  20.461  19.308   4.848 -0.1457 -0.2126  0.0050
31292OCT     C162583   4.193  11.670   7.916  0.2404 -0.1534 -0.0189
31292OCT     C262584   3.784  11.668   8.174 -0.0616 -0.3295 -0.4338
31293OCT     C162585  10.829  15.541  15.136  0.1083  0.2517 -0.0314
31293OCT     C262586  10.397  15.378  14.991 -0.2658  0.3226 -0.2075
31294OCT     C162587  14.470   9.615  13.984 -0.1597 -0.1316 -0.0494
31294OCT     C262588  14.768   9.570  14.332 -0.0107  0.0404 -0.1048
31295OCT     C162589  10.674  16.874   4.481 -0.0050  0.0594  0.1459
31295OCT     C262590  11.017  16.935   4.124  0.2725 -0.2899  0.1156
31296OCT     C162591   6.729   9.133  23.492  0.0200 -0.1791 -0.1235
31296OCT     C262592   6.884   9.319   0.188 -0.2169 -0.5200  0.0750
31297OCT     C162593   1.577  12.728  17.088  0.2444 -0.1472  0.1090
31297OCT     C262594   1.584  12.617  16.642  0.2025 -0.1886 -0.4118
31298OCT     C162595  21.461  21.403  23.457 -0.0315  0.2252 -0.0225
31298OCT     C262596  21.353  20.986  23.248  0.2351  0.0967  0.1324
31299OCT     C162597  11.254  15.393  10.620  0.2288  0.3298  0.0812
31299OCT     C262598  11.333  15.568  11.069 -0.1786  0.1157  0.2418
31300OCT     C162599   5.650   3.247  12.919  0.0971 -0.2243 -0.0569
31300OCT     C262600   5.321   3.603  12.841 -0.2922  0.3720 -0.1405
31301OCT     C162601  14.328   8.151  12.651 -0.1838 -0.1224 -0.2000
31301OCT     C262602  14.001   7.800  12.812 -0.2833 -0.0419  0.2025
31302OCT     C162603  20.731  16.466   5.658 -0.2886 -0.3026  0.1957
31302OCT     C262604  20.913  16.898   5.553 -0.0429 -0.1398  0.2539
31303OCT     C162605  12.841   4.056  18.120  0.3287  0.2108  0.0883
31303OCT     C262606  13.043   3.919  18.520 -0.2878 -0.1535 -0.0309
31304OCT     C162607   1.526  10.366  23.669 -0.0711 -0.0556  0.4468
31304OCT     C262608   1.358  10.243   0.268  0.1947  0.1714 -0.0326
31305OCT     C162609  18.105  18.565  20.883 -0.0874  0.2861 -0.3891
31305OCT     C262610  18.558  18.526  21.024 -0.2948  0.0263 -0.1303
31306OCT     C162611  15.782   8.068   7.430 -0.6253 -0.0041 -0.2761
31306OCT     C262612  15.760   8.504   7.523  0.1044 -0.1190 -0.1799
31307OCT     C162613  16.343  14.565   0.058 -0.4930 -0.0760 -0.1340
31307OCT     C262614  16.663  14.899  23.577 -0.0625 -0.1502 -0.0144
31308OCT     C162615   6.439   4.623   1.705 -0.0791  0.0547  0.0777
31308OCT     C262616   6.536   4.195   1.578  0.2451  0.1082  0.1398
31309OCT     C162617   3.394   8.834   7.595 -0.1794  0.2642 -0.0882
31309OCT     C262618   3.849   8.906   7.599  0.2139 -0.0279  0.0091
31310OCT     C162619   0.025  13.458   8.722  0.2018  0.0776  0.3033
31310OCT     C262620   0.359  13.748   8.899 -0.2675  0.4284 -0.1739
31311OCT     C162621  20.500  23.466  13.962  0.0058  0.2206  0.1775
31311OCT     C262622  20.711   0.085  13.740  0.2962  0.1888  0.1607
31312OCT     C162623   0.280   8.719  10.927 -0.0802 -0.0245 -0.0257
31312OCT     C262624   0.463   9.112  10.658  0.0287  0.3557 -0.1768
31313OCT     C162625  10.005   8.612  16.277 -0.0568  0.2954  0.1436
31313OCT     C262626   9.546   8.524  16.422 -0.0343  0.1044  0.4251
31314OCT     C162627  12.187   7.148   0.970  0.1310 -0.1814 -0.1943
31314OCT     C262628  11.797   6.956   0.893 -0.1380 -0.1453  0.0094
31315OCT     C162629   8.906  10.052   6.983 -0.0599  0.1030  0.2360
31315OCT     C262630   9.212   9.946   6.631 -0.0862 -0.0981 -0.1210
31316OCT     C162631   7.851  22.988   1.344 -0.0947 -0.1874  0.0883
31316OCT     C262632   7.686  23.162   0.946  0.1156 -0.2760  0.3999
31317OCT     C162633  10.831   3.211   1.510 -0.2080  0.2739 -0.0572
31317OCT     C262634  10.924   3.002   1.911 -0.0925  0.1113 -0.0764
31318OCT     C162635  18.678   2.807   5.990 -0.4173  0.1412  0.2362
31318OCT     C262636  18.786   2.588   5.567 -0.3212  0.2508  0.2738
31319OCT     C162637   8.214   3.616  21.476  0.0440  0.1783 -0.3279
31319OCT     C262638   7.805   3.760  21.704 -0.0723 -0.1554  0.1783
31320OCT     C162639  13.176  19.710  10.965 -0.0371 -0.0479  0.2470
31320OCT     C262640  13.015  20.172  11.220  0.1678  0.0705  0.2279
31321OCT     C162641   1.337   1.545  17.211 -0.1185 -0.1686  0.0572
31321OCT     C262642   1.472   1.228  16.925  0.0469  0.6213 -0.1058
31322OCT     C162643  18.504  18.583   8.718 -0.2152  0.0876  0.1855
31322OCT     C262644  18.877  18.800   8.918 -0.1230  0.2219 -0.4313
31323OCT     C162645   9.798   4.284  12.116 -0.0669  0.1297 -0.3238
31323OCT     C262646  10.102   4.298  11.727  0.0294 -0.1209  0.1191
31324OCT     C162647   2.588   4.465   0.827  0.1887 -0.1332 -0.1113
31324OCT     C262648   2.376   4.844   0.568 -0.1992  0.4807  0.2724
31325OCT     C162649  10.726   8.792   3.764  0.1233  0.1704 -0.2160
31325OCT     C262650  11.189   8.670   3.850 -0.0029  0.1660  0.1714
31326OCT     C162651   2.120  15.294   6.954  0.2875  0.2921  0.1094
31326OCT     C262652   2.375  14.917   6.772  0.1967  0.0004  0.3284
31327OCT     C162653  12.086   0.274  17.872 -0.0878  0.0451  0.0093
31327OCT     C262654  12.136   0.348  18.333  0.1475  0.1979 -0.2254
31328OCT     C162655  16.325   6.495  10.597 -0.2926  0.0987 -0.0521
31328OCT     C262656  16.675   6.163  10.556  0.0393 -0.2267 -0.2910
31329OCT     C162657   3.103   6.730  17.926 -0.2996 -0.1305  0.2044
31329OCT     C262658   3.387   6.944  17.643 -0.1114 -0.0775  0.0796
31330OCT     C162659  20.099   8.767  21.707  0.3091 -0.0835 -0.0123
31330OCT     C262660  20.060   8.496  22.122 -0.0801 -0.0215 -0.2014
31331OCT     C162661   3.178  19.136   8.331 -0.0917  0.0887  0.4672
31331OCT     C262662   3.009  18.707   8.477 -0.1610 -0.0806  0.1683
31332OCT     C162663   5.168  19.770   3.060 -0.2017  0.3689 -0.1821
31332OCT     C262664   4.928  20.003   3.388 -0.0324 -0.0031 -0.0502
31333OCT     C162665   8.734   1.909   8.848  0.1908  0.0007  0.2492
31333OCT     C262666   9.080   1.812   8.506  0.0718 -0.0950 -0.2187
31334OCT     C162667   5.207  14.387   2.383  0.3538  0.0654 -0.3298
31334OCT     C262668   5.294  14.474   1.917 -0.3582 -0.0139 -0.2296
31335OCT     C162669   0.781  22.433   5.227  0.1483 -0.0869  0.3069
31335OCT     C262670   1.249  22.589   5.321  0.1335 -0.0591  0.0843
31336OCT     C162671   3.831   1.703  22.390  0.3045  0.1914  0.0573
31336OCT     C262672   3.828   1.828  21.944  0.2243 -0.3919  0.1564
31337OCT     C162673  20.018   8.700   0.687  0.1364  0.1130  0.3814
31337OCT     C262674  19.975   8.994   1.031 -0.0735  0.2500  0.2758
31338OCT     C162675  10.933  17.623  13.710  0.1332  0.0224  0.0942
31338OCT     C262676  10.906  17.380  13.285 -0.1134 -0.2827 -0.0332
31339OCT     C162677  17.814  17.491  15.441 -0.2867 -0.0059  0.0270
31339OCT     C262678  17.407  17.317  15.504 -0.1526 -0.2323 -0.0045
31340OCT     C162679   9.870   3.522   0.291 -0.1211  0.1181 -0.2457
31340OCT     C262680   9.863   3.134   0.534  0.0794  0.0368  0.0731
31341OCT     C162681  23.372  11.192  11.551  0.2489 -0.0453 -0.0488
31341OCT     C262682  23.223  10.918  11.952 -0.0004 -0.1763  0.0080
31342OCT     C162683  18.574  10.146  20.468  0.0162 -0.1323  0.0484
31342OCT     C262684  18.426   9.728  20.572  0.2100  0.3351  0.0234
31343OCT     C162685   7.567   5.528  12.822  0.1383 -0.4892 -0.0438
31343OCT     C262686   7.332   5.212  13.163 -0.0049  0.0755  0.2659
31344OCT     C162687   8.199   7.978  19.569 -0.3063 -0.1187 -0.0161
31344OCT     C262688   8.127   8.346  19.874  0.0141 -0.1471 -0.1037
31345OCT     C162689  15.297  12.649   8.284 -0.0651 -0.2500  0.0966
31345OCT     C262690  15.558  12.718   7.848  0.0988 -0.0175 -0.3582
31346OCT     C162691  21.623   4.352  19.099  0.0760  0.4314 -0.3044
31346OCT     C262692  21.961   4.624  19.180 -0.1704 -0.1698  0.2968
31347OCT     C162693   9.785   8.168  10.002 -0.2057  0.1427 -0.2850
31347OCT     C262694   9.958   8.529  10.212  0.1093 -0.2732  0.3947
31348OCT     C162695   5.766  12.995   9.984 -0.0442  0.2587 -0.3522
31348OCT     C262696   5.612  12.580   9.805 -0.0945  0.1907  0.1492
31349OCT     C162697  14.190  11.654   4.393  0.1549 -0.3117  0.0815
31349OCT     C262698  13.829  11.373   4.481  0.1250 -0.3635 -0.1436
31350OCT     C162699   1.528  17.014  22.547 -0.4413  0.0020 -0.0134
31350OCT     C262700   1.427  16.802  22.963  0.1228 -0.3271 -0.0386
31351OCT     C162701  13.085  23.223  12.084  0.0431  0.3053 -0.0397
31351OCT     C262702  13.393  23.618  12.067  0.6285  0.0466  0.0873
31352OCT     C162703   9.764  10.331   1.055  0.1871 -0.2209  0.3178
31352OCT     C262704   9.341  10.124   0.911 -0.0778 -0.5261 -0.0838
31353OCT     C162705   0.848   2.485  17.426  0.1347 -0.4635 -0.2715
31353OCT     C262706   0.889   2.978  17.306 -0.4387 -0.0739  0.1485
31354OCT     C162707  14.602   4.521  21.575 -0.0599  0.0460 -0.0059
31354OCT     C262708  14.854   4.844  21.735  0.1804  0.1864  0.2359
31355OCT     C162709   1.216  16.801  10.026 -0.0216  0.0866  0.2193
31355OCT     C262710   0.783  16.949   9.978 -0.0928  0.1337 -0.2912
31356OCT     C162711  17.548   5.629   5.603 -0.0290  0.3905 -0.3746
31356OCT     C262712  17.406   5.474   6.082 -0.1294 -0.0337 -0.2827
31357OCT     C162713  20.626   2.550   7.815  0.0898  0.1939 -0.0093
31357OCT     C262714  20.588   3.051   7.978 -0.2966  0.1592  0.2369
31358OCT     C162715  16.244   1.234   8.953  0.0908  0.5016  0.2247
31358OCT     C262716  16.211   1.093   9.405  0.4104 -0.0472  0.0785
31359OCT     C162717  23.140   4.326   1.572 -0.0425 -0.6374 -0.0736
31359OCT     C262718  22.816   4.297   1.927 -0.0410 -0.0613 -0.1905
31360OCT     C162719  13.034  18.128   4.523 -0.0030 -0.1707 -0.4098
31360OCT     C262720  12.664  18.327   4.727 -0.4020 -0.1128 -0.2113
31361OCT     C162721  18.646  23.042   4.673  0.3923 -0.0787 -0.3523
31361OCT     C262722  18.817  22.617   4.558 -0.1951 -0.0595 -0.4204
31362OCT     C162723  23.634   7.414   4.996 -0.1601  0.3717  0.0798
31362OCT     C262724  23.274   7.092   4.993  0.1025 -0.1855  0.0835
31363OCT     C162725   4.483   1.117  13.405 -0.3297  0.2372  0.0766
31363OCT     C262726   4.148   1.325  13.680  0.3117  0.4445 -0.0972
31364OCT     C162727  12.641   7.859  14.737 -0.1172  0.0540  0.1437
31364OCT     C262728  12.218   8.003  14.804  0.0931  0.1968  0.0852
31365OCT     C162729  16.515  21.777  15.402  0.1909 -0.1358 -0.1089
31365OCT     C262730  16.590  21.287  15.455 -0.0970 -0.1639 -0.0348
31366OCT     C162731   2.325  13.050   7.704  0.2005 -0.0301 -0.1418
31366OCT     C262732   2.473  13.236   7.319 -0.0623  0.0148  0.4332
31367OCT     C162733   5.691  15.670   9.857  0.0471  0.1301 -0.2195
31367OCT     C262734   5.659  16.189   9.892  0.0204  0.1199  0.0367
31368OCT     C162735  22.878  18.965  21.792 -0.3255 -0.0917 -0.2884
31368OCT     C262736  22.759  19.427  21.876  0.0684  0.0245 -0.0437
31369OCT     C162737   5.303   7.282   1.241  0.0529 -0.0135 -0.1010
31369OCT     C262738   4.894   7.144   1.110  0.1118 -0.1671  0.6359
31370OCT     C162739   5.453  22.006  18.303 -0.1899 -0.3678  0.1385
31370OCT     C262740   5.010  22.044  18.172 -0.1961 -0.3216 -0.0628
31371OCT     C162741   9.742  14.580   5.559  0.4866 -0.0748 -0.0476
31371OCT     C262742   9.508  14.877   5.837  0.2169 -0.0820  0.3061
31372OCT     C162743   5.595  14.775  21.846  0.0454 -0.2894 -0.1290
31372OCT     C262744   5.180  14.982  21.990  0.0254 -0.0199 -0.1724
31373OCT     C162745   7.810  15.137  22.672  0.0745  0.0212  0.0095
31373OCT     C262746   8.217  15.291  22.877  0.1088  0.2577 -0.1666
31374OCT     C162747   6.243  11.044  19.367  0.4265 -0.1140  0.1510
31374OCT     C262748   6.632  10.874  19.279  0.3092 -0.2451  0.0846
31375OCT     C162749  15.942   5.840   5.748  0.0918  0.2807 -0.0180
31375OCT     C262750  15.540   5.681   5.778  0.1373  0.3329 -0.0319
31376OCT     C162751   7.474  11.462  20.245  0.3992 -0.0577  0.1864
31376OCT     C262752   7.142  11.578  20.521 -0.0635 -0.2046 -0.3512
31377OCT     C162753   4.251   3.159  16.406  0.2264 -0.0474  0.0520
31377OCT     C262754   4.608   3.516  16.429  0.3531  0.2114 -0.1606
31378OCT     C162755  21.922  12.822  18.383  0.0927 -0.4058 -0.3596
31378OCT     C262756  21.629  12.659  18.081 -0.2820 -0.0366 -0.1155
31379OCT     C162757   0.233   2.590   3.823 -0.1652 -0.2640  0.1857
31379OCT     C262758   0.294   2.719   3.355  0.0525 -0.0074 -0.0612
31380OCT     C162759  15.761  18.498   7.337 -0.3093 -0.1557 -0.2064
31380OCT     C262760  16.232  18.465   7.144 -0.5332  0.2071  0.2344
31381OCT     C162761  14.241  13.828   7.743  0.3815  0.0860 -0.1909
31381OCT     C262762  14.435  13.534   7.460 -0.0156 -0.1420 -0.1779
31382OCT     C162763   5.647   1.911  20.602  0.0886  0.2840  0.0344
31382OCT     C262764   5.871   1.671  20.851  0.0614 -0.1305 -0.4960
31383OCT     C162765  11.138  11.905   2.775  0.2278  0.0121 -0.0671
31383OCT     C262766  10.941  11.534   2.981 -0.2604 -0.1968 -0.0527
31384OCT     C162767  20.341   1.050  13.215  0.0993 -0.1142  0.2519
31384OCT     C262768  20.668   1.202  13.530  0.0498  0.1727  0.0544
31385OCT     C162769   4.646   5.832   0.342  0.0325  0.1050 -0.0530
31385OCT     C262770   4.699   6.307   0.284 -0.1717  0.1652  0.2549
31386OCT     C162771   4.681   7.291   0.678  0.1142  0.4137 -0.1647
31386OCT     C262772   4.428   7.022   0.984  0.0310 -0.1683 -0.2968
31387OCT     C162773   3.014  20.570  13.886 -0.1060 -0.0564 -0.2947
31387OCT     C262774   3.008  20.119  13.827  0.0170  0.1523 -0.1332
31388OCT     C162775  10.861  13.092  13.333  0.2284 -0.2217  0.2001
31388OCT     C262776  10.746  13.539  13.320 -0.2618  0.1006  0.2240
31389OCT     C162777  19.409  16.767  17.912 -0.4144  0.3569  0.2958
31389OCT     C262778  19.294  16.973  17.504  0.2216  0.4500 -0.2480
31390OCT     C162779  12.529   7.924   5.977 -0.1682 -0.2528 -0.3408
31390OCT     C262780  12.787   7.781   5.612 -0.1671  0.0052 -0.1985
31391OCT     C162781  13.715  22.922   0.715  0.1641 -0.0265 -0.1414
31391OCT     C262782  14.114  23.040   0.511  0.1481 -0.1385  0.1176
31392OCT     C162783  19.156   0.208   0.835 -0.1938  0.1096  0.2981
31392OCT     C262784  19.639   0.212   0.868 -0.1407  0.3798  0.3210
31393OCT     C162785  12.715  15.092   4.355  0.2543 -0.5087  0.1344
31393OCT     C262786  12.949  15.227   3.978 -0.0539 -0.0821  0.2528
31394OCT     C162787  21.564  22.392   2.421 -0.0252  0.2683  0.0419
31394OCT     C262788  21.153  22.385   2.155  0.0465  0.1902  0.1377
31395OCT     C162789   6.336  10.845  16.630 -0.0594  0.1523  0.1030
31395OCT     C262790   6.324  11.321  16.562 -0.2397  0.0433 -0.0812
31396OCT     C162791  14.990   7.441   3.525 -0.1037  0.3227  0.0793
31396OCT     C262792  14.785   7.191   3.841  0.1496  0.1779 -0.1218
31397OCT     C162793   9.674   5.209   4.090  0.1940 -0.1311 -0.1188
31397OCT     C262794   9.586   5.424   3.655 -0.2106  0.2361  0.3093
31398OCT     C162795  17.082  15.323  14.252  0.1508 -0.0065  0.2226
31398OCT     C262796  16.986  15.769  14.244  0.0214  0.1421 -0.2522
31399OCT     C162797  13.429  11.664  16.991 -0.1737 -0.0212  0.0629
31399OCT     C262798  13.882  11.865  17.140  0.2057  0.3112 -0.0784
31400OCT     C162799   5.950   1.094   2.961  0.4605  0.0320  0.0270
31400OCT     C262800   5.773   0.803   3.272 -0.2083  0.0377  0.2102
31401OCT     C162801  23.389  17.665   9.546 -0.0835  0.1193  0.1563
31401OCT     C262802  23.047  17.580   9.233 -0.1091 -0.1653 -0.0693
31402OCT     C162803  21.228   3.371  12.215  0.0260  0.0229 -0.0301
31402OCT     C262804  20.845   3.191  12.454 -0.3011 -0.2518  0.0087
31403OCT     C162805  21.082  11.532   7.061 -0.1162  0.2948 -0.1698
31403OCT     C262806  21.423  11.780   6.815  0.3238 -0.3337  0.0878
31404OCT     C162807  20.286   8.382   7.336 -0.6694 -0.2928  0.1451
31404OCT     C262808  20.023   8.290   7.737 -0.1195  0.1243  0.1248
31405OCT     C162809  17.202   7.892   4.114  0.2826 -0.1679  0.1674
31405OCT     C262810  17.127   7.455   4.130  0.0743  0.2309  0.0363
31406OCT     C162811   3.158   3.098  21.535  0.0729  0.2068 -0.0865
31406OCT     C262812   3.614   3.123  21.545 -0.1153  0.2872 -0.0293
31407OCT     C162813   6.635   3.669  19.052  0.0647  0.2791  0.1000
31407OCT     C262814   6.919   3.926  18.865  0.4323  0.1613  0.0379
31408OCT     C162815   7.025  12.717   0.962  0.0537  0.0777 -0.0453
31408OCT     C262816   7.490  12.572   0.914 -0.0466 -0.0783 -0.1440
31409OCT     C162817  14.464  17.973   6.020  0.0414  0.0910  0.0510
31409OCT     C262818  14.066  18.199   6.106  0.1135  0.1500  0.3145
31410OCT     C162819   3.343   5.880   3.845 -0.0098 -0.0812 -0.0465
31410OCT     C262820   3.726   6.017   4.038 -0.4434  0.1708  0.5296
31411OCT     C162821   1.139   6.508   6.796 -0.1927 -0.0438  0.1958
31411OCT     C262822   1.376   6.255   6.514  0.0813  0.2488 -0.0317
31412OCT     C162823   2.943  19.094   4.095 -0.1445  0.2637 -0.1638
31412OCT     C262824   2.592  19.205   4.346  0.1905 -0.4343  0.0402
31413OCT     C162825  13.328   0.997  19.762  0.1646  0.0704  0.1172
31413OCT     C262826  13.024   1.250  19.558 -0.3194 -0.0965  0.0702
31414OCT     C162827  18.440   1.635   9.362  0.2460 -0.2649 -0.0427
31414OCT     C262828  18.765   1.603   9.004 -0.0438  0.0152  0.0525
31415OCT     C162829  17.563  17.902   7.293 -0.2368 -0.0088 -0.4328
31415OCT     C262830  17.206  17.972   7.043 -0.1059  0.0153  0.0549
31416OCT     C162831  12.797   4.144  16.803  0.1652 -0.3605 -0.2017
31416OCT     C262832  13.151   4.438  17.032 -0.3334  0.1680 -0.0039
31417OCT     C162833  17.485   4.702   7.584 -0.1185  0.6342 -0.0598
31417OCT     C262834  17.211   4.537   7.935  0.3780  0.0134  0.2408
31418OCT     C162835   6.857   7.959  23.228 -0.0019 -0.1154 -0.1672
31418OCT     C262836   7.022   7.691  22.829  0.3873  0.1570  0.1067
31419OCT     C162837  12.371   7.853  10.087  0.0896 -0.1515  0.4781
31419OCT     C262838  12.152   8.241  10.217  0.0735  0.1074  0.4957
31420OCT     C162839  18.945  14.327   2.938  0.1064 -0.1297  0.0634
31420OCT     C262840  19.053  14.011   2.591 -0.2146 -0.1481  0.0807
31421OCT     C162841  16.424   7.330   0.552 -0.0226 -0.3262  0.2279
31421OCT     C262842  16.260   7.362   0.114  0.2084  0.3931  0.1447
31422OCT     C162843   1.203  14.698  16.068 -0.0252 -0.1555  0.1716
31422OCT     C262844   1.102  14.227  16.013 -0.3100 -0.0151 -0.0327
31423OCT     C162845  23.621  13.864  22.626  0.0310 -0.3869 -0.2029
31423OCT     C262846  23.387  13.853  22.216  0.0108  0.1505 -0.0741
31424OCT     C162847  20.662   7.824   5.303 -0.0754 -0.0577 -0.0689
31424OCT     C262848  20.864   8.214   5.265  0.1466  0.0383 -0.3249
31425OCT     C162849   7.567  16.987  16.665  0.1077  0.4667  0.1637
31425OCT     C262850   7.405  17.119  16.229  0.1285  0.1608  0.2199
31426OCT     C162851  17.633   8.390   7.865 -0.1528  0.0746  0.3448
31426OCT     C262852  17.294   8.048   7.704  0.1721  0.1248 -0.0440
31427OCT     C162853  11.584   5.400   4.523 -0.4040 -0.0983 -0.0365
31427OCT     C262854  11.867   5.726   4.580 -0.2911 -0.3619 -0.0425
31428OCT     C162855   5.599  22.513  16.185  0.2243 -0.0196  0.1523
31428OCT     C262856   5.269  22.182  15.998 -0.4435  0.1887  0.2575
31429OCT     C162857  18.450  11.196   7.096 -0.1320  0.0982  0.0711
31429OCT     C262858  18.807  11.117   6.854 -0.1925 -0.2595  0.2453
31430OCT     C162859  12.155  18.595  14.535 -0.0169 -0.2070  0.2571
31430OCT     C262860  12.465  18.527  14.243 -0.0388 -0.2128 -0.2840
31431OCT     C162861  12.641  12.762  23.048 -0.1539 -0.1102 -0.0756
31431OCT     C262862  12.510  12.501  23.280  0.0707  0.3620 -0.0105
31432OCT     C162863  17.233  16.927   7.512  0.3612  0.0016  0.0745
31432OCT     C262864  17.491  16.637   7.192  0.5223  0.2053 -0.0220
31433OCT     C162865  22.558   8.078  14.980 -0.0062  0.1680 -0.1300
31433OCT     C262866  22.936   8.409  14.905  0.4287 -0.1145  0.1399
31434OCT     C162867   1.683   1.315  11.337  0.3961  0.2460  0.1861
31434OCT     C262868   1.564   1.098  11.723 -0.4875  0.3593 -0.0259
31435OCT     C162869   2.364   0.163  11.552 -0.0923  0.1215 -0.0424
31435OCT     C262870   2.290  23.536  11.840 -0.2868  0.1161  0.1350
31436OCT     C162871  13.663  11.050  11.371 -0.4322  0.2046  0.2404
31436OCT     C262872  13.425  10.762  11.663  0.0609  0.2792 -0.1121
31437OCT     C162873   0.254   1.927  22.000  0.0501 -0.0834  0.0561
31437OCT     C262874   0.490   2.076  21.615  0.2819  0.2259  0.2655
31438OCT     C162875   6.878  22.713  16.157 -0.0300  0.1802  0.0132
31438OCT     C262876   6.419  22.880  16.143  0.0659 -0.3128  0.1931
31439OCT     C162877  17.476  12.001   2.262  0.0199 -0.0076  0.2103
31439OCT     C262878  17.002  12.168   2.276  0.2108  0.3274 -0.0080
31440OCT     C162879   8.329   3.463   1.890 -0.0492  0.0610  0.1102
31440OCT     C262880   8.645   3.217   2.082 -0.0130  0.2596 -0.1119
31441OCT     C162881   7.649  22.540   5.430  0.3173 -0.4944  0.0752
31441OCT     C262882   7.215  22.591   5.378 -0.0739 -0.1081  0.2095
31442OCT     C162883  11.404  20.680   9.760  0.1039 -0.3003 -0.1603
31442OCT     C262884  11.000  20.867   9.677 -0.0851  0.2003  0.2112
31443OCT     C162885   0.662   8.013  16.062 -0.1826  0.4036  0.0601
31443OCT     C262886   0.329   7.664  16.039  0.0641  0.0479  0.0750
31444OCT     C162887  23.516  10.962  16.062  0.3846 -0.0071 -0.0502
31444OCT     C262888   0.100  11.225  15.818 -0.0380  0.3149 -0.1796
31445OCT     C162889   3.521  23.670  16.996  0.1024 -0.0187  0.0811
31445OCT     C262890   3.959  23.675  17.093 -0.0707 -0.0031  0.2181
31446OCT     C162891  20.984  21.145  13.736 -0.0401 -0.1065 -0.3873
31446OCT     C262892  21.241  20.907  13.382 -0.0807 -0.0225  0.1767
31447OCT     C162893  23.556  22.064  11.063  0.1481 -0.0770  0.3426
31447OCT     C262894  23.274  22.432  10.983 -0.4798  0.0044 -0.0106
31448OCT     C162895   6.099  22.560  19.997 -0.0388 -0.0559 -0.1082
31448OCT     C262896   6.216  22.708  19.533 -0.2142 -0.2017 -0.1058
31449OCT     C162897   8.986   6.574   5.424  0.0959  0.4230  0.0957
31449OCT     C262898   9.418   6.733   5.423 -0.0606 -0.1461 -0.0082
31450OCT     C162899  10.988  12.246  16.305 -0.0295  0.1644 -0.1694
31450OCT     C262900  11.396  12.471  16.288 -0.1925  0.0459  0.0362
31451OCT     C162901  13.841  13.427  17.718  0.1012 -0.2604 -0.1347
31451OCT     C262902  13.648  13.714  18.013 -0.0209 -0.1856 -0.1924
31452OCT     C162903  16.443   4.449  23.341  0.1687 -0.0821  0.1368
31452OCT     C262904  16.164   4.116  23.242 -0.4145 -0.0525  0.0313
31453OCT     C162905  23.005   8.519   3.924 -0.2235  0.5118  0.3568
31453OCT     C262906  22.610   8.777   3.961 -0.0760  0.1748  0.4083
31454OCT     C162907  11.988  17.369  10.956  0.0289  0.1842 -0.2180
31454OCT     C262908  12.317  17.105  10.864 -0.0405 -0.2784  0.0070
31455OCT     C162909   3.275  12.161   4.203  0.0881 -0.0280 -0.5103
31455OCT     C262910   3.415  12.588   4.351  0.0672  0.2911 -0.1858
31456OCT     C162911  21.207   1.820  22.637 -0.0634  0.0503  0.0032
31456OCT     C262912  21.407   1.764  22.243  0.1129  0.3069  0.1727
31457OCT     C162913  15.325   1.562   1.653 -0.0992 -0.2340  0.0087
31457OCT     C262914  15.701   1.337   1.398  0.2397 -0.2029 -0.2200
31458OCT     C162915   1.823  11.178   1.887  0.4816 -0.0876  0.0301
31458OCT     C262916   2.060  11.548   1.906  0.6782 -0.0340 -0.0778
31459OCT     C162917   5.018  18.156   7.888  0.1123 -0.2797 -0.2535
31459OCT     C262918   5.170  17.982   8.264 -0.0547  0.1363  0.1288
31460OCT     C162919   5.693   2.435  11.102 -0.2584 -0.0531 -0.1937
31460OCT     C262920   5.605   2.890  11.048  0.1247 -0.0376  0.2035
31461OCT     C162921  16.274  13.177   0.336  0.0823  0.3096  0.1081
31461OCT     C262922  16.756  13.206   0.399  0.0345  0.0778  0.1723
31462OCT     C162923   5.620   6.743   9.717  0.2098 -0.1023  0.2661
31462OCT     C262924   5.625   7.084   9.373  0.0666 -0.2886  0.0578
31463OCT     C162925  10.314  18.229  10.982 -0.2468  0.0388 -0.2087
31463OCT     C262926  10.227  18.115  10.589  0.2245 -0.5279 -0.0093
31464OCT     C162927  12.927   2.936   4.121 -0.1042  0.2061  0.0817
31464OCT     C262928  12.842   2.633   3.771 -0.0981  0.2226 -0.2951
31465OCT     C162929  18.150  12.379   3.240 -0.2742 -0.1476 -0.2611
31465OCT     C262930  18.395  12.480   2.877  0.0937  0.0237 -0.1359
31466OCT     C162931   1.349  13.399  10.068 -0.2609 -0.1606  0.0784
31466OCT     C262932   1.547  13.235  10.429 -0.2324 -0.2286  0.3028
31467OCT     C162933  13.428  18.590  16.268  0.0484  0.1850  0.2986
31467OCT     C262934  13.468  19.025  16.468 -0.3500  0.6027  0.1009
31468OCT     C162935  13.133   9.149  23.006 -0.3552 -0.1240  0.0326
31468OCT     C262936  13.176   9.634  22.999 -0.5571  0.3587  0.3789
31469OCT     C162937  17.193  18.930   7.820  0.1032 -0.2191  0.0908
31469OCT     C262938  17.052  19.337   8.049  0.0141  0.1300 -0.3959
31470OCT     C162939   8.354   8.426  18.225  0.3710  0.2517  0.0240
31470OCT     C262940   8.605   8.195  17.894  0.0280  0.1163  0.0981
31471OCT     C162941   1.332  11.804   4.977 -0.1872 -0.0902  0.3788
31471OCT     C262942   1.280  11.758   5.415  0.0382 -0.1345  0.1116
31472OCT     C162943  13.629   2.048  12.554  0.1035  0.2198  0.0477
31472OCT     C262944  13.887   1.914  12.929 -0.2005 -0.5705  0.2000
31473OCT     C162945   2.604  21.385  21.159  0.1299  0.2053  0.0685
31473OCT     C262946   2.185  21.374  21.025  0.1793  0.1489 -0.0777
31474OCT     C162947   6.194   3.520   6.095 -0.5248 -0.1010  0.3140
31474OCT     C262948   6.549   3.425   6.424  0.3556 -0.1825 -0.0570
31475OCT     C162949  11.432   8.301   2.930  0.2595  0.1294  0.0209
31475OCT     C262950  11.412   7.823   2.745 -0.3640 -0.0188 -0.0903
31476OCT     C162951  14.043   1.593  17.160  0.0704 -0.1527  0.0250
31476OCT     C262952  14.074   1.212  16.870  0.0725  0.1786 -0.0951
31477OCT     C162953   7.447  18.504  21.695 -0.4840  0.1549 -0.0236
31477OCT     C262954   7.276  18.245  21.259 -0.3341 -0.0455  0.2629
31478OCT     C162955   0.691  13.697  19.253  0.0985 -0.3333 -0.0788
31478OCT     C262956   1.025  13.554  19.584 -0.1985  0.1499  0.2798
31479OCT     C162957   2.944   3.384   2.999 -0.1804  0.0422 -0.1722
31479OCT     C262958   2.629   3.381   3.358 -0.3607  0.0392  0.1279
31480OCT     C162959  20.550  18.567  21.676  0.1326  0.0074 -0.3568
31480OCT     C262960  20.904  18.689  22.016  0.1275 -0.2740  0.0952
31481OCT     C162961   0.125  12.724  22.067  0.2686 -0.4459  0.2306
31481OCT     C262962   0.134  12.914  22.488  0.1437 -0.1581  0.1973
31482OCT     C162963  18.049  21.300  13.700 -0.2729  0.1877  0.1681
31482OCT     C262964  17.952  21.530  14.091 -0.3221 -0.2399  0.3125
31483OCT     C162965   2.897  18.348  18.121  0.0863 -0.3105 -0.2447
31483OCT     C262966   2.652  18.773  18.081  0.0759  0.0521 -0.2158
31484OCT     C162967  18.853  18.456  18.017  0.1884 -0.1188 -0.0513
31484OCT     C262968  18.994  18.645  17.616  0.0522  0.3149  0.1543
31485OCT     C162969  20.819   5.607   2.560  0.2275  0.2235 -0.4122
31485OCT     C262970  21.128   5.389   2.764  0.0321  0.2533 -0.0839
31486OCT     C162971   5.461  11.725  20.850 -0.1920  0.0110  0.1883
31486OCT     C262972   5.591  11.357  20.680 -0.2659 -0.1383 -0.3048
31487OCT     C162973  12.475  16.573  16.220  0.2703 -0.0901 -0.0816
31487OCT     C262974  12.151  16.621  15.924  0.3000 -0.1093 -0.0530
31488OCT     C162975  20.113  23.234  12.212  0.2836  0.0475  0.1807
31488OCT     C262976  20.305  22.912  11.887 -0.0928 -0.0428 -0.4620
31489OCT     C162977   1.022  15.530  11.550  0.3174 -0.3223 -0.4055
31489OCT     C262978   0.994  15.294  11.987  0.0357 -0.0436 -0.1401
31490OCT     C162979  15.709   0.639   3.044 -0.0872 -0.0972  0.0484
31490OCT     C262980  15.803   0.513   3.527 -0.2714  0.0382 -0.0215
31491OCT     C162981  15.482   6.169   1.184 -0.0712 -0.3183  0.2837
31491OCT     C262982  15.331   5.712   1.337 -0.1123 -0.1829 -0.3067
31492OCT     C162983  11.323  19.204   7.501 -0.2712  0.0124 -0.2056
31492OCT     C262984  10.969  19.039   7.772 -0.2468  0.1299 -0.1125
31493OCT     C162985  12.998  12.146  17.035  0.2409 -0.3316 -0.2852
31493OCT     C262986  12.539  12.170  17.184 -0.2103 -0.0114 -0.1147
31494OCT     C162987  15.547  22.575   8.816  0.0580 -0.3617 -0.0364
31494OCT     C262988  15.821  22.960   9.001 -0.0409  0.2748 -0.0853
31495OCT     C162989  17.107  15.579  16.417  0.0466 -0.4123 -0.0464
31495OCT     C262990  16.676  15.763  16.276 -0.2310  0.1213 -0.0699
31496OCT     C162991  21.092  18.356  18.239 -0.2874 -0.4807 -0.0867
31496OCT     C262992  21.061  17.860  18.224  0.0641  0.5736  0.0350
31497OCT     C162993  20.525   3.255  11.350  0.2641 -0.1822  0.3163
31497OCT     C262994  20.259   3.542  11.472 -0.3498  0.2477  0.3379
31498OCT     C162995  15.892  19.345   3.432 -0.1440 -0.0851 -0.3241
31498OCT     C262996  16.189  19.605   3.159 -0.1344 -0.4265 -0.0488
31499OCT     C162997   6.785  13.650   9.313  0.1848 -0.0790 -0.1538
31499OCT     C262998   6.687  13.697   8.909 -0.2361 -0.2708  0.0326
31500OCT     C162999  22.187  20.354   0.176  0.1123  0.2163 -0.0996
31500OCT     C263000  21.974  19.971   0.428  0.1291  0.2142  0.2263
31501OCT     C163001  20.613  14.668  22.711 -0.4084  0.3856 -0.1577
31501OCT     C263002  20.495  14.286  22.471  0.1674 -0.2656  0.3069
31502OCT     C163003   3.206  11.442  16.477  0.0285  0.1526 -0.0423
31502OCT     C263004   2.736  11.525  16.390  0.0578  0.0899 -0.3407
31503OCT     C163005  11.210   1.866   9.419 -0.0279 -0.1259  0.1756
31503OCT     C263006  11.298   2.226   9.131  0.0119  0.1347  0.3420
31504OCT     C163007  15.652  15.172  18.826 -0.1739 -0.0556 -0.1019
31504OCT     C263008  15.377  14.829  18.882 -0.2215 -0.0168  0.0102
31505OCT     C163009   6.378  14.461   4.203  0.4411 -0.4368 -0.0198
31505OCT     C263010   5.969  14.512   4.284  0.4436 -0.0296  0.0746
31506OCT     C163011  10.894   2.355   3.149 -0.4186  0.2474  0.1302
31506OCT     C263012  11.240   2.592   2.918 -0.2846 -0.5453  0.0630
31507OCT     C163013  19.806  22.246  20.711 -0.0086  0.0558 -0.3532
31507OCT     C263014  19.916  22.600  20.349  0.0192 -0.0482  0.2867
31508OCT     C163015  17.010   9.217   7.174 -0.2563  0.0348 -0.2457
31508OCT     C263016  16.560   9.261   6.962  0.0171  0.2312 -0.0620
31509OCT     C163017  11.869   1.772  13.723  0.1916 -0.1493  0.2745
31509OCT     C263018  11.703   1.857  13.252  0.0826  0.0365  0.4258
31510OCT     C163019  15.305   5.113  11.011 -0.4375  0.0055 -0.3274
31510OCT     C263020  15.659   5.224  10.748 -0.0218  0.0848  0.1353
31511OCT     C163021  11.653  13.469   3.504 -0.0125  0.3838 -0.0015
31511OCT     C263022  11.974  13.426   3.856 -0.1181  0.1784  0.3248
31512OCT     C163023   8.067  10.668   6.122  0.1088 -0.0394 -0.1852
31512OCT     C263024   8.235  10.357   6.420 -0.1634  0.2127  0.0631
31513OCT     C163025   6.588  18.144  18.250 -0.1535 -0.0551 -0.1309
31513OCT     C263026   6.621  18.584  18.145 -0.0138 -0.1888 -0.4078
31514OCT     C163027   0.789  13.326   8.566 -0.2270  0.1925  0.1643
31514OCT     C263028   0.388  13.431   8.344  0.2203  0.3178  0.0910
31515OCT     C163029  19.976  12.594   5.280 -0.0894 -0.2275  0.3294
31515OCT     C263030  19.666  12.269   5.176  0.1134 -0.1574  0.0384
31516OCT     C163031  12.237   0.457  16.904 -0.0403  0.0514  0.0563
31516OCT     C263032  12.286  23.708  16.954 -0.0555  0.0557  0.0985
31517OCT     C163033   9.485   2.683  15.865  0.1259  0.2121 -0.3217
31517OCT     C263034   9.138   2.646  15.593 -0.0983  0.0799  0.1238
31518OCT     C163035  12.929   9.350   5.330 -0.2012  0.2514 -0.1436
31518OCT     C263036  12.515   9.222   5.568  0.4430  0.0513 -0.0826
31519OCT     C163037   7.030  20.269  12.592  0.1929 -0.2615  0.4300
31519OCT     C263038   6.895  20.134  12.133 -0.2043  0.1062  0.0510
31520OCT     C163039   2.287  23.622   2.303 -0.0797 -0.3210 -0.0511
31520OCT     C263040   2.146  23.213   2.065  0.1235 -0.3450 -0.2024
31521OCT     C163041  18.661  16.342  22.017 -0.1830  0.0836  0.0258
31521OCT     C263042  18.334  16.636  22.224  0.3073 -0.1197 -0.0251
31522OCT     C163043  14.953  11.462  21.956 -0.0552 -0.3260  0.0294
31522OCT     C263044  15.398  11.340  21.985  0.3550 -0.1324  0.0610
31523OCT     C163045   6.323   4.080  22.140 -0.0774  0.2064  0.4903
31523OCT     C263046   6.366   4.569  22.162  0.0711 -0.1112  0.1453
31524OCT     C163047  15.562  17.321   1.939  0.2244 -0.0819  0.0809
31524OCT     C263048  15.609  17.772   1.763  0.0565 -0.0656 -0.2715
31525OCT     C163049  15.668   0.118   0.446  0.2130  0.0967  0.2210
31525OCT     C263050  15.808  23.403   0.442 -0.1794 -0.0911  0.0999
31526OCT     C163051  21.733  11.495   5.424  0.1815  0.3375  0.1966
31526OCT     C263052  21.786  11.748   5.795 -0.1699 -0.2977 -0.1388
31527OCT     C163053   5.307   7.568   4.347  0.0095  0.0725 -0.0212
31527OCT     C263054   4.899   7.293   4.396  0.0664  0.0687  0.0874
31528OCT     C163055  13.886   7.836  17.564 -0.0129  0.0014 -0.4192
31528OCT     C263056  13.692   7.431  17.591  0.0759  0.0709 -0.0925
31529OCT     C163057   8.974  18.477   0.945  0.0017 -0.2557 -0.3344
31529OCT     C263058   8.641  18.691   0.669 -0.0790 -0.1140 -0.0740
31530OCT     C163059  17.565  18.686  10.845 -0.5542 -0.0426 -0.0054
31530OCT     C263060  17.629  18.730  10.367  0.0348 -0.0631 -0.2423
31531OCT     C163061   8.758  14.809  22.924 -0.2220 -0.0361 -0.4393
31531OCT     C263062   8.325  14.803  22.920  0.0439 -0.3304 -0.0857
31532OCT     C163063   5.011   8.343  22.237  0.0108 -0.0646  0.4957
31532OCT     C263064   5.195   8.680  22.464  0.0432  0.1314 -0.0398
31533OCT     C163065  13.728  15.121   0.218  0.4045 -0.2031  0.1768
31533OCT     C263066  13.364  14.984   0.442  0.1068 -0.1719 -0.0358
31534OCT     C163067  17.929   7.174   4.554 -0.0944  0.0525 -0.3062
31534OCT     C263068  17.645   7.481   4.315 -0.0643 -0.1001 -0.4626
31535OCT     C163069   9.668   2.137  10.923  0.2731 -0.0040 -0.2707
31535OCT     C263070   9.583   2.045  10.462 -0.1067 -0.2985 -0.1757
31536OCT     C163071  18.864  10.323  10.278 -0.0440 -0.1683  0.1532
31536OCT     C263072  19.128  10.596  10.533 -0.3300 -0.1143  0.0651
31537OCT     C163073  18.150  12.598  11.692  0.1313 -0.0938  0.1816
31537OCT     C263074  18.247  12.192  11.551 -0.4027  0.1476  0.0919
31538OCT     C163075   9.881  15.034   7.294  0.6245 -0.0621  0.0447
31538OCT     C263076   9.623  15.115   7.659  0.3030  0.1516  0.0435
31539OCT     C163077  10.226   2.551  22.729 -0.0318  0.3656 -0.1932
31539OCT     C263078  10.623   2.803  22.760  0.2136  0.0389 -0.0168
31540OCT     C163079  10.932  14.312   8.490  0.1679  0.0480 -0.2161
31540OCT     C263080  11.223  13.986   8.640  0.0188 -0.2353  0.2611
31541OCT     C163081  19.384  12.562   4.675 -0.1808 -0.0499 -0.2490
31541OCT     C263082  19.835  12.601   4.810  0.1010 -0.0934  0.5671
31542OCT     C163083   2.062  10.697  20.795  0.0550 -0.1157 -0.0393
31542OCT     C263084   2.060  10.432  20.442  0.0067  0.1190  0.1228
31543OCT     C163085   6.790  10.794   9.909 -0.2092 -0.3408  0.2910
31543OCT     C263086   6.652  10.366  10.044 -0.0292 -0.0218 -0.1216
31544OCT     C163087   4.277   8.829   1.334 -0.0235 -0.1008 -0.0339
31544OCT     C263088   3.892   8.584   1.424  0.0794  0.3068  0.4789
31545OCT     C163089   1.261  22.077  16.101 -0.1919 -0.1557 -0.3207
31545OCT     C263090   0.989  22.238  16.438 -0.0533 -0.0626  0.1616
31546OCT     C163091  17.964  16.406  14.034 -0.1264 -0.0485 -0.0809
31546OCT     C263092  17.813  16.710  13.751  0.0418 -0.1989 -0.2503
31547OCT     C163093   9.040   6.410  16.283  0.0884 -0.0630  0.3532
31547OCT     C263094   9.275   6.574  16.687 -0.2926 -0.1121 -0.1248
31548OCT     C163095   4.505   8.672  11.011 -0.2883  0.0700 -0.3323
31548OCT     C263096   4.229   8.475  11.310  0.4285 -0.1155 -0.2150
31549OCT     C163097  17.990  11.960   6.054 -0.1860  0.1603  0.0884
31549OCT     C263098  17.998  11.868   5.603  0.2510 -0.1432 -0.3831
31550OCT     C163099  23.180  21.275   8.755 -0.1117  0.3054 -0.0076
31550OCT     C263100  23.377  21.284   9.155  0.0082 -0.4242 -0.1762
31551OCT     C163101   4.200  16.298   3.784 -0.4668  0.2226  0.4969
31551OCT     C263102   4.203  15.874   3.976  0.2605  0.0932 -0.1391
31552OCT     C163103   2.890  14.052   7.018 -0.1965  0.0376 -0.0415
31552OCT     C263104   3.013  13.640   6.785 -0.0445 -0.4498 -0.3420
31553OCT     C163105   4.265  10.254   6.337  0.1146 -0.4812  0.0116
31553OCT     C263106   4.035   9.941   6.073 -0.3972  0.2163  0.0344
31554OCT     C163107   3.990  22.673   9.878 -0.0916  0.2435 -0.1795
31554OCT     C263108   3.681  22.475   9.535  0.1411 -0.2962 -0.2631
31555OCT     C163109   6.039  13.972  20.901  0.1732  0.1430 -0.3270
31555OCT     C263110   6.068  14.082  21.326 -0.1838  0.0673 -0.1754
31556OCT     C163111  16.037  14.876   6.756 -0.0350 -0.3754  0.1879
31556OCT     C263112  16.059  15.273   6.466 -0.0558 -0.5126  0.0743
31557OCT     C163113  11.224  16.585   2.577  0.3617  0.3652  0.1502
31557OCT     C263114  11.368  16.154   2.699 -0.1510 -0.2656  0.2490
31558OCT     C163115  10.465  11.181   1.310  0.2135 -0.0394 -0.4955
31558OCT     C263116  10.458  11.636   1.300 -0.1759  0.0916 -0.5199
31559OCT     C163117   1.295  10.507  16.082 -0.0684  0.0300 -0.1824
31559OCT     C263118   0.826  10.538  15.971 -0.0886 -0.0135 -0.3343
31560OCT     C163119  12.086   1.395   4.529  0.3229 -0.2945  0.2678
31560OCT     C263120  12.145   1.230   4.063  0.2062 -0.2457  0.2388
31561OCT     C163121   8.560  13.076   2.173  0.1110 -0.2497  0.2014
31561OCT     C263122   8.341  13.387   2.361  0.2539  0.1447  0.0002
31562OCT     C163123  10.322  16.626   9.548  0.3510  0.0597  0.2068
31562OCT     C263124  10.634  16.304   9.766  0.0320  0.2689 -0.1456
31563OCT     C163125   3.126   0.376   9.237 -0.0842 -0.2192  0.2315
31563OCT     C263126   2.795   0.113   9.149 -0.2209  0.1861 -0.2821
31564OCT     C163127  17.040  12.910  10.146 -0.0757  0.4500 -0.3375
31564OCT     C263128  16.739  12.680   9.879  0.1231  0.0890  0.1020
31565OCT     C163129  17.606  20.915   5.806 -0.0894 -0.2464 -0.1462
31565OCT     C263130  17.239  20.803   6.061  0.2417  0.1943  0.0799
31566OCT     C163131  11.843  12.309  10.615  0.0897 -0.3292  0.1022
31566OCT     C263132  11.786  12.715  10.348  0.1298  0.1152  0.0900
31567OCT     C163133   8.103   8.029  17.695 -0.2078  0.0061  0.2989
31567OCT     C263134   7.780   8.151  17.979 -0.1974  0.1599  0.1806
31568OCT     C163135  21.197  12.399  12.035  0.2312  0.0376  0.2047
31568OCT     C263136  20.832  12.293  12.298  0.4464 -0.1416  0.0314
31569OCT     C163137  15.286   0.764   2.105  0.1982 -0.4560 -0.0350
31569OCT     C263138  15.127   0.338   2.088  0.0311  0.1631  0.0677
31570OCT     C163139  17.492   1.461   6.719 -0.0461 -0.1305 -0.3259
31570OCT     C263140  17.179   1.783   6.834  0.0972  0.4859  0.2369
31571OCT     C163141   5.789   4.580   5.639 -0.1155 -0.0583 -0.0858
31571OCT     C263142   5.634   4.782   5.983 -0.3204  0.3725 -0.1048
31572OCT     C163143  13.238  19.991   9.536 -0.1795 -0.2095 -0.2958
31572OCT     C263144  13.237  20.385   9.223  0.3122  0.3150  0.0153
31573OCT     C163145  21.495   9.944  15.162  0.0105 -0.1412  0.0821
31573OCT     C263146  21.791   9.614  14.954  0.2530 -0.0936 -0.1141
31574OCT     C163147  11.107  14.988   0.813  0.1034  0.0566 -0.2759
31574OCT     C263148  11.425  14.641   0.908 -0.2036 -0.0073  0.2251
31575OCT     C163149  13.361   2.769   1.806 -0.1733 -0.0700  0.2625
31575OCT     C263150  12.978   2.731   1.537 -0.0545  0.2149 -0.0312
31576OCT     C163151   1.564  10.358   8.170 -0.2211 -0.1780 -0.1608
31576OCT     C263152   1.590   9.907   8.192  0.0290 -0.0167 -0.4592
31577OCT     C163153  12.677   4.353   2.172  0.1137  0.0304  0.1170
31577OCT     C263154  12.415   4.623   2.465  0.1082  0.2996 -0.0953
31578OCT     C163155   8.048  23.020   8.325 -0.5137 -0.2871  0.1932
31578OCT     C263156   8.015  23.102   7.807 -0.0203 -0.1043  0.5318
31579OCT     C163157   3.268   4.148  10.734  0.1014 -0.2018  0.0854
31579OCT     C263158   3.523   3.758  10.784 -0.2247  0.1865  0.1625
31580OCT     C163159   4.909  13.342   5.033  0.1613 -0.0751 -0.1879
31580OCT     C263160   4.919  12.887   4.917  0.1400 -0.0728 -0.3659
31581OCT     C163161   9.191  14.116   5.071 -0.0348  0.0592  0.0074
31581OCT     C263162   8.969  13.755   5.348 -0.0286  0.0369 -0.2447
31582OCT     C163163  22.458  16.802   0.688  0.2667  0.2778  0.1371
31582OCT     C263164  22.625  16.311   0.606 -0.1374  0.2398 -0.0544
31583OCT     C163165  11.583  22.904  18.555 -0.1915  0.0859  0.0496
31583OCT     C263166  11.797  23.261  18.421  0.0720 -0.0260 -0.0249
31584OCT     C163167   0.932   5.503   4.360 -0.2013  0.0967 -0.2137
31584OCT     C263168   1.159   5.115   4.300  0.4028 -0.4086  0.2233
31585OCT     C163169   7.846   5.995   6.674 -0.2292 -0.1236  0.2338
31585OCT     C263170   8.242   5.991   6.924  0.1580  0.2252  0.1784
31586OCT     C163171  17.254   4.870  12.771 -0.5044  0.3983 -0.1136
31586OCT     C263172  17.208   5.130  12.410  0.2386  0.0487 -0.0178
31587OCT     C163173   8.890   2.125  14.290  0.4163  0.2410  0.0464
31587OCT     C263174   8.375   2.041  14.339  0.0501 -0.2530  0.1792
31588OCT     C163175  15.748  22.523   3.512  0.2856  0.1880  0.0683
31588OCT     C263176  15.991  22.601   3.152 -0.0607 -0.1479 -0.0164
31589OCT     C163177   4.622   9.480   0.152  0.2665 -0.1687 -0.4249
31589OCT     C263178   4.699   9.854  23.665 -0.1101  0.0258  0.1562
31590OCT     C163179   4.086  21.242  11.121 -0.1466  0.1381  0.0572
31590OCT     C263180   4.362  20.935  10.966  0.6269 -0.0031  0.0550
31591OCT     C163181   5.218   6.016  14.998 -0.3211 -0.1590 -0.0383
31591OCT     C263182   5.152   6.158  15.421 -0.0937  0.7235  0.3271
31592OCT     C163183   4.917  15.657   5.008 -0.0103  0.2629  0.2511
31592OCT     C263184   4.515  15.904   4.826 -0.0999  0.0561  0.0539
31593OCT     C163185   7.942   0.083   6.952 -0.2737  0.1254 -0.0584
31593OCT     C263186   8.223  23.468   6.795  0.2740 -0.1716  0.5161
31594OCT     C163187  15.981  21.303  14.215 -0.1104  0.0636  0.0632
31594OCT     C263188  15.919  21.325  14.690  0.0256 -0.2620  0.3070
31595OCT     C163189  15.308   0.187  15.992  0.5758 -0.0152 -0.1780
31595OCT     C263190  15.687   0.326  16.207 -0.2221 -0.0328  0.2057
31596OCT     C163191  11.454   6.444  12.841  0.1125  0.4039  0.3724
31596OCT     C263192  11.132   6.115  12.591 -0.3875 -0.0076 -0.1114
31597OCT     C163193   2.673   7.337  12.108 -0.0270  0.1032  0.0636
31597OCT     C263194   2.397   7.335  11.716 -0.0803 -0.2618 -0.0571
31598OCT     C163195  15.488  12.210   0.297  0.3597  0.1675 -0.0299
31598OCT     C263196  15.485  11.775   0.480  0.3417 -0.1001  0.0287
31599OCT     C163197  16.595   6.850   4.346 -0.0784 -0.0550  0.0598
31599OCT     C263198  16.924   6.534   4.510 -0.1689  0.0875 -0.0873
31600OCT     C163199  10.541   2.333  16.757  0.0050 -0.1319 -0.0097
31600OCT     C263200  11.029   2.348  16.914  0.0699  0.0753 -0.0044
31601OCT     C163201  22.542  13.621  10.572  0.0324 -0.1517 -0.1207
31601OCT     C263202  22.463  13.202  10.833  0.3108 -0.0528  0.0743
31602OCT     C163203   5.982   8.886  23.420 -0.5460 -0.2959 -0.0558
31602OCT     C263204   6.190   9.304  23.368  0.0464  0.0750 -0.0144
31603OCT     C163205  12.512  13.657  13.409 -0.0623  0.1893 -0.0949
31603OCT     C263206  12.904  13.657  13.681  0.0857  0.1853 -0.0031
31604OCT     C163207  18.413  23.274   4.292 -0.1576  0.3231  0.3189
31604OCT     C263208  17.992  23.327   4.477 -0.4484  0.1739  0.0690
31605OCT     C163209   0.539   1.669  17.766 -0.3525  0.0953 -0.1830
31605OCT     C263210   0.959   1.896  17.720  0.1123  0.3943  0.0493
31606OCT     C163211  11.136  15.563   5.395  0.2225 -0.0759 -0.2353
31606OCT     C263212  11.057  15.777   5.032 -0.2116 -0.2853 -0.1480
31607OCT     C163213  12.040  11.390  23.696 -0.1894  0.0439 -0.1060
31607OCT     C263214  11.611  11.666  23.629 -0.1139 -0.0311 -0.2902
31608OCT     C163215  13.976  21.425   0.006  0.1226 -0.0511 -0.1389
31608OCT     C263216  14.061  21.762   0.252 -0.1044  0.4500 -0.2220
31609OCT     C163217  15.211   5.095  16.260 -0.1439 -0.2906  0.1686
31609OCT     C263218  15.066   5.524  16.353 -0.0880 -0.1749  0.0681
31610OCT     C163219  10.377   0.208  10.800 -0.1960  0.0778 -0.0195
31610OCT     C263220  10.155   0.365  10.458 -0.1847  0.1158  0.3350
31611OCT     C163221   8.129   7.605   8.455  0.3031 -0.2694 -0.2472
31611OCT     C263222   8.323   7.631   8.876  0.1212 -0.1008 -0.0885
31612OCT     C163223  18.461  13.403   2.869 -0.0951 -0.0557 -0.3190
31612OCT     C263224  18.026  13.590   2.668 -0.6744 -0.1359  0.1849
31613OCT     C163225  17.810  13.391  16.181  0.2187  0.1219 -0.0471
31613OCT     C263226  17.947  13.757  15.887  0.1241 -0.0164 -0.2208
31614OCT     C163227  10.534  11.297  12.246 -0.2600  0.2128  0.1857
31614OCT     C263228  10.068  11.403  12.253  0.0046 -0.0014 -0.1605
31615OCT     C163229   5.770  18.346  12.931 -0.1026  0.0071 -0.0023
31615OCT     C263230   5.735  18.272  13.375 -0.0638  0.4381  0.5219
31616OCT     C163231   4.763  15.261  11.161  0.2189 -0.0553 -0.2788
31616OCT     C263232   5.043  15.545  11.361  0.1664 -0.2317  0.0943
31617OCT     C163233  12.281  21.183   2.230  0.0423 -0.2208 -0.0050
31617OCT     C263234  12.713  21.049   2.366  0.1460  0.1654 -0.3603
31618OCT     C163235   7.410   0.625   2.350 -0.4108 -0.1687  0.1275
31618OCT     C263236   7.367   0.542   1.868 -0.1535 -0.0706 -0.2216
31619OCT     C163237  20.092   3.447  14.161 -0.2167  0.0139  0.2269
31619OCT     C263238  20.445   3.296  13.883 -0.0600 -0.0370 -0.4525
31620OCT     C163239  11.445  11.062  12.143 -0.0257 -0.0747 -0.2661
31620OCT     C263240  11.369  11.425  11.850  0.0867  0.0098 -0.0655
31621OCT     C163241  22.482   6.056  13.317  0.1136 -0.0852 -0.0924
31621OCT     C263242  22.739   6.297  13.637  0.1608 -0.0378  0.1728
31622OCT     C163243  12.609  13.535   2.997  0.0636 -0.2973 -0.6820
31622OCT     C263244  12.402  13.951   2.925 -0.1071 -0.1429  0.0688
31623OCT     C163245  21.899   8.851   1.133 -0.3518 -0.2156 -0.1450
31623OCT     C263246  22.344   8.823   1.328 -0.0174  0.4369  0.0807
31624OCT     C163247   9.102  23.326  18.264 -0.1274 -0.0373  0.3373
31624OCT     C263248   9.018  23.711  18.073  0.1147 -0.4035 -0.0423
31625OCT     C163249   6.989   3.375   6.698  0.1624 -0.0353  0.0956
31625OCT     C263250   7.317   3.682   6.501  0.0048 -0.0688  0.3644
31626OCT     C163251  16.514  13.019   8.519 -0.0030  0.0023  0.4772
31626OCT     C263252  16.019  12.989   8.645 -0.2047 -0.0687  0.1134
31627OCT     C163253   0.028  17.594  12.653 -0.3731  0.2883 -0.0335
31627OCT     C263254  23.723  17.160  12.691  0.0601 -0.0023  0.1194
31628OCT     C163255  23.048  12.850  14.753  0.1263 -0.0631  0.0434
31628OCT     C263256  23.476  12.710  14.676  0.1080  0.2076  0.2636
31629OCT     C163257  19.769  23.575  13.486  0.2159  0.0938  0.1855
31629OCT     C263258  19.369  23.737  13.601  0.3760  0.2239 -0.0823
31630OCT     C163259   2.146   6.254   5.431  0.3143 -0.1022 -0.0290
31630OCT     C263260   1.944   5.949   5.075  0.1647  0.0713 -0.3244
31631OCT     C163261  17.632   3.136   0.314 -0.0233  0.3364 -0.2793
31631OCT     C263262  17.714   3.344   0.725 -0.1048  0.3593  0.1135
31632OCT     C163263  22.640   0.025   5.813  0.2050  0.0180  0.0453
31632OCT     C263264  22.658  23.451   6.225  0.0302  0.0235 -0.1960
31633OCT     C163265   1.474  14.042   7.437 -0.1718 -0.1443 -0.2831
31633OCT     C263266   1.921  14.201   7.428  0.5357  0.2306  0.1340
31634OCT     C163267   4.645   8.860  10.337 -0.0949 -0.2279 -0.0362
31634OCT     C263268   4.531   8.497  10.521  0.0627 -0.0440 -0.1463
31635OCT     C163269  17.696  17.168   7.318 -0.2711  0.1513 -0.2281
31635OCT     C263270  17.997  16.761   7.381  0.1556 -0.0664 -0.0803
31636OCT     C163271  22.305   0.074   2.151 -0.1035 -0.3025  0.1055
31636OCT     C263272  22.333   0.511   1.905 -0.1184  0.0249 -0.0600
31637OCT     C163273   3.763  12.927   9.531  0.1515  0.1190  0.5345
31637OCT     C263274   4.247  12.909   9.652  0.1661  0.1463 -0.3537
31638OCT     C163275   0.786  19.569  13.143  0.1657  0.2874 -0.0660
31638OCT     C263276   0.635  19.154  13.364 -0.1958  0.0539  0.0827
31639OCT     C163277  14.166   3.488  12.930 -0.0158 -0.0938 -0.3161
31639OCT     C263278  13.856   3.157  12.686 -0.1486  0.1103  0.0920
31640OCT     C163279   7.719   0.032   3.256 -0.0040 -0.1365 -0.2969
31640OCT     C263280   7.368   0.112   3.639  0.0347  0.0086  0.1789
31641OCT     C163281  20.819   3.461   1.102  0.1705 -0.2946 -0.0942
31641OCT     C263282  20.465   3.311   0.819  0.0079 -0.0315 -0.0187
31642OCT     C163283   3.845  17.376   8.311  0.1432  0.1704 -0.0160
31642OCT     C263284   3.420  17.337   8.609 -0.0511  0.2598 -0.4828
31643OCT     C163285  17.998  19.248   8.002  0.1022 -0.3749 -0.1798
31643OCT     C263286  17.628  19.022   8.176  0.0127 -0.1292 -0.0394
31644OCT     C163287  11.957  14.377  15.020 -0.3124  0.1894  0.1666
31644OCT     C263288  12.241  13.978  14.877 -0.1532 -0.0678  0.4120
31645OCT     C163289  20.165   2.272  23.638  0.2455 -0.1765  0.3353
31645OCT     C263290  20.078   1.830  23.499 -0.2740 -0.0900 -0.2566
31646OCT     C163291  13.598   7.094  17.232 -0.2388 -0.2320  0.1344
31646OCT     C263292  13.346   7.007  17.650 -0.2242  0.2098  0.2310
31647OCT     C163293  20.490  19.252   6.861 -0.3114  0.2500  0.0829
31647OCT     C263294  20.300  19.659   7.008  0.0856 -0.4611  0.2030
31648OCT     C163295  13.305  17.883  19.912  0.2166 -0.2074 -0.1615
31648OCT     C263296  13.456  18.323  19.864 -0.3254 -0.1370  0.1837
31649OCT     C163297  12.910   1.669  10.101 -0.1388 -0.0483 -0.1432
31649OCT     C263298  12.772   1.238  10.210 -0.2512  0.0116  0.1083
31650OCT     C163299  15.593  19.807  15.490  0.1364  0.3167  0.0511
31650OCT     C263300  15.624  19.461  15.740 -0.0830  0.1052 -0.2337
31651OCT     C163301   4.444  19.880   6.076  0.3899 -0.1035  0.4181
31651OCT     C263302   4.129  19.975   5.714 -0.0257  0.1842  0.0046
31652OCT     C163303  19.771  19.924   2.947  0.0656 -0.1113  0.3967
31652OCT     C263304  19.663  19.487   2.856  0.2746  0.1342 -0.1594
31653OCT     C163305   6.955   8.393  12.501 -0.1071  0.0383 -0.3848
31653OCT     C263306   7.217   8.804  12.622 -0.1605  0.1595 -0.1195
31654OCT     C163307  18.688  18.479  22.850  0.1303 -0.1465 -0.4129
31654OCT     C263308  18.343  18.425  23.169 -0.1063 -0.0041  0.1078
31655OCT     C163309  17.587   1.331   8.804  0.0575  0.0086  0.0784
31655OCT     C263310  17.718   0.972   8.516 -0.2038  0.3748 -0.0790
31656OCT     C163311  10.825  16.836  14.023 -0.4247 -0.1593  0.0507
31656OCT     C263312  10.510  17.101  13.814 -0.0979  0.2030 -0.0152
31657OCT     C163313  21.775  22.008  22.143  0.2655 -0.1849 -0.0458
31657OCT     C263314  21.650  21.770  22.465  0.2435 -0.3483 -0.0137
31658OCT     C163315   7.327  22.135  20.369  0.2394  0.2795  0.0854
31658OCT     C263316   7.719  22.102  20.180 -0.0826 -0.0729  0.0614
31659OCT     C163317  22.596   9.294   2.993  0.1516 -0.0418 -0.0739
31659OCT     C263318  23.035   9.083   3.098 -0.2766 -0.1667  0.0748
31660OCT     C163319   1.637   2.070  21.457  0.0499 -0.1393  0.1557
31660OCT     C263320   1.347   2.239  21.802  0.0220 -0.0929  0.1044
31661OCT     C163321  11.876   7.184  16.738 -0.0088 -0.1202  0.0713
31661OCT     C263322  12.097   6.870  16.989  0.0566 -0.2073  0.1952
31662OCT     C163323  23.360  19.222   1.324  0.0129  0.1934 -0.0214
31662OCT     C263324  23.372  18.723   1.308 -0.1089  0.2499  0.4319
31663OCT     C163325   4.949  16.124  10.335 -0.1659  0.2823 -0.0552
31663OCT     C263326   4.539  16.102  10.349 -0.0718  0.2797 -0.2991
31664OCT     C163327  21.507   0.317   8.283 -0.3308  0.0477  0.1427
31664OCT     C263328  21.905   0.088   8.303  0.1960  0.3475  0.1519
31665OCT     C163329  17.049  14.168  11.454  0.1253 -0.3938  0.0638
31665OCT     C263330  17.099  13.822  11.744  0.5877 -0.4652 -0.0170
31666OCT     C163331   0.493  15.407   7.242  0.0615  0.2961  0.1713
31666OCT     C263332   0.158  15.281   6.926 -0.0605 -0.3395 -0.2077
31667OCT     C163333   5.220  15.731   6.022 -0.0417 -0.0573 -0.1840
31667OCT     C263334   5.006  15.330   5.858 -0.2764  0.0043 -0.2314
31668OCT     C163335  10.485  17.275   2.769 -0.3503  0.4946  0.0457
31668OCT     C263336  10.852  16.959   2.752  0.1491  0.4666 -0.1686
31669OCT     C163337  14.592   5.875   9.975  0.0784 -0.2847  0.2514
31669OCT     C263338  14.327   6.228  10.178 -0.1486 -0.1217 -0.1993
31670OCT     C163339  21.686  23.575   4.277  0.2690  0.2376  0.4987
31670OCT     C263340  22.057   0.016   4.148 -0.0988  0.2018  0.0903
31671OCT     C163341  11.214  13.668  20.329 -0.0757  0.1905  0.0686
31671OCT     C263342  11.289  13.293  20.034 -0.2408 -0.3168 -0.1202
31672OCT     C163343  23.680   6.997  16.717 -0.6221 -0.2808 -0.0256
31672OCT     C263344  23.314   7.104  16.933  0.1270 -0.1375 -0.1530
31673OCT     C163345  13.799   0.403  11.439  0.0743  0.1569 -0.2159
31673OCT     C263346  13.474   0.714  11.568  0.0533  0.0007  0.0702
31674OCT     C163347   0.905  15.757  19.329  0.1451  0.1700 -0.0008
31674OCT     C263348   1.026  15.349  19.120  0.0052  0.2436  0.1268
31675OCT     C163349   3.296  18.601  11.396 -0.0187 -0.0303  0.0384
31675OCT     C263350   3.345  18.914  11.703  0.1035 -0.0605 -0.2699
31676OCT     C163351   5.937  17.307   4.711  0.0134  0.1031 -0.0918
31676OCT     C263352   5.624  17.333   5.051  0.2693  0.0084 -0.0792
31677OCT     C163353   4.112  21.466  13.697  0.2503  0.0930  0.0143
31677OCT     C263354   4.361  21.745  13.408 -0.3349  0.0744  0.1570
31678OCT     C163355   0.039   6.987  23.012 -0.0663 -0.1478  0.0107
31678OCT     C263356  23.380   7.222  22.925  0.0388  0.0067  0.1933
31679OCT     C163357  15.620  14.375  17.153 -0.0956 -0.3712 -0.1946
31679OCT     C263358  15.915  14.784  17.165 -0.0905 -0.0829  0.0590
31680OCT     C163359  18.543  10.060  14.183  0.0722  0.1901 -0.0867
31680OCT     C263360  18.909  10.177  14.426 -0.1223  0.0805  0.0289
31681OCT     C163361  10.556  10.829  19.460 -0.0231  0.0262  0.2357
31681OCT     C263362  10.727  10.538  19.820  0.4042 -0.1390 -0.1295
31682OCT     C163363   2.301   9.032  20.298 -0.0689 -0.1380 -0.0535
31682OCT     C263364   2.275   9.484  20.358 -0.1319 -0.2290 -0.1579
31683OCT     C163365  11.718  22.403   7.295 -0.0945  0.0511  0.2674
31683OCT     C263366  11.788  22.712   7.621  0.0689 -0.3740 -0.0426
31684OCT     C163367  15.777  21.018   4.290  0.0857  0.2192  0.0053
31684OCT     C263368  15.603  21.044   4.733  0.2686 -0.0028 -0.0446
31685OCT     C163369  12.633   1.019  15.287  0.0119  0.0165 -0.6184
31685OCT     C263370  12.618   1.499  15.248 -0.4298 -0.1428  0.1648
31686OCT     C163371  14.062  18.822  12.650 -0.2532 -0.1588 -0.0179
31686OCT     C263372  14.210  18.385  12.778 -0.2378  0.1018 -0.0762
31687OCT     C163373   2.249  11.705  20.567  0.1424  0.0342 -0.1662
31687OCT     C263374   2.175  11.935  20.166  0.2471  0.2119 -0.3263
31688OCT     C163375   3.329  21.153  13.116  0.2224 -0.2362 -0.3957
31688OCT     C263376   3.087  20.918  13.503  0.0527  0.1183 -0.0270
31689OCT     C163377   4.574  20.780  23.586 -0.3109  0.0717  0.5491
31689OCT     C263378   4.362  21.015  23.229  0.0473 -0.0180 -0.1807
31690OCT     C163379  14.553   6.423  12.716  0.1457 -0.0213 -0.1394
31690OCT     C263380  14.875   6.286  12.427 -0.3479  0.0941 -0.1694
31691OCT     C163381  23.708   7.012  20.725  0.1609  0.0255  0.4507
31691OCT     C263382   0.330   7.268  20.989 -0.3079  0.1281  0.0739
31692OCT     C163383  18.046   0.354   6.434  0.1645  0.1292  0.2533
31692OCT     C263384  18.205   0.705   6.695 -0.0402 -0.1140 -0.1015
31693OCT     C163385   5.589  18.317   2.962  0.0816 -0.0744  0.0587
31693OCT     C263386   6.040  18.219   2.994 -0.2185 -0.1549 -0.1297
31694OCT     C163387  10.816  18.073   8.353  0.0119 -0.0177  0.0796
31694OCT     C263388  10.865  17.824   8.750  0.1086  0.1323  0.3749
31695OCT     C163389   9.268  19.495  14.093 -0.0709  0.1159 -0.0137
31695OCT     C263390   8.958  19.551  14.468  0.3240  0.0550  0.1208
31696OCT     C163391   3.903  18.455   3.606 -0.0620 -0.0804  0.0011
31696OCT     C263392   3.726  18.599   4.016 -0.0027  0.5381 -0.2083
31697OCT     C163393   2.458   9.989   5.757  0.5469 -0.0829  0.1395
31697OCT     C263394   2.187  10.329   5.948 -0.0204 -0.1457  0.1172
31698OCT     C163395   6.038   4.359  23.534  0.0145 -0.1183  0.2431
31698OCT     C263396   5.616   4.297  23.278  0.0120  0.1519 -0.2963
31699OCT     C163397   4.322   1.004  10.551  0.1742 -0.2216  0.6616
31699OCT     C263398   4.599   0.698  10.462 -0.1331  0.2929  0.1517
31700OCT     C163399  15.216   6.892  13.155 -0.0506 -0.2228  0.2000
31700OCT     C263400  15.171   7.271  13.381 -0.1790 -0.5256  0.0753
31701OCT     C163401  20.809  22.200   5.865  0.0127  0.2032  0.0926
31701OCT     C263402  20.693  21.717   5.902 -0.0624 -0.8533  0.4784
31702OCT     C163403   1.825   5.713  22.662  0.2298  0.2027  0.0620
31702OCT     C263404   1.835   5.498  23.110 -0.4054 -0.1959 -0.4446
31703OCT     C163405  16.345  16.913  15.560  0.4638 -0.1489  0.1262
31703OCT     C263406  16.535  16.773  15.211  0.1850  0.1713 -0.2152
31704OCT     C163407  17.446  11.013   0.542  0.3154 -0.1364  0.2960
31704OCT     C263408  17.479  11.196   0.964  0.0390  0.0410  0.1510
31705OCT     C163409  19.954   5.297   7.580  0.0417 -0.0079 -0.0315
31705OCT     C263410  19.953   4.929   7.336 -0.1011  0.2434  0.2374
31706OCT     C163411  22.312   0.927  15.051  0.1936 -0.0005  0.1220
31706OCT     C263412  22.071   0.659  15.393  0.0714 -0.3472  0.2227
31707OCT     C163413  20.355  15.277  21.191  0.3807  0.2695  0.2813
31707OCT     C263414  19.971  15.371  21.460 -0.0433  0.2611  0.2234
31708OCT     C163415  20.864   2.920   0.861 -0.3471  0.2950  0.1456
31708OCT     C263416  21.236   3.220   1.009 -0.3274  0.1751  0.0758
31709OCT     C163417  11.464   7.990   5.057 -0.6341  0.3792 -0.2324
31709OCT     C263418  11.616   7.881   5.462  0.0103 -0.1808 -0.2193
31710OCT     C163419   1.036  11.882   1.066 -0.1421 -0.3088  0.0189
31710OCT     C263420   0.720  12.051   1.364  0.0717  0.0138 -0.0890
31711OCT     C163421  16.891  19.303  12.978  0.2735 -0.2440  0.1810
31711OCT     C263422  16.586  19.584  12.786 -0.0133  0.0524  0.0065
31712OCT     C163423   1.251  18.317  16.814 -0.0899 -0.1136  0.0882
31712OCT     C263424   1.617  18.546  16.564  0.2473  0.1073 -0.1633
31713OCT     C163425   9.892  16.250  19.416  0.2179  0.2050  0.1411
31713OCT     C263426   9.461  16.433  19.351 -0.0761 -0.3160  0.0511
31714OCT     C163427  22.814  10.503  15.745  0.5473  0.0771 -0.1315
31714OCT     C263428  22.896  10.718  16.126 -0.1495 -0.0306  0.0619
31715OCT     C163429  15.925  11.970   0.234 -0.2685 -0.2479  0.0415
31715OCT     C263430  16.336  11.942   0.039 -0.2616  0.0498  0.3115
31716OCT     C163431  12.666   1.840   6.822  0.0305  0.0956 -0.2421
31716OCT     C263432  13.125   1.881   6.920 -0.4533 -0.1322 -0.0914
31717OCT     C163433  21.086  22.853  23.354 -0.1333  0.5199 -0.1599
31717OCT     C263434  21.473  22.720  23.577 -0.0134 -0.2749  0.0496
31718OCT     C163435  23.045   3.719   5.952 -0.1286 -0.4409  0.1553
31718OCT     C263436  22.952   4.181   5.883  0.4484  0.0099 -0.0358
31719OCT     C163437   1.145   9.728  22.321  0.1350 -0.0797  0.2738
31719OCT     C263438   1.378  10.131  22.104 -0.0672  0.1363  0.0407
31720OCT     C163439  13.342   3.177   2.130  0.0827  0.1006  0.1199
31720OCT     C263440  13.613   2.757   2.283  0.1148  0.0123 -0.3259
31721OCT     C163441  11.027   2.594  18.733 -0.1949  0.0595  0.0705
31721OCT     C263442  11.084   2.216  18.976  0.0379 -0.0513 -0.1272
31722OCT     C163443  17.160  19.465  22.733  0.1292  0.2043  0.0580
31722OCT     C263444  17.205  19.030  22.505 -0.0782  0.1308 -0.1422
31723OCT     C163445  23.178   8.579  10.025  0.0348  0.0776  0.0705
31723OCT     C263446  22.867   8.584   9.666 -0.2204 -0.2670  0.0115
31724OCT     C163447   2.688   2.923   0.863  0.1195 -0.0454 -0.2209
31724OCT     C263448   2.535   3.189   1.236 -0.0416 -0.1765  0.1027
31725OCT     C163449   8.533  20.254  10.361 -0.3686 -0.4252  0.0976
31725OCT     C263450   8.223  20.412  10.088 -0.0371 -0.0782  0.1561
31726OCT     C163451  10.129  12.711  21.197 -0.0527  0.2523 -0.2683
31726OCT     C263452   9.923  12.331  21.447  0.3208  0.3260 -0.2163
31727OCT     C163453  23.209   0.764   0.973 -0.2344 -0.0932 -0.3204
31727OCT     C263454  22.853   0.610   1.187  0.1852 -0.2547 -0.0157
31728OCT     C163455  14.607  11.751   0.092  0.0503 -0.0155 -0.0431
31728OCT     C263456  14.443  11.947   0.496  0.3838 -0.0245  0.4608
31729OCT     C163457  22.869  15.935  19.898  0.0918 -0.1949  0.3752
31729OCT     C263458  22.721  16.266  20.179  0.0941  0.1149  0.1991
31730OCT     C163459   7.651   9.590   6.687  0.3871  0.3770  0.2327
31730OCT     C263460   7.880  10.021   6.585 -0.1835  0.1771 -0.1421
31731OCT     C163461  15.383  21.001  19.476 -0.0781 -0.1841 -0.1106
31731OCT     C263462  15.822  21.059  19.709 -0.1311  0.1705  0.4444
31732OCT     C163463   1.609  12.455   2.690 -0.1091  0.2832  0.4033
31732OCT     C263464   1.717  12.403   2.225  0.1700 -0.1181  0.1478
31733OCT     C163465   1.293   2.981   8.328 -0.1365 -0.0835 -0.4340
31733OCT     C263466   1.337   3.231   7.895  0.0189  0.3615 -0.0918
31734OCT     C163467   8.469  14.680  21.169 -0.2897 -0.0408  0.1050
31734OCT     C263468   8.175  14.962  21.025  0.0251 -0.3749 -0.5303
31735OCT     C163469   0.851  10.861  14.183 -0.0406  0.1382 -0.2122
31735OCT     C263470   0.410  10.835  14.365 -0.0478 -0.0008 -0.0374
31736OCT     C163471  15.835   2.204   8.536  0.1738  0.3736 -0.0766
31736OCT     C263472  15.365   2.354   8.620  0.4633  0.1808 -0.1955
31737OCT     C163473   2.683  20.133  10.044  0.2513 -0.1413 -0.0400
31737OCT     C263474   3.068  19.845   9.974 -0.2386 -0.0666  0.1340
31738OCT     C163475  21.880  15.053  19.753 -0.0242  0.1833  0.0681
31738OCT     C263476  22.022  14.954  20.215  0.3593  0.0607  0.0490
31739OCT     C163477  12.670  22.469  10.137 -0.4800  0.1901 -0.5265
31739OCT     C263478  12.658  22.006  10.321 -0.1275 -0.3441 -0.2434
31740OCT     C163479  11.125  18.845  15.429 -0.2448  0.1893  0.0101
31740OCT     C263480  10.838  18.517  15.485 -0.1939  0.5602  0.1564
31741OCT     C163481   4.931  13.221  19.465 -0.3001  0.2240  0.3725
31741OCT     C263482   5.027  13.277  18.964 -0.2492 -0.0758 -0.0643
31742OCT     C163483   8.746   5.474  21.388  0.1376  0.0792 -0.0225
31742OCT     C263484   8.800   5.070  21.666 -0.2195 -0.1260  0.1605
31743OCT     C163485   5.158  16.138  16.803 -0.1287  0.1250  0.0523
31743OCT     C263486   5.278  16.046  17.250  0.2665 -0.0451  0.0290
31744OCT     C163487  20.218  15.606  18.675  0.1437 -0.1804  0.1198
31744OCT     C263488  20.573  15.721  18.535 -0.4212 -0.2268 -0.3343
31745OCT     C163489   1.911  23.150  18.282  0.0006 -0.1911 -0.4145
31745OCT     C263490   1.749  23.586  18.215  0.0388  0.3054  0.1588
31746OCT     C163491  22.908  22.288  22.018  0.1369 -0.2958  0.0327
31746OCT     C263492  23.382  22.248  21.887 -0.0296 -0.3236 -0.1277
31747OCT     C163493  15.219   4.563  10.512  0.0955 -0.1843 -0.0746
31747OCT     C263494  15.410   4.353  10.132  0.2066  0.2645  0.0286
31748OCT     C163495   4.450   0.235   2.456 -0.0855  0.3218  0.2119
31748OCT     C263496   4.241   0.420   2.845  0.1943  0.0358 -0.1156
31749OCT     C163497  13.369  17.084  16.666 -0.1739  0.3176 -0.0893
31749OCT     C263498  13.668  17.438  16.513  0.2262 -0.1483 -0.4170
31750OCT     C163499   3.865  16.029  11.437 -0.3406  0.0843 -0.1150
31750OCT     C263500   3.913  16.444  11.644  0.3771 -0.2720  0.1424
31751OCT     C163501  15.411  20.626  13.624  0.2128  0.0666  0.1410
31751OCT     C263502  15.742  20.858  13.452  0.0821  0.0147 -0.4420
31752OCT     C163503   0.279  20.330  23.177 -0.0784 -0.0050 -0.1259
31752OCT     C263504   0.009  20.090  23.459 -0.0561  0.2362  0.0224
31753OCT     C163505  13.568  23.090   2.242 -0.3751  0.0121  0.0670
31753OCT     C263506  13.965  23.419   2.186  0.1471  0.0002 -0.1411
31754OCT     C163507   2.713  21.114   4.529 -0.0781 -0.1058  0.0792
31754OCT     C263508   3.028  21.183   4.890 -0.0898  0.0108 -0.0725
31755OCT     C163509  22.425  11.748  23.149 -0.1920 -0.3321 -0.0808
31755OCT     C263510  22.035  12.095  23.117 -0.1177  0.0529  0.1039
31756OCT     C163511  20.518   9.706  21.026 -0.4643 -0.2120 -0.1526
31756OCT     C263512  20.459   9.573  21.529 -0.3208 -0.1206  0.2463
31757OCT     C163513  15.996   8.874  18.280 -0.2691  0.1615  0.1720
31757OCT     C263514  15.663   9.081  18.021  0.2300 -0.3964 -0.0167
31758OCT     C163515  21.681  15.288  12.245 -0.0902  0.3281 -0.1067
31758OCT     C263516  22.018  15.025  12.360  0.2675  0.0771  0.3208
31759OCT     C163517  20.881  21.136  15.959  0.1085  0.2050  0.1244
31759OCT     C263518  20.456  21.281  16.169 -0.0222 -0.1800 -0.2114
31760OCT     C163519  12.341   3.372  20.614  0.1220  0.1708  0.1849
31760OCT     C263520  12.587   3.013  20.616  0.0155  0.4464  0.5683
31761OCT     C163521   3.234  12.773  16.153  0.0037  0.4687 -0.1619
31761OCT     C263522   3.593  12.618  15.937  0.0681  0.0455 -0.0497
31762OCT     C163523  19.092   2.612   2.877  0.3233 -0.1208 -0.0275
31762OCT     C263524  18.597   2.696   2.814  0.4677  0.2794 -0.1087
31763OCT     C163525   2.988   6.271  10.637  0.2045  0.0796  0.0581
31763OCT     C263526   3.447   6.215  10.631  0.0049 -0.2015 -0.0449
31764OCT     C163527   9.894  14.134  23.062  0.0130  0.0284  0.2667
31764OCT     C263528  10.301  14.424  23.266  0.3382  0.2299  0.2054
31765OCT     C163529   4.035  10.430  12.757 -0.1514 -0.1384  0.2789
31765OCT     C263530   3.604  10.243  12.830  0.1428  0.1852  0.0510
31766OCT     C163531  14.768  22.708  17.641 -0.1319  0.4622 -0.0242
31766OCT     C263532  14.358  22.614  17.356  0.0001 -0.2088  0.2677
31767OCT     C163533  21.566  11.063   7.889 -0.3793  0.0454  0.2133
31767OCT     C263534  21.525  10.869   7.491  0.1280 -0.1513 -0.0435
31768OCT     C163535   3.522   3.657  23.114  0.3469 -0.2571 -0.2274
31768OCT     C263536   3.742   3.362  22.791  0.1530 -0.1684 -0.1091
31769OCT     C163537  16.409   0.749   4.282  0.0498 -0.0476  0.4187
31769OCT     C263538  16.122   1.156   4.207  0.3032 -0.1478 -0.2908
31770OCT     C163539   2.057  22.059   3.850 -0.0139  0.1014  0.1016
31770OCT     C263540   1.639  22.185   3.964  0.1673 -0.1504  0.2015
31771OCT     C163541   3.016  16.941   6.514  0.2546 -0.2942 -0.0548
31771OCT     C263542   3.410  16.812   6.700 -0.2548 -0.1908  0.5263
31772OCT     C163543   0.466  16.508  16.405  0.1006  0.4054  0.1874
31772OCT     C263544   0.267  16.099  16.608 -0.1361  0.2967  0.4144
31773OCT     C163545  20.323  21.523   6.206 -0.1513 -0.1664 -0.0885
31773OCT     C263546  20.449  21.080   6.119 -0.0180  0.2332 -0.0366
31774OCT     C163547   6.884  17.538   4.050 -0.2144  0.0369 -0.1534
31774OCT     C263548   7.156  17.476   3.688 -0.3812 -0.0189 -0.0567
31775OCT     C163549  14.248   3.208   9.279  0.0120 -0.0304 -0.0506
31775OCT     C263550  14.290   2.928   8.936  0.3420 -0.0344  0.2745
31776OCT     C163551  16.477  23.298   6.403 -0.0564  0.0738  0.0467
31776OCT     C263552  16.832  23.564   6.418 -0.2296  0.1474 -0.1119
31777OCT     C163553  19.117  16.984   2.964 -0.1471 -0.0003  0.3256
31777OCT     C263554  19.429  17.261   3.173 -0.1077 -0.2459  0.0675
31778OCT     C163555   9.872   9.164   4.477  0.1899  0.1181 -0.1520
31778OCT     C263556   9.925   9.568   4.252 -0.2168 -0.1530  0.1364
31779OCT     C163557   9.919   9.227  20.542 -0.0852  0.1037 -0.3042
31779OCT     C263558   9.539   9.339  20.877  0.0965 -0.2153 -0.0668
31780OCT     C163559   9.279  13.558   9.655  0.0523  0.1382 -0.1470
31780OCT     C263560   9.086  13.984   9.715  0.1169 -0.1153 -0.0908
31781OCT     C163561   2.703  16.919  23.069 -0.1164 -0.0056 -0.1400
31781OCT     C263562   2.773  16.458  23.238  0.2517  0.1388 -0.1343
31782OCT     C163563  17.829   4.009   5.674  0.4397  0.2322 -0.0702
31782OCT     C263564  17.966   4.100   5.220  0.0203 -0.2213  0.1286
31783OCT     C163565  14.738   9.957  12.972 -0.0788 -0.1061  0.0428
31783OCT     C263566  14.512  10.239  13.272 -0.4256 -0.1507 -0.2079
31784OCT     C163567  21.893   0.893   9.233  0.1504 -0.1440 -0.1851
31784OCT     C263568  21.711   0.696   8.842  0.0384 -0.0531  0.0409
31785OCT     C163569  14.418   9.682   8.668  0.0915  0.0908  0.1545
31785OCT     C263570  14.361  10.145   8.537  0.1973  0.0006 -0.1848
31786OCT     C163571  13.304  10.780  18.188  0.0799  0.3089 -0.1356
31786OCT     C263572  13.276  11.264  18.270 -0.3575  0.1270  0.2764
31787OCT     C163573   4.265   7.892  23.673  0.1846  0.1659  0.1348
31787OCT     C263574   4.721   7.927  23.629 -0.0554  0.4089 -0.2872
31788OCT     C163575  19.804   7.851   3.436  0.1282 -0.0941 -0.2046
31788OCT     C263576  19.738   7.962   3.910 -0.2838  0.1090  0.0727
31789OCT     C163577   0.519   6.475   2.452  0.3783 -0.5135 -0.3318
31789OCT     C263578   0.300   6.076   2.276  0.2262  0.0569 -0.1275
31790OCT     C163579   5.209  18.495   4.431 -0.0896 -0.0741  0.3101
31790OCT     C263580   5.009  18.181   4.104 -0.1715  0.3643  0.0321
31791OCT     C163581   3.538   7.838   8.795  0.0557 -0.3037 -0.0492
31791OCT     C263582   3.580   8.102   9.223  0.2459  0.2689 -0.2401
31792OCT     C163583  19.841   3.339  19.360  0.1777 -0.0630  0.0362
31792OCT     C263584  19.594   3.679  19.123  0.0831 -0.4523  0.4412
31793OCT     C163585  22.771  10.244  21.292 -0.2231  0.4512 -0.2142
31793OCT     C263586  22.597  10.528  20.921 -0.3244 -0.0719 -0.1324
31794OCT     C163587  15.537  13.327   7.656 -0.0959  0.1042 -0.0905
31794OCT     C263588  15.907  13.282   7.880  0.0071 -0.3099  0.4449
31795OCT     C163589   3.206   1.606  14.521 -0.1738 -0.3430  0.0526
31795OCT     C263590   2.969   1.357  14.185  0.0505 -0.4010  0.1063
31796OCT     C163591  19.793   4.241  21.789  0.3622  0.0894 -0.2172
31796OCT     C263592  19.323   4.392  21.841  0.0968 -0.0845 -0.0923
31797OCT     C163593   0.922   0.918  21.216  0.0196  0.1884 -0.2244
31797OCT     C263594   1.101   0.742  21.569  0.0853 -0.3401 -0.1829
31798OCT     C163595  14.267  11.563  11.082 -0.0598 -0.2268  0.1067
31798OCT     C263596  14.329  11.947  10.833  0.0119 -0.2143 -0.0472
31799OCT     C163597   0.025   6.120  22.185  0.0131 -0.1455  0.2103
31799OCT     C263598  23.463   5.975  21.822  0.5585 -0.2957  0.1029
31800OCT     C163599   1.522  15.361  11.760  0.1023  0.0967  0.0605
31800OCT     C263600   1.965  15.424  11.948  0.2592 -0.2920 -0.3541
31801OCT     C163601  22.799   5.375  22.821  0.0506  0.0264 -0.1341
31801OCT     C263602  22.961   5.827  22.820 -0.0562  0.1291 -0.0929
31802OCT     C163603  20.512  19.286  14.705  0.1129  0.1227  0.0301
31802OCT     C263604  20.594  19.689  14.848 -0.0477 -0.0191 -0.6800
31803OCT     C163605  17.333   2.037  18.795  0.1477 -0.0180 -0.0474
31803OCT     C263606  17.619   1.677  18.826 -0.2051 -0.1693 -0.0905
31804OCT     C163607  10.921   9.541  20.170  0.0796  0.0748 -0.2959
31804OCT     C263608  11.312   9.770  20.129  0.1265 -0.0799 -0.2714
31805OCT     C163609  20.789   6.039  20.256  0.0640  0.1511 -0.1070
31805OCT     C263610  20.437   6.179  20.031 -0.0943  0.0661  0.1618
31806OCT     C163611   7.144  15.790   6.635 -0.1433  0.3290  0.0215
31806OCT     C263612   7.450  15.527   6.389 -0.1383  0.0238 -0.0462
31807OCT     C163613  10.322   5.345  20.402 -0.2254  0.4135 -0.2126
31807OCT     C263614   9.895   5.174  20.419  0.1283 -0.4764  0.3954
31808OCT     C163615  15.256  18.523   0.113  0.2518 -0.2687  0.3482
31808OCT     C263616  15.631  18.622  23.552  0.1168  0.0493 -0.1104
31809OCT     C163617  20.089   5.048   2.095 -0.1725  0.1130  0.3487
31809OCT     C263618  19.979   5.500   2.247  0.1065 -0.0057 -0.0166
31810OCT     C163619   4.236  13.700   3.805  0.2462  0.1200 -0.0493
31810OCT     C263620   4.536  13.809   4.175 -0.1214 -0.1367  0.0458
31811OCT     C163621   2.109  15.525   5.601  0.3045  0.2753  0.0966
31811OCT     C263622   2.291  15.661   6.009 -0.0425 -0.4541  0.0348
31812OCT     C163623   2.891   3.229  15.333  0.1634  0.3492  0.0121
31812OCT     C263624   2.743   3.160  15.789 -0.0577  0.3701  0.3832
31813OCT     C163625   1.690   5.154  20.235 -0.1365  0.1895 -0.3342
31813OCT     C263626   1.414   5.108  19.825  0.2003  0.0087 -0.0475
31814OCT     C163627  22.161  19.820   8.109 -0.0319  0.0969  0.0248
31814OCT     C263628  22.366  20.223   8.043 -0.0164 -0.1823 -0.0073
31815OCT     C163629   5.561   4.906  10.015  0.2499  0.1394 -0.3383
31815OCT     C263630   5.737   4.889   9.539  0.1140 -0.1296 -0.4287
31816OCT     C163631  20.461  11.324   9.290  0.4643  0.2642 -0.0756
31816OCT     C263632  20.568  10.871   9.117 -0.2094  0.0457 -0.3955
31817OCT     C163633   1.377  12.439   8.425 -0.2796  0.0989 -0.5244
31817OCT     C263634   1.336  12.272   8.002  0.2556  0.1944 -0.0956
31818OCT     C163635   2.891  19.387  12.589  0.1901 -0.1288  0.1403
31818OCT     C263636   3.230  19.696  12.616  0.3051  0.2060 -0.1207
31819OCT     C163637   2.559   1.775  14.278 -0.2195  0.0280 -0.1986
31819OCT     C263638   2.707   1.672  13.839 -0.1768 -0.1247  0.2302
31820OCT     C163639  22.705  19.185  11.109  0.0434  0.1276  0.1592
31820OCT     C263640  23.140  19.219  10.922  0.0823 -0.0086 -0.1662
31821OCT     C163641   1.916  20.350  16.519  0.3647  0.1115 -0.0629
31821OCT     C263642   1.898  20.473  16.992  0.4387 -0.2585 -0.1028
31822OCT     C163643  17.968  22.564   4.464  0.0572 -0.3670 -0.1918
31822OCT     C263644  18.257  22.772   4.757 -0.1271 -0.0276 -0.0270
31823OCT     C163645  14.585  22.292  19.174  0.2612  0.1379 -0.2060
31823OCT     C263646  14.781  21.852  19.222  0.1463 -0.0864 -0.0357
31824OCT     C163647   6.722   2.031   5.415  0.2043 -0.0385  0.2963
31824OCT     C263648   6.488   2.328   5.155 -0.0372  0.1345 -0.0670
31825OCT     C163649  16.256  18.984  21.295 -0.3175 -0.1737 -0.2006
31825OCT     C263650  16.315  19.468  21.389 -0.1636  0.1925 -0.0091
31826OCT     C163651   9.208  23.225  22.236  0.0829  0.1601 -0.0842
31826OCT     C263652   9.045  23.165  22.675 -0.0361 -0.1534 -0.0166
31827OCT     C163653   2.693   2.649   5.247  0.3768  0.0038  0.1403
31827OCT     C263654   2.706   3.155   5.205 -0.0485  0.0692  0.1735
31828OCT     C163655   2.956  14.976   6.622  0.0522  0.0409  0.1635
31828OCT     C263656   3.192  15.270   6.414 -0.2139 -0.2327  0.3147
31829OCT     C163657  22.303   3.643   5.314  0.1549 -0.2929 -0.2585
31829OCT     C263658  22.334   3.754   4.839  0.0192  0.0909  0.3072
31830OCT     C163659   2.012  11.480  23.342  0.2757  0.0405 -0.3538
31830OCT     C263660   1.673  11.695  23.534  0.0394  0.1189 -0.1322
31831OCT     C163661   6.470  21.859   6.013 -0.3424  0.2534  0.0048
31831OCT     C263662   6.433  21.454   6.075  0.3786 -0.2036  0.0150
31832OCT     C163663  16.952   9.849  23.677 -0.4345 -0.0397  0.2462
31832OCT     C263664  16.528   9.857   0.095  0.4376  0.1442 -0.1603
31833OCT     C163665   1.267  18.341   8.341  0.0268 -0.3148 -0.1442
31833OCT     C263666   1.455  18.807   8.328 -0.1558  0.0138  0.0838
31834OCT     C163667  16.405  10.811  23.445 -0.1645 -0.1716  0.1614
31834OCT     C263668  16.481  10.884   0.138  0.0291  0.0303 -0.3644
31835OCT     C163669   6.707  22.036  11.033 -0.1642  0.0872  0.0545
31835OCT     C263670   7.135  21.869  11.024 -0.0441 -0.1317  0.1352
31836OCT     C163671   2.151  17.571  10.626  0.1025  0.1404 -0.0183
31836OCT     C263672   1.738  17.386  10.642 -0.1750  0.1454 -0.3716
31837OCT     C163673  21.150  21.894  19.671  0.0649 -0.1335 -0.2579
31837OCT     C263674  21.595  21.942  19.631  0.1611 -0.0553  0.0892
31838OCT     C163675  16.451  15.041  10.034 -0.0286  0.0977 -0.0535
31838OCT     C263676  16.406  15.341   9.674 -0.4394 -0.2015  0.1025
31839OCT     C163677   2.829  16.387  10.936 -0.0963 -0.0880 -0.2217
31839OCT     C263678   2.678  16.562  11.307 -0.0005  0.1127  0.1591
31840OCT     C163679  18.246  14.349  20.488 -0.0152  0.0922 -0.2048
31840OCT     C263680  18.430  14.193  20.087  0.0489  0.2525 -0.0299
31841OCT     C163681   3.522   4.571  23.289  0.0483  0.2565  0.0162
31841OCT     C263682   3.193   4.568  22.926 -0.0792 -0.1101 -0.3142
31842OCT     C163683  15.625  17.548   0.210 -0.2220  0.1174  0.1877
31842OCT     C263684  15.763  17.087   0.199  0.1480  0.1578  0.5300
31843OCT     C163685  15.992  17.444   1.569  0.0507  0.0814 -0.1802
31843OCT     C263686  15.952  17.665   1.183  0.2568  0.3757 -0.1331
31844OCT     C163687  11.815   6.089  23.703 -0.8768 -0.0925  0.0526
31844OCT     C263688  12.267   5.951  23.545  0.0354  0.1949 -0.0437
31845OCT     C163689  13.780  20.857  17.846 -0.0719  0.1101 -0.2159
31845OCT     C263690  14.033  20.691  18.227 -0.1961 -0.1271  0.0781
31846OCT     C163691   7.081   9.392   8.577  0.3750 -0.0339 -0.3179
31846OCT     C263692   7.549   9.243   8.633 -0.1746 -0.2750  0.2740
31847OCT     C163693   9.453  21.954  23.655 -0.0871  0.3357  0.1303
31847OCT     C263694   9.729  22.339  23.495  0.1019  0.2914 -0.0742
31848OCT     C163695  10.605  12.654  15.357  0.4158  0.3974 -0.3516
31848OCT     C263696  10.283  12.534  15.664  0.1089 -0.0456  0.0273
31849OCT     C163697   2.694  21.342   1.263  0.2576 -0.4298  0.5497
31849OCT     C263698   2.329  21.546   1.565 -0.2338  0.2652  0.1821
31850OCT     C163699  12.017  13.731   3.434  0.0970 -0.2375 -0.0058
31850OCT     C263700  12.046  13.478   3.089  0.0792  0.4111 -0.3647
31851OCT     C163701  15.706  15.936   0.059 -0.3052 -0.2057  0.2589
31851OCT     C263702  15.810  16.401  23.615  0.1001  0.1587  0.0242
31852OCT     C163703   9.199  10.339   0.123  0.1679  0.1316 -0.2167
31852OCT     C263704   9.112  10.399   0.552  0.0667  0.1613  0.3098
31853OCT     C163705  22.940   4.116   8.689 -0.1365  0.4360 -0.1977
31853OCT     C263706  23.235   4.512   8.789 -0.1371 -0.1411 -0.1804
31854OCT     C163707  17.534  16.414  19.862 -0.1788 -0.2265  0.0173
31854OCT     C263708  17.054  16.351  19.851 -0.1372  0.0519  0.2919
31855OCT     C163709  20.133  23.692  10.073 -0.5164 -0.0505  0.0095
31855OCT     C263710  19.773  23.605   9.777 -0.2515  0.1720 -0.2705
31856OCT     C163711  23.716  13.744  15.129 -0.0542 -0.0295  0.2839
31856OCT     C263712  23.383  13.805  15.456 -0.0118  0.0474 -0.1028
31857OCT     C163713   4.212   6.522   0.985  0.0001 -0.0562 -0.4263
31857OCT     C263714   3.882   6.847   0.913 -0.0369 -0.1123 -0.1542
31858OCT     C163715  16.222  16.758  14.701  0.2881 -0.0932  0.0180
31858OCT     C263716  16.636  16.740  14.742 -0.1761  0.1258 -0.2901
31859OCT     C163717  14.163  12.676   4.868  0.0908  0.1176 -0.3572
31859OCT     C263718  14.254  12.849   4.465 -0.0026  0.2826 -0.4069
31860OCT     C163719  23.345  13.419  10.842 -0.1609  0.1232  0.2624
31860OCT     C263720  23.042  13.521  10.491 -0.1717  0.3408 -0.0094
31861OCT     C163721  22.841   6.203  18.782 -0.1953 -0.0623 -0.1321
31861OCT     C263722  22.992   5.830  19.005 -0.0625  0.2528 -0.1560
31862OCT     C163723  23.563  19.491   6.006 -0.2686  0.0210 -0.3347
31862OCT     C263724  23.239  19.220   6.238 -0.1825 -0.1329 -0.0734
31863OCT     C163725   6.439   7.707   9.361  0.2046 -0.3442  0.0946
31863OCT     C263726   6.487   7.885   8.972  0.1936 -0.0907 -0.4488
31864OCT     C163727  17.043   4.909  13.822  0.3191  0.0376 -0.1931
31864OCT     C263728  16.815   4.566  14.025  0.2541 -0.0084  0.5727
31865OCT     C163729  12.079   2.678  22.287 -0.4459 -0.2015 -0.0663
31865OCT     C263730  12.404   2.924  22.560  0.1286  0.1292 -0.0601
31866OCT     C163731  14.364  11.734   3.073  0.5856 -0.1329 -0.0254
31866OCT     C263732  14.385  11.965   3.480 -0.0530  0.2777 -0.1097
31867OCT     C163733  22.782  11.440   0.701 -0.0542 -0.2699 -0.3425
31867OCT     C263734  22.479  11.171   0.451  0.1013 -0.3713  0.2060
31868OCT     C163735  22.697  22.092  10.142  0.1676  0.2727  0.0554
31868OCT     C263736  23.045  21.770  10.175 -0.1240 -0.1012  0.1995
31869OCT     C163737  21.589  16.808  18.646 -0.2613 -0.2967  0.2745
31869OCT     C263738  21.724  16.799  19.110  0.1002  0.1471 -0.1770
31870OCT     C163739  22.222   8.880  23.442  0.1431  0.1242 -0.0729
31870OCT     C263740  21.912   9.133  23.169 -0.2376 -0.3859 -0.1606
31871OCT     C163741   8.185   9.991   0.408  0.0959  0.5447 -0.2832
31871OCT     C263742   8.018   9.557   0.622 -0.2253 -0.2840  0.2325
31872OCT     C163743   8.408  12.003  13.369 -0.3895  0.3657  0.4916
31872OCT     C263744   8.884  11.929  13.403 -0.0535  0.0341  0.1596
31873OCT     C163745  14.261  22.153  21.138 -0.2117 -0.2687  0.1443
31873OCT     C263746  14.500  22.540  21.307 -0.1271  0.0299  0.0366
31874OCT     C163747   7.758  12.344   4.755  0.0220  0.1970  0.3029
31874OCT     C263748   7.844  11.859   4.558  0.2305  0.2135 -0.3991
31875OCT     C163749  21.820   6.847   8.523 -0.1835  0.1123 -0.1121
31875OCT     C263750  21.552   7.207   8.540 -0.1176  0.1363  0.3718
31876OCT     C163751  13.139  16.618  23.200  0.1431  0.3261  0.2508
31876OCT     C263752  12.714  16.534  22.999  0.0611 -0.2398 -0.0856
31877OCT     C163753  10.370   1.755  15.476  0.2333 -0.2867 -0.1267
31877OCT     C263754  10.322   1.846  15.975  0.0585 -0.0687  0.0763
31878OCT     C163755   9.206   2.883  10.644 -0.2251  0.1705 -0.0764
31878OCT     C263756   9.257   2.369  10.641 -0.1819 -0.0831  0.3851
31879OCT     C163757  21.839   5.967  14.744 -0.0068  0.3230 -0.1624
31879OCT     C263758  21.421   5.870  14.785  0.2163  0.0257  0.0560
31880OCT     C163759  14.425  11.523  12.346 -0.3224  0.3658  0.0091
31880OCT     C263760  14.143  11.228  12.172 -0.0322  0.0622 -0.0822
31881OCT     C163761  17.433  21.730   0.338 -0.0100  0.0909  0.0889
31881OCT     C263762  17.029  21.787   0.230 -0.0776 -0.0851  0.1499
31882OCT     C163763  13.182  16.633  16.933  0.0513 -0.0889  0.0585
31882OCT     C263764  12.987  16.527  16.533  0.1930  0.0151  0.2778
31883OCT     C163765  22.057  16.931   2.299 -0.3985 -0.0995  0.2267
31883OCT     C263766  21.726  16.865   2.562 -0.0900 -0.1915 -0.4283
31884OCT     C163767  13.629  12.614  15.194 -0.0104 -0.2675 -0.0428
31884OCT     C263768  13.906  12.891  15.464 -0.1884 -0.0540 -0.0081
31885OCT     C163769   5.850  18.688   3.021 -0.2502  0.2021  0.0506
31885OCT     C263770   5.587  18.893   2.661 -0.0786  0.0327 -0.1895
31886OCT     C163771   7.304  10.051  15.521  0.1602 -0.3435  0.0268
31886OCT     C263772   7.283  10.434  15.263  0.1565  0.0863  0.1552
31887OCT     C163773   1.237  22.579  13.915  0.0634  0.0589  0.5638
31887OCT     C263774   1.195  23.049  13.971 -0.2012  0.0589  0.0263
31888OCT     C163775   3.267   1.921  20.094  0.5180 -0.0485  0.2909
31888OCT     C263776   3.645   2.148  20.027 -0.0923 -0.2744 -0.0351
31889OCT     C163777   1.144  17.397  19.293 -0.0109 -0.1265 -0.3204
31889OCT     C263778   1.154  17.073  19.717  0.1218 -0.1511 -0.1712
31890OCT     C163779  11.368  13.586   5.362  0.1275  0.2559 -0.1436
31890OCT     C263780  11.677  13.911   5.398  0.0970 -0.0447  0.0774
31891OCT     C163781   9.751   6.550  23.061  0.0589 -0.0235  0.1496
31891OCT     C263782   9.473   6.449  23.424  0.1541 -0.0588  0.4596
31892OCT     C163783  23.719  14.379  19.056  0.1465 -0.4440 -0.0791
31892OCT     C263784   0.270  14.725  19.136 -0.1121  0.4046 -0.0935
31893OCT     C163785   3.386  17.679  22.082 -0.0016 -0.3318  0.0030
31893OCT     C263786   3.256  17.388  21.732 -0.0320 -0.1381 -0.2856
31894OCT     C163787   5.178   9.029   9.703 -0.0988 -0.0125 -0.0162
31894OCT     C263788   4.827   8.753   9.846 -0.3865 -0.0012  0.0803
31895OCT     C163789   4.109  12.530   8.146 -0.1058  0.4252 -0.3712
31895OCT     C263790   3.689  12.749   8.102 -0.0997  0.0693  0.0348
31896OCT     C163791  16.511  12.096   3.750  0.3297  0.2950  0.3242
31896OCT     C263792  16.598  12.560   3.703 -0.0367 -0.0088 -0.0576
31897OCT     C163793  11.366   3.692  23.048  0.0986  0.0657 -0.1984
31897OCT     C263794  11.519   4.113  23.163 -0.1076 -0.1520  0.1966
31898OCT     C163795  12.530   0.869  17.103 -0.0955 -0.1987  0.3688
31898OCT     C263796  12.368   0.876  16.681 -0.5060 -0.2660  0.0282
31899OCT     C163797   3.220  18.504  12.148 -0.1036 -0.0837 -0.0183
31899OCT     C263798   2.922  18.527  12.514 -0.1557 -0.1372 -0.1187
31900OCT     C163799  10.158   0.153  19.540  0.1271  0.3749  0.2889
31900OCT     C263800  10.163  23.706  19.964  0.1284 -0.0436  0.3728
31901OCT     C163801  18.955   7.543   4.801  0.1368  0.0815  0.3339
31901OCT     C263802  18.541   7.741   4.746 -0.2505 -0.0420  0.3301
31902OCT     C163803  14.537  22.943  20.949  0.1067  0.0931  0.2103
31902OCT     C263804  14.908  23.122  20.822  0.0430 -0.1174  0.0837
31903OCT     C163805   2.752  17.337   9.805 -0.4901 -0.4419  0.2106
31903OCT     C263806   2.677  17.784   9.722 -0.1841  0.1852  0.0328
31904OCT     C163807  20.685  14.670   0.126  0.0123 -0.1593 -0.0356
31904OCT     C263808  20.414  14.787   0.536 -0.4182 -0.2274 -0.1255
31905OCT     C163809  17.225  13.379  15.099 -0.0242 -0.1684  0.2378
31905OCT     C263810  16.714  13.277  14.975  0.0924  0.3035 -0.1015
31906OCT     C163811  12.242  23.362  20.001  0.0312 -0.3926  0.1417
31906OCT     C263812  12.319   0.071  20.065 -0.1440  0.1278 -0.2138
31907OCT     C163813  17.311   4.247   2.650 -0.0230  0.0757 -0.4113
31907OCT     C263814  17.250   4.586   2.326  0.0677  0.2281  0.0768
31908OCT     C163815  11.477  19.647  13.216 -0.1873 -0.0511  0.2457
31908OCT     C263816  11.357  19.635  12.729 -0.2106 -0.2441  0.2515
31909OCT     C163817   3.360  17.884   3.451 -0.1056 -0.0379 -0.0883
31909OCT     C263818   3.413  17.560   3.716 -0.3553 -0.1709  0.0501
31910OCT     C163819   2.081  22.652  22.144 -0.0043  0.2431  0.1458
31910OCT     C263820   2.185  22.613  21.695 -0.3958  0.1059  0.1526
31911OCT     C163821  22.387  10.564   7.625  0.2181 -0.1287  0.2054
31911OCT     C263822  22.236  10.824   7.258 -0.5164  0.1724  0.1270
31912OCT     C163823   3.808  10.793   8.303  0.2109  0.0297  0.0145
31912OCT     C263824   4.197  10.863   8.576  0.0720 -0.2027 -0.1610
31913OCT     C163825   5.083  23.410   0.825 -0.1285 -0.2286  0.0364
31913OCT     C263826   5.363  23.728   0.653 -0.3355 -0.2607  0.1137
31914OCT     C163827  12.728  12.765  11.795 -0.1795  0.1561  0.0753
31914OCT     C263828  13.153  12.803  11.960  0.3266 -0.0200  0.1432
31915OCT     C163829  15.470  15.440   9.259 -0.3688  0.1801 -0.0618
31915OCT     C263830  15.795  15.804   9.284 -0.0283  0.0114  0.1653
31916OCT     C163831  22.888   2.593  20.401 -0.0029 -0.3578 -0.2354
31916OCT     C263832  23.105   2.991  20.589 -0.1882  0.1378  0.2208
31917OCT     C163833   0.280  19.328   2.635  0.4278 -0.0842 -0.0080
31917OCT     C263834  23.568  19.376   2.828 -0.4162 -0.2005  0.0105
31918OCT     C163835   5.389  20.939   8.628  0.1425  0.2994  0.0957
31918OCT     C263836   5.181  21.161   8.957  0.1993 -0.0500  0.0086
31919OCT     C163837   4.805  19.049  23.270  0.1512  0.1398 -0.0407
31919OCT     C263838   4.323  19.080  23.136  0.1280  0.0261  0.0227
31920OCT     C163839  11.747   5.139  19.970 -0.0442  0.0262 -0.2586
31920OCT     C263840  12.027   4.864  19.764  0.1134 -0.2758 -0.2257
31921OCT     C163841  12.839  21.452  22.413  0.1048 -0.2973 -0.3955
31921OCT     C263842  12.402  21.355  22.183  0.2918 -0.1048  0.3956
31922OCT     C163843  15.223   3.740  20.773  0.2876  0.0236  0.0290
31922OCT     C263844  15.692   3.758  20.689 -0.0620  0.1617 -0.0480
31923OCT     C163845  11.967  20.744   2.283  0.4158  0.0246  0.1833
31923OCT     C263846  11.782  20.362   2.090 -0.3186  0.2004  0.1022
31924OCT     C163847  15.991   8.662  20.364  0.2142 -0.0666  0.0225
31924OCT     C263848  16.106   8.757  20.820 -0.3053  0.3047 -0.1476
31925OCT     C163849  22.571   7.581   2.568  0.1313  0.3103  0.2523
31925OCT     C263850  22.188   7.439   2.320 -0.0248 -0.5193  0.0182
31926OCT     C163851   6.634   7.814  12.630 -0.2330 -0.0774  0.3632
31926OCT     C263852   6.260   7.541  12.767  0.1966  0.0144  0.0583
31927OCT     C163853   3.688  11.479  14.997  0.1095 -0.3066 -0.2377
31927OCT     C263854   4.094  11.623  14.919  0.1551 -0.0742 -0.3927
31928OCT     C163855   5.985  16.866   8.757 -0.2218  0.0849  0.3073
31928OCT     C263856   6.320  16.936   8.492  0.2916 -0.2579  0.0767
31929OCT     C163857  16.849   2.920  11.661 -0.2630  0.0539 -0.4498
31929OCT     C263858  16.790   3.322  11.515 -0.0190 -0.0349 -0.0896
31930OCT     C163859  15.689  23.128   7.268 -0.3670  0.1274 -0.1391
31930OCT     C263860  15.491  23.203   7.649 -0.0382 -0.4586  0.2368
31931OCT     C163861   5.886  16.643   7.539 -0.0688  0.0764 -0.1857
31931OCT     C263862   5.567  16.363   7.286  0.0152 -0.2672 -0.1376
31932OCT     C163863   3.786  20.330  12.405  0.0514 -0.3486  0.0937
31932OCT     C263864   3.733  19.973  12.670  0.1198 -0.2991 -0.1894
31933OCT     C163865   8.561   0.760  18.085  0.1601  0.4299 -0.2027
31933OCT     C263866   8.178   0.546  17.953 -0.1674 -0.1707 -0.0579
31934OCT     C163867  11.594  12.403  22.931 -0.2065  0.0937  0.0019
31934OCT     C263868  11.630  12.637  22.522  0.0991  0.1295  0.0712
31935OCT     C163869  11.077  18.938  17.575 -0.0349 -0.2701  0.2475
31935OCT     C263870  11.232  19.046  17.985 -0.1384  0.1955 -0.2201
31936OCT     C163871   3.095  20.613  12.551  0.2066  0.0606  0.1229
31936OCT     C263872   3.263  20.253  12.365 -0.0143 -0.1894  0.0801
31937OCT     C163873   8.385  10.894  18.280  0.0069 -0.1209 -0.1823
31937OCT     C263874   8.352  11.045  17.836  0.0088 -0.0037 -0.3689
31938OCT     C163875   3.356  20.562   5.686 -0.1443 -0.0267  0.3269
31938OCT     C263876   3.739  20.478   5.956 -0.2665  0.0685 -0.0649
31939OCT     C163877   7.859  18.228   8.708 -0.3671 -0.2028 -0.3306
31939OCT     C263878   8.192  18.571   8.728 -0.0580 -0.0655 -0.1366
31940OCT     C163879  17.970  10.631  23.230  0.0449 -0.0870  0.1646
31940OCT     C263880  18.075  10.494  23.663 -0.0369  0.0561  0.0104
31941OCT     C163881   2.932   9.259  18.687 -0.1836  0.1967 -0.0118
31941OCT     C263882   3.073   9.266  19.134 -0.1724 -0.1651  0.1162
31942OCT     C163883   7.716   9.584  14.106 -0.0779  0.0667  0.2395
31942OCT     C263884   7.725  10.081  14.222 -0.1852 -0.1564 -0.4567
31943OCT     C163885  22.205   1.559  19.607  0.0190  0.2221  0.1589
31943OCT     C263886  22.613   1.745  19.703 -0.3750 -0.0478  0.1519
31944OCT     C163887  22.832  19.924   5.196 -0.1788  0.0105 -0.0429
31944OCT     C263888  22.581  20.197   5.493  0.0674  0.0771  0.3711
31945OCT     C163889  18.793   4.084  16.024 -0.4598  0.2500  0.1966
31945OCT     C263890  18.390   3.956  16.096  0.3920  0.1797  0.0102
31946OCT     C163891   6.309   6.169   1.903 -0.1446 -0.0466 -0.1636
31946OCT     C263892   6.462   5.871   2.229 -0.0428 -0.5654  0.2055
31947OCT     C163893   8.447  19.126  11.207 -0.1751  0.0032  0.1786
31947OCT     C263894   8.466  18.686  11.184  0.2717  0.0279  0.0707
31948OCT     C163895  16.003   9.472  10.193  0.2282 -0.2306  0.0461
31948OCT     C263896  15.990   9.921  10.405 -0.0349  0.1832  0.0341
31949OCT     C163897   1.888  20.851  19.608  0.2433 -0.3345 -0.1587
31949OCT     C263898   1.787  20.476  19.852  0.0129 -0.0786 -0.0408
31950OCT     C163899  15.208  11.438  13.772  0.1166  0.2048  0.0243
31950OCT     C263900  15.478  11.291  13.387  0.0447  0.1211 -0.2959
31951OCT     C163901  12.802  13.179   7.881  0.1302 -0.0960 -0.0174
31951OCT     C263902  12.581  13.579   7.891 -0.1766 -0.2841 -0.0082
31952OCT     C163903   3.796   4.217  16.062  0.0498  0.0476  0.0844
31952OCT     C263904   3.391   4.178  15.749  0.1361  0.1181 -0.1744
31953OCT     C163905  12.745  18.987  22.271  0.2171  0.2460  0.0305
31953OCT     C263906  12.954  18.563  22.387  0.1169  0.1010  0.1051
31954OCT     C163907   9.861  13.960   2.863  0.2781 -0.0377 -0.3413
31954OCT     C263908   9.466  14.245   2.691 -0.2638  0.0138 -0.3289
31955OCT     C163909   2.184  11.511  14.761 -0.0708  0.2300  0.4319
31955OCT     C263910   1.730  11.754  14.789  0.3570 -0.2842 -0.0480
31956OCT     C163911  15.044  12.638  12.987  0.3263 -0.0644  0.3228
31956OCT     C263912  15.067  13.112  13.165 -0.3306 -0.0029  0.1578
31957OCT     C163913   4.234  19.907   3.982  0.0778  0.1610  0.0241
31957OCT     C263914   4.504  19.518   3.991  0.1006  0.0031 -0.0584
31958OCT     C163915  15.773   1.857  10.889 -0.4543 -0.0150  0.4749
31958OCT     C263916  16.170   1.768  10.621 -0.0816  0.0428  0.0448
31959OCT     C163917  13.799   1.588  19.360 -0.1003 -0.5103  0.1404
31959OCT     C263918  13.441   1.499  19.641 -0.0138  0.0009 -0.2263
31960OCT     C163919   8.529  17.308   1.969  0.0316  0.0439 -0.3266
31960OCT     C263920   8.926  17.013   2.016  0.2153  0.0749  0.0233
31961OCT     C163921  23.379  19.135   8.232  0.0328  0.3875 -0.0672
31961OCT     C263922  23.171  18.976   7.885  0.1811  0.0160 -0.1733
31962OCT     C163923  12.883  12.515   5.513  0.1683  0.5024  0.0260
31962OCT     C263924  12.440  12.485   5.622 -0.2197 -0.0366 -0.2730
31963OCT     C163925  13.344  14.875  14.053  0.0077 -0.1674  0.3106
31963OCT     C263926  13.185  14.867  14.500  0.3579 -0.2587  0.0044
31964OCT     C163927   7.033  17.343  19.435 -0.0440  0.0984  0.0816
31964OCT     C263928   7.145  16.953  19.219 -0.3011 -0.1595 -0.3393
31965OCT     C163929  14.615  20.515   7.318 -0.0780  0.2183  0.0321
31965OCT     C263930  15.019  20.608   7.234 -0.2387  0.3317 -0.2516
31966OCT     C163931  20.437   8.316  13.626 -0.2237  0.2627  0.0931
31966OCT     C263932  20.904   8.233  13.489 -0.1444  0.2362  0.1964
31967OCT     C163933   2.875  18.577  10.061  0.0706  0.1022  0.0698
31967OCT     C263934   2.848  18.356   9.700  0.0303 -0.0316  0.2341
31968OCT     C163935   8.540  11.306  11.948 -0.0718  0.1525  0.2658
31968OCT     C263936   8.061  11.369  11.838 -0.2897 -0.0510 -0.1790
31969OCT     C163937  19.775  18.127  17.699  0.0757 -0.0080 -0.0388
31969OCT     C263938  20.182  18.308  17.795 -0.2168  0.2014  0.1095
31970OCT     C163939  14.528  18.363   1.676  0.1396 -0.1221  0.0465
31970OCT     C263940  14.416  18.546   1.281 -0.0813  0.1345  0.1341
31971OCT     C163941   9.899  10.668  22.541 -0.1089  0.3531  0.0152
31971OCT     C263942  10.053  10.302  22.307  0.2136 -0.1669  0.3142
31972OCT     C163943  13.240   3.911   7.097 -0.2319  0.0473 -0.4148
31972OCT     C263944  13.112   4.031   6.660 -0.0151  0.3236 -0.0269
31973OCT     C163945  18.970  11.796   2.283  0.2118  0.1246  0.3685
31973OCT     C263946  18.783  11.526   1.933 -0.1255  0.2553  0.4800
31974OCT     C163947   7.038   5.636  15.846  0.0463 -0.2267 -0.1506
31974OCT     C263948   6.788   6.046  15.868  0.3263  0.0267  0.1215
31975OCT     C163949   5.030   1.108  22.959  0.1760 -0.2692 -0.2288
31975OCT     C263950   5.523   1.091  23.003 -0.1652  0.0364  0.0671
31976OCT     C163951   1.043   8.361   6.235 -0.1700  0.1968 -0.2098
31976OCT     C263952   0.914   8.792   6.007 -0.0110 -0.2122  0.1558
31977OCT     C163953  15.857   2.349   7.420 -0.0199 -0.1414 -0.1100
31977OCT     C263954  15.468   2.624   7.279 -0.2329  0.2909 -0.0218
31978OCT     C163955  18.288   4.946  11.230 -0.2400 -0.5483 -0.1455
31978OCT     C263956  18.375   5.286  11.454  0.2574  0.0964  0.0271
31979OCT     C163957  15.833   9.761   4.026 -0.2251 -0.1008 -0.1031
31979OCT     C263958  15.678   9.838   4.460 -0.2345  0.0719 -0.1899
31980OCT     C163959   6.793  23.348  12.538 -0.2112  0.0226 -0.3686
31980OCT     C263960   7.210  23.312  12.407 -0.0207  0.3063 -0.0894
31981OCT     C163961   5.338   6.311   5.088 -0.1613  0.1560 -0.0530
31981OCT     C263962   5.602   6.221   5.446  0.0769  0.3071  0.0938
31982OCT     C163963  10.606  14.140  11.916  0.3846 -0.1277 -0.4466
31982OCT     C263964  10.988  14.375  12.154  0.3304  0.0137 -0.0098
31983OCT     C163965  11.796  22.839  13.937  0.1171 -0.1022 -0.1890
31983OCT     C263966  11.535  23.145  13.750  0.0141 -0.2478 -0.1467
31984OCT     C163967  15.733  23.130  20.064  0.0899  0.2082 -0.1440
31984OCT     C263968  15.635  22.804  20.397  0.5986 -0.1007 -0.0951
31985OCT     C163969   7.964  15.768  13.370 -0.2872 -0.1601 -0.3335
31985OCT     C263970   8.381  15.733  13.155 -0.0601  0.0814  0.2230
31986OCT     C163971   2.942   5.128  20.616  0.2519 -0.0517  0.1006
31986OCT     C263972   3.258   4.781  20.466  0.1926 -0.1606 -0.0358
31987OCT     C163973  14.121   8.787   8.934  0.2617  0.1733  0.4507
31987OCT     C263974  14.292   9.162   9.175 -0.1779 -0.1406  0.1589
31988OCT     C163975  17.001  17.364  18.411 -0.1058 -0.3689 -0.5001
31988OCT     C263976  16.692  17.676  18.257  0.0599  0.0397 -0.1844
31989OCT     C163977  12.854  22.753  10.890 -0.0547  0.2294 -0.1195
31989OCT     C263978  12.459  22.907  10.707  0.0783 -0.2457  0.0711
31990OCT     C163979  18.442  11.228  20.610 -0.1220  0.0045 -0.0658
31990OCT     C263980  18.197  10.962  20.935 -0.1554 -0.2470  0.0701
31991OCT     C163981   6.876  20.840   5.503 -0.0032  0.0147  0.0197
31991OCT     C263982   7.169  21.074   5.237  0.0690  0.2750 -0.1213
31992OCT     C163983  20.412  17.151  15.359 -0.0132 -0.0226  0.1747
31992OCT     C263984  20.407  17.389  15.763 -0.2280 -0.1008 -0.1662
31993OCT     C163985  16.209   7.619   4.959 -0.1569  0.0763  0.2230
31993OCT     C263986  16.010   7.322   5.236  0.0418  0.1010 -0.0473
31994OCT     C163987  12.646  16.678   6.891  0.1800 -0.1181  0.3081
31994OCT     C263988  12.714  16.357   6.563 -0.0551  0.1985 -0.1062
31995OCT     C163989  22.938  15.444  15.193 -0.0334 -0.4686 -0.0863
31995OCT     C263990  23.229  15.192  15.444  0.0357  0.2244  0.1854
31996OCT     C163991  12.533  13.856  11.453  0.3244  0.2354  0.0822
31996OCT     C263992  12.679  13.517  11.159 -0.1612 -0.1891  0.3789
31997OCT     C163993  13.496   9.507   8.627 -0.3653  0.2335 -0.2457
31997OCT     C263994  13.280   9.093   8.757  0.0170 -0.1440 -0.0960
31998OCT     C163995  21.529   0.037   6.329 -0.1373 -0.1021 -0.2000
31998OCT     C263996  21.278   0.422   6.313 -0.1516 -0.0861 -0.1495
31999OCT     C163997   0.028  12.448   8.786 -0.3039  0.3306  0.2999
31999OCT     C263998   0.404  12.161   8.664  0.0505 -0.0189  0.3762
32000OCT     C163999   0.337  17.840   3.457  0.0411 -0.1080  0.0059
32000OCT     C264000  23.739  17.597   3.288 -0.0807  0.1504 -0.0507
32001OCT     C164001   3.247  23.707   3.816 -0.2396 -0.3204  0.0911
32001OCT     C264002   3.302  23.438   3.449 -0.2201 -0.0184 -0.0853
32002OCT     C164003  19.832  17.047  10.370 -0.2720  0.1006  0.0189
32002OCT     C264004  19.718  16.582  10.253 -0.0277 -0.3321 -0.0593
32003OCT     C164005   1.905  15.309   6.000  0.1080  0.2723  0.0051
32003OCT     C264006   1.747  15.703   6.127  0.0704  0.3838  0.1006
32004OCT     C164007  18.798   8.655  17.281  0.2646 -0.0743  0.2588
32004OCT     C264008  19.262   8.561  17.197 -0.1949 -0.0709  0.1962
32005OCT     C164009  11.950  13.764   0.800  0.2359  0.0987 -0.0218
32005OCT     C264010  12.147  13.903   0.376  0.1664  0.1334 -0.2139
32006OCT     C164011  13.335   8.729   5.092  0.2155  0.0967 -0.0694
32006OCT     C264012  13.522   8.501   5.422  0.1550  0.1103  0.2256
32007OCT     C164013   5.794  18.555   4.568 -0.0394  0.1340 -0.2248
32007OCT     C264014   5.629  18.982   4.601  0.1006  0.2027 -0.2644
32008OCT     C164015   6.336  22.866   1.926  0.1908 -0.1551  0.0262
32008OCT     C264016   6.778  22.667   1.857 -0.1828  0.2312 -0.3358
32009OCT     C164017   8.947   4.133  16.797 -0.0028  0.0748 -0.0205
32009OCT     C264018   8.550   4.343  17.059  0.0628 -0.3505  0.2427
32010OCT     C164019   9.924   8.551  23.414 -0.0373  0.0531 -0.3022
32010OCT     C264020   9.553   8.341  23.595  0.0267  0.2549  0.1760
32011OCT     C164021  23.025  16.450   2.873 -0.0772  0.4511 -0.0424
32011OCT     C264022  22.970  16.034   2.594  0.2414  0.0916 -0.1404
32012OCT     C164023  11.673  23.264  17.625  0.1494 -0.0702 -0.1040
32012OCT     C264024  11.917  23.079  17.971 -0.0057  0.0082  0.3393
32013OCT     C164025  13.119  22.672   2.537 -0.0720 -0.2217 -0.1756
32013OCT     C264026  13.585  22.556   2.470  0.1002 -0.0843 -0.1216
32014OCT     C164027  19.046  19.694   1.663  0.0008  0.0975  0.4445
32014OCT     C264028  18.650  19.904   1.760 -0.2305  0.1021  0.2370
32015OCT     C164029   6.513  14.001   4.966  0.1564  0.4534 -0.0283
32015OCT     C264030   6.133  13.866   4.693 -0.0169  0.2755  0.0762
32016OCT     C164031   7.718  23.332  22.456  0.0420 -0.1748  0.2649
32016OCT     C264032   7.664  22.903  22.643 -0.3804  0.1761  0.0407
32017OCT     C164033  17.005  10.929  10.504  0.0528 -0.2377 -0.1875
32017OCT     C264034  16.536  11.039  10.544  0.2143 -0.1583  0.2109
32018OCT     C164035   3.752  11.287   5.839 -0.3157  0.2202  0.1379
32018OCT     C264036   3.335  11.139   5.694  0.2428 -0.0622 -0.0076
32019OCT     C164037  14.083   8.217  20.556  0.0311 -0.3890  0.1256
32019OCT     C264038  13.968   8.666  20.596 -0.1304 -0.2839  0.1779
32020OCT     C164039  15.047  14.031   3.978  0.1979  0.0191 -0.0221
32020OCT     C264040  14.740  14.278   3.683 -0.0024  0.0240 -0.0777
32021OCT     C164041  11.818  15.202   2.615 -0.0905  0.1090 -0.0832
32021OCT     C264042  12.140  15.535   2.558 -0.0562 -0.2185  0.2817
32022OCT     C164043   9.383  15.046  17.608  0.1097  0.3378  0.2597
32022OCT     C264044   9.186  15.261  17.962 -0.1682 -0.2153 -0.0142
32023OCT     C164045  13.513  22.424   6.302 -0.1258  0.3785  0.0353
32023OCT     C264046  13.717  22.730   6.013 -0.1481 -0.0515 -0.2998
32024OCT     C164047   3.437  15.706   6.526 -0.1050  0.2573  0.4447
32024OCT     C264048   2.922  15.700   6.364  0.0111  0.0502 -0.1715
32025OCT     C164049   0.830  21.590  22.996 -0.0082  0.1861  0.4025
32025OCT     C264050   0.817  21.393  22.550  0.0398  0.2737 -0.4880
32026OCT     C164051  20.696   1.269  16.037  0.1763  0.5811 -0.0800
32026OCT     C264052  20.501   1.627  16.192 -0.1282 -0.2746 -0.1411
32027OCT     C164053   7.142  23.199  19.282 -0.7030  0.3712  0.0902
32027OCT     C264054   6.646  23.101  19.202  0.3850 -0.3240 -0.1680
32028OCT     C164055   4.802   4.500   3.386  0.0290  0.0091 -0.1093
32028OCT     C264056   4.797   4.929   3.267  0.2098  0.1707 -0.0084
32029OCT     C164057  13.005   9.266   1.477  0.3861  0.1852 -0.2713
32029OCT     C264058  13.178   9.134   1.919  0.0904 -0.0524  0.1354
32030OCT     C164059  13.089   1.419   2.231 -0.4827 -0.0579 -0.1428
32030OCT     C264060  13.431   1.463   1.915  0.2254 -0.0054  0.1567
32031OCT     C164061  15.295  22.021   1.464 -0.4212  0.3583 -0.4059
32031OCT     C264062  15.307  21.557   1.584 -0.4707  0.1872 -0.1217
32032OCT     C164063  21.869  15.563  23.473 -0.2153 -0.1536 -0.3134
32032OCT     C264064  21.874  15.578  23.009  0.1375 -0.0255 -0.1194
32033OCT     C164065  13.763  15.495   6.058  0.6915  0.0053 -0.4644
32033OCT     C264066  14.046  15.696   5.793 -0.0211  0.1199 -0.0847
32034OCT     C164067  13.005  19.154   9.627  0.1350  0.4993  0.3333
32034OCT     C264068  13.036  19.109  10.053 -0.1773 -0.0988  0.2054
32035OCT     C164069  12.078   0.187  10.017 -0.0460 -0.1545  0.3102
32035OCT     C264070  12.012  23.641  10.415 -0.0303  0.0529  0.2411
32036OCT     C164071  22.033  16.541   1.574  0.1808  0.0235 -0.0663
32036OCT     C264072  22.053  16.934   1.814  0.1841 -0.0716  0.1751
32037OCT     C164073  13.933   6.467  11.586  0.0053 -0.1468  0.5347
32037OCT     C264074  13.841   6.843  11.795 -0.0761 -0.0684  0.1497
32038OCT     C164075  20.868  14.866  16.565  0.0115 -0.2439 -0.2703
32038OCT     C264076  20.561  14.555  16.347  0.2097 -0.2333 -0.0479
32039OCT     C164077   4.536  13.222  11.832 -0.2644  0.1511 -0.4145
32039OCT     C264078   4.734  12.762  11.986  0.1084 -0.1233  0.1048
32040OCT     C164079   1.555  10.378  10.921 -0.0932  0.1966  0.0763
32040OCT     C264080   1.209  10.159  10.676 -0.1433 -0.3267 -0.3292
32041OCT     C164081   2.999  10.429  21.622  0.1188 -0.2424 -0.1140
32041OCT     C264082   2.855  10.632  21.199  0.0099  0.1678  0.0613
32042OCT     C164083   0.806   4.783  15.542 -0.0296  0.0933  0.3873
32042OCT     C264084   0.792   4.328  15.435  0.0361  0.4252 -0.1853
32043OCT     C164085  16.228  21.934  12.737 -0.0577  0.0394  0.4290
32043OCT     C264086  16.613  22.242  12.655  0.1223 -0.0623 -0.2787
32044OCT     C164087   0.946   7.642   8.591 -0.0131  0.2903  0.1945
32044OCT     C264088   1.379   7.747   8.617  0.0855 -0.1317  0.2692
32045OCT     C164089  20.828  21.239   1.096 -0.4279  0.1310 -0.3102
32045OCT     C264090  20.759  21.673   0.939 -0.1285  0.4022  0.0296
32046OCT     C164091   7.352   9.080   8.999 -0.0212  0.1087 -0.1910
32046OCT     C264092   7.400   8.649   9.055 -0.2323  0.1376 -0.0073
32047OCT     C164093  21.370   6.068  10.177  0.4108  0.0903 -0.1642
32047OCT     C264094  21.190   6.502   9.997 -0.2731 -0.0315 -0.1481
32048OCT     C164095  20.302   4.167  15.171 -0.1904  0.0481  0.0320
32048OCT     C264096  19.957   3.917  14.926  0.3011 -0.2434  0.0044
32049OCT     C164097  11.305   8.437  19.319  0.2564  0.1355  0.1660
32049OCT     C264098  11.093   8.822  19.480  0.1062  0.0492  0.2837
32050OCT     C164099   9.671   5.837   5.566  0.0916  0.1309 -0.3271
32050OCT     C264100   9.239   5.623   5.460  0.4714 -0.0414  0.0078
32051OCT     C164101   3.622  11.136  18.876  0.1920 -0.3726 -0.1775
32051OCT     C264102   3.773  11.080  19.326 -0.1673 -0.3078  0.0513
32052OCT     C164103  15.060  22.915  18.018 -0.1043 -0.3937 -0.3437
32052OCT     C264104  15.072  23.221  17.666  0.1623 -0.0355 -0.2786
32053OCT     C164105   0.603   3.537  17.899  0.0905 -0.0284 -0.4331
32053OCT     C264106   0.357   3.909  18.107 -0.4399  0.3712  0.1002
32054OCT     C164107  10.047  22.415   8.035  0.2298  0.0639 -0.0782
32054OCT     C264108  10.457  22.647   7.998 -0.2567  0.1003  0.2104
32055OCT     C164109   2.967  18.397  15.944 -0.3267  0.0691  0.0304
32055OCT     C264110   2.973  18.129  15.557 -0.0141  0.0556  0.0343
32056OCT     C164111  10.175  18.551   7.239  0.0140  0.0404  0.1775
32056OCT     C264112  10.573  18.440   6.983  0.1134 -0.1064 -0.3581
32057OCT     C164113  20.963  20.049   6.478  0.2276 -0.2363 -0.0895
32057OCT     C264114  20.929  20.507   6.650  0.0540  0.2252  0.0159
32058OCT     C164115  21.153  22.899  13.357  0.2395  0.1292  0.1763
32058OCT     C264116  21.056  22.913  13.775  0.1818  0.0250 -0.3160
32059OCT     C164117  10.595   7.917   6.626  0.0298  0.2061  0.0210
32059OCT     C264118  10.375   7.925   6.204 -0.1477  0.1276 -0.1924
32060OCT     C164119   6.428  13.141  23.433 -0.1233 -0.1100  0.4493
32060OCT     C264120   6.581  13.561  23.524  0.1423 -0.2650  0.3060
32061OCT     C164121  16.282  12.441   0.077 -0.3608 -0.1367  0.0404
32061OCT     C264122  16.363  12.202   0.458  0.4264 -0.0637 -0.0225
32062OCT     C164123  10.253  15.680   5.272  0.0650  0.0512 -0.0956
32062OCT     C264124  10.120  15.978   5.510  0.0417  0.1005 -0.0724
32063OCT     C164125   7.211  16.083  10.542 -0.0142 -0.3022  0.3110
32063OCT     C264126   7.183  16.494  10.236  0.0296  0.1036 -0.5839
32064OCT     C164127  11.146  13.330  12.377  0.6197 -0.0061 -0.2841
32064OCT     C264128  10.789  13.061  12.381 -0.0157  0.0384  0.0960
32065OCT     C164129   3.612   1.924   3.583  0.1970 -0.3463  0.4809
32065OCT     C264130   3.756   1.831   3.972 -0.0007  0.3703 -0.2365
32066OCT     C164131  16.096   6.686  15.085 -0.4855  0.0857  0.1373
32066OCT     C264132  16.367   6.961  15.427 -0.1651  0.2911 -0.0599
32067OCT     C164133   2.950  10.007   7.388  0.4711 -0.1834 -0.1428
32067OCT     C264134   3.371   9.871   7.317 -0.4452 -0.1411 -0.1433
32068OCT     C164135   7.893   6.359   7.637 -0.1185 -0.0639 -0.2340
32068OCT     C264136   7.869   5.902   7.629 -0.0319 -0.2197 -0.2847
32069OCT     C164137   3.599   1.498  23.265  0.3636  0.0707 -0.1802
32069OCT     C264138   3.965   1.344  23.551 -0.2116 -0.2481  0.1161
32070OCT     C164139  20.912   3.272  15.963  0.2365  0.1100  0.0720
32070OCT     C264140  20.686   3.371  15.581  0.0898  0.2006  0.0425
32071OCT     C164141  16.891  19.680  21.642  0.4184 -0.2319  0.1281
32071OCT     C264142  17.016  19.995  22.035  0.1696 -0.2417  0.1580
32072OCT     C164143  23.324  17.618   8.825  0.1695  0.0618  0.1204
32072OCT     C264144  23.265  17.529   8.321 -0.0714 -0.1990 -0.0798
32073OCT     C164145  13.704   6.459   7.580  0.2861  0.0887 -0.0058
32073OCT     C264146  13.655   6.309   7.141  0.0980  0.0489 -0.0216
32074OCT     C164147   6.442  21.653   5.128 -0.1939  0.0474 -0.4840
32074OCT     C264148   6.516  21.920   4.749  0.0568 -0.3066  0.2825
32075OCT     C164149  12.778  16.766  18.215 -0.1305 -0.0193  0.1724
32075OCT     C264150  13.058  16.915  17.863 -0.2005  0.0455  0.0112
32076OCT     C164151   8.250  21.722  14.817  0.0250  0.0367 -0.2026
32076OCT     C264152   7.951  22.060  14.731  0.0685 -0.2021  0.1393
32077OCT     C164153   6.572  19.262   6.338 -0.2204  0.0622  0.1091
32077OCT     C264154   6.352  18.891   6.458 -0.1391 -0.1512  0.2470
32078OCT     C164155  16.982   0.344  12.781  0.0202  0.2462 -0.7086
32078OCT     C264156  16.985   0.647  13.174 -0.2604 -0.2695  0.2386
32079OCT     C164157  17.278   5.052   6.783  0.1089 -0.1564 -0.0787
32079OCT     C264158  16.833   5.206   6.945 -0.0858 -0.1467 -0.0899
32080OCT     C164159  21.032  14.699   2.287  0.0676 -0.2179  0.4535
32080OCT     C264160  20.718  14.770   2.627 -0.1802 -0.0585 -0.0127
32081OCT     C164161  21.756  21.404  16.277  0.0641  0.0369 -0.3589
32081OCT     C264162  21.942  21.779  16.495 -0.0028 -0.0623 -0.1547
32082OCT     C164163  20.182  19.874   2.053 -0.0476  0.1014 -0.2315
32082OCT     C264164  19.857  20.199   2.068 -0.0673 -0.4673  0.1143
32083OCT     C164165   0.250  12.775   8.330 -0.6568  0.1742 -0.3714
32083OCT     C264166   0.115  13.129   8.065  0.1529 -0.1561  0.0268
32084OCT     C164167   5.917  23.270   9.187 -0.2730 -0.1622 -0.2571
32084OCT     C264168   6.047  23.377   9.597  0.0500 -0.0970  0.2798
32085OCT     C164169   8.472  20.082  22.219  0.5278 -0.1353 -0.3274
32085OCT     C264170   8.582  20.057  21.757  0.1543  0.2633 -0.0177
32086OCT     C164171   2.124  21.454  22.944  0.5226  0.1173 -0.0897
32086OCT     C264172   1.689  21.643  22.756  0.0530  0.4121 -0.3453
32087OCT     C164173  14.793  10.640  15.878  0.1914  0.1558 -0.2202
32087OCT     C264174  14.868  11.086  15.914  0.0524 -0.1759 -0.0619
32088OCT     C164175   5.765  14.030   8.998  0.3670  0.0851 -0.0736
32088OCT     C264176   5.971  13.770   8.773  0.3073  0.1389  0.1005
32089OCT     C164177   7.862  19.153  23.105 -0.0606  0.2963  0.1681
32089OCT     C264178   8.320  19.050  23.165 -0.0296  0.0425  0.4764
32090OCT     C164179  12.732  13.664  10.049 -0.1196 -0.4024  0.1829
32090OCT     C264180  12.893  14.075  10.137 -0.1096 -0.1813  0.2202
32091OCT     C164181  17.531  19.034   2.493 -0.0214 -0.0970  0.2509
32091OCT     C264182  18.047  19.055   2.400  0.0603  0.0646  0.3563
32092OCT     C164183   0.261   4.588   1.294  0.2784  0.1809  0.0585
32092OCT     C264184   0.059   4.290   1.588 -0.0166 -0.1573 -0.5962
32093OCT     C164185  18.005   8.936   6.574  0.1302  0.0984 -0.2910
32093OCT     C264186  17.772   9.295   6.687  0.0688  0.3715  0.0907
32094OCT     C164187  14.246  19.189   9.320 -0.0438 -0.1277 -0.3530
32094OCT     C264188  14.292  18.860   9.022 -0.0191 -0.4346 -0.1821
32095OCT     C164189  14.281  17.243   9.865  0.3446 -0.1170  0.1440
32095OCT     C264190  14.087  16.857  10.033 -0.0933 -0.3191 -0.1140
32096OCT     C164191   1.346  17.297   1.012 -0.0122 -0.1858  0.1397
32096OCT     C264192   1.255  16.839   0.863  0.3298  0.4684  0.1849
32097OCT     C164193   8.164  19.703   3.443  0.1617  0.1319 -0.5674
32097OCT     C264194   7.724  19.916   3.539 -0.2098  0.1782 -0.0095
32098OCT     C164195  15.832   5.439  14.081  0.0218  0.1937 -0.0181
32098OCT     C264196  16.279   5.344  13.802  0.0960  0.0332 -0.0492
32099OCT     C164197   1.374   9.622  18.673 -0.1822  0.2606  0.2108
32099OCT     C264198   1.069   9.483  18.993 -0.2191 -0.0598  0.3415
32100OCT     C164199  14.851   3.280   9.764  0.1528  0.2203 -0.3981
32100OCT     C264200  14.531   2.921   9.838 -0.0798 -0.0757 -0.0968
32101OCT     C164201  14.024   7.974  21.093 -0.1891 -0.0313  0.2253
32101OCT     C264202  14.236   7.561  21.010  0.2242 -0.1378  0.1526
32102OCT     C164203  14.817  11.986  10.752  0.1267 -0.0468 -0.0775
32102OCT     C264204  15.127  11.991  10.408 -0.2283 -0.1979 -0.3822
32103OCT     C164205   0.289  12.614  20.848 -0.0635  0.1447 -0.0363
32103OCT     C264206   0.291  12.353  21.239 -0.0197  0.1717  0.1218
32104OCT     C164207   5.044   4.298  16.289  0.0015  0.2510  0.0394
32104OCT     C264208   4.647   4.518  16.458  0.1858 -0.1594  0.0564
32105OCT     C164209  20.767  10.649  11.430 -0.4815 -0.0652 -0.0292
32105OCT     C264210  20.799  11.059  11.687  0.0466  0.4217 -0.2822
32106OCT     C164211   1.750  13.972  10.930  0.2426 -0.3990  0.2549
32106OCT     C264212   2.003  14.223  11.229 -0.1303 -0.0413  0.2034
32107OCT     C164213   9.252   7.145   4.208  0.0502  0.0172  0.0050
32107OCT     C264214   9.030   7.404   4.493  0.0966  0.0491 -0.0669
32108OCT     C164215  11.572   3.200  15.039 -0.3432 -0.2557 -0.0720
32108OCT     C264216  11.403   3.577  14.829  0.2106 -0.0255 -0.0602
32109OCT     C164217  13.833  11.429  21.405  0.1522 -0.4999  0.4526
32109OCT     C264218  13.978  11.792  21.676  0.2832 -0.1374  0.0655
32110OCT     C164219   3.885  22.408   5.214  0.3101  0.2043 -0.1477
32110OCT     C264220   3.393  22.425   5.271  0.1271  0.0745  0.1956
32111OCT     C164221   0.182  11.123   5.481  0.3562  0.0306 -0.2024
32111OCT     C264222   0.145  10.764   5.198 -0.0148 -0.1619  0.1322
32112OCT     C164223   3.016  15.327  15.904  0.1333 -0.1758  0.0764
32112OCT     C264224   2.995  15.669  16.212  0.1592  0.1902 -0.2534
32113OCT     C164225   0.570   0.210  10.018 -0.3206 -0.0150  0.1101
32113OCT     C264226   0.757   0.379   9.618  0.1507  0.0314  0.4233
32114OCT     C164227  16.667  19.259   6.181  0.0346 -0.2378  0.0607
32114OCT     C264228  16.938  19.609   6.412  0.1836 -0.0352 -0.0683
32115OCT     C164229  23.725  12.382   6.156  0.1193 -0.2911 -0.2173
32115OCT     C264230  23.506  11.962   6.137  0.0719  0.2199 -0.0270
32116OCT     C164231   7.595   6.524   2.114  0.1288 -0.1357  0.0597
32116OCT     C264232   7.758   6.901   1.951 -0.1704  0.3104 -0.2017
32117OCT     C164233  19.027   8.000  18.461  0.0894 -0.0069 -0.4465
32117OCT     C264234  18.602   7.931  18.321  0.1412  0.0603  0.2413
32118OCT     C164235   7.252  11.833  20.947 -0.0582  0.1912 -0.2684
32118OCT     C264236   7.721  11.923  20.866 -0.2282  0.1325 -0.0239
32119OCT     C164237   9.209  17.655   9.095 -0.2295  0.2275 -0.1275
32119OCT     C264238   9.682  17.690   9.184 -0.2605  0.0822 -0.1284
32120OCT     C164239  15.117  16.559  10.860 -0.2775 -0.0138 -0.1603
32120OCT     C264240  14.693  16.516  10.934  0.0447 -0.0208 -0.3284
32121OCT     C164241   1.250  17.458   4.557  0.0085  0.1338  0.2128
32121OCT     C264242   1.279  17.172   4.152 -0.2239 -0.0172 -0.1829
32122OCT     C164243  15.802   6.979   9.479  0.8688 -0.2042  0.1039
32122OCT     C264244  15.528   7.360   9.245  0.0274 -0.0021  0.3962
32123OCT     C164245   5.452   7.664  20.204  0.2122 -0.0533  0.0217
32123OCT     C264246   5.131   7.848  20.501  0.1664 -0.1150 -0.2370
32124OCT     C164247  17.518   4.439  21.718 -0.0478  0.3553  0.0752
32124OCT     C264248  17.027   4.463  21.866 -0.2294  0.2701 -0.0778
32125OCT     C164249  16.561  17.395  12.224  0.0931  0.0544 -0.1461
32125OCT     C264250  16.656  17.063  12.529 -0.0312 -0.4758 -0.1034
32126OCT     C164251  13.648  20.980   4.771 -0.0880 -0.2555 -0.0978
32126OCT     C264252  13.691  21.042   4.287 -0.0054 -0.1082 -0.0166
32127OCT     C164253  21.632   3.217   4.521  0.2598  0.0930  0.5398
32127OCT     C264254  21.654   3.650   4.361  0.2762  0.0229  0.0269
32128OCT     C164255  19.315  22.454   4.077 -0.2568  0.2870 -0.3749
32128OCT     C264256  19.388  22.219   3.653 -0.1427 -0.0051  0.0250
32129OCT     C164257   0.770   6.929   5.359  0.1442  0.1652 -0.2235
32129OCT     C264258   0.391   6.687   5.496 -0.0594  0.2129  0.3358
32130OCT     C164259   6.513  12.651  21.718 -0.0813 -0.3568  0.0173
32130OCT     C264260   6.190  12.966  21.469  0.2005 -0.0096 -0.0560
32131OCT     C164261  11.463  12.867  15.944 -0.2400 -0.0491 -0.2360
32131OCT     C264262  11.710  12.831  16.334  0.1531  0.2579 -0.2303
32132OCT     C164263  19.297   2.209  16.583  0.2318 -0.1486 -0.1561
32132OCT     C264264  18.840   2.146  16.631  0.1986 -0.0742 -0.0125
32133OCT     C164265   7.098   1.247  19.295 -0.2095  0.0091  0.3720
32133OCT     C264266   7.132   1.468  19.739 -0.1565  0.0031  0.3840
32134OCT     C164267  19.009  19.772  18.017 -0.1732  0.0993  0.1059
32134OCT     C264268  19.159  19.773  17.558  0.0636 -0.0570  0.0119
32135OCT     C164269  22.190  18.381   8.669 -0.1452 -0.1056 -0.3860
32135OCT     C264270  22.598  18.583   8.667 -0.0494  0.0310  0.2975
32136OCT     C164271   5.727  11.946  20.060 -0.3264 -0.0190  0.3669
32136OCT     C264272   5.678  12.452  20.187  0.4335 -0.2349 -0.3369
32137OCT     C164273   9.874   2.049   7.937  0.0824  0.2912  0.1184
32137OCT     C264274   9.555   1.703   7.712 -0.1047  0.0492 -0.3718
32138OCT     C164275  11.441   5.106  17.797  0.2086  0.0130 -0.0709
32138OCT     C264276  11.846   4.932  17.674  0.1705 -0.4058 -0.1511
32139OCT     C164277   7.199  11.231   7.754 -0.3161  0.1284 -0.1890
32139OCT     C264278   7.357  11.650   7.701  0.1572  0.3535  0.1734
32140OCT     C164279  17.577  21.880  12.528 -0.0418 -0.3014 -0.1438
32140OCT     C264280  17.599  22.312  12.778 -0.1964  0.0324 -0.2345
32141OCT     C164281   0.546  17.344  22.728  0.3752  0.0651 -0.3170
32141OCT     C264282   0.171  17.045  22.832 -0.2101  0.3036  0.1888
32142OCT     C164283  15.929  17.052  11.798 -0.0365  0.0721  0.0647
32142OCT     C264284  16.048  17.423  12.051 -0.2494  0.0060 -0.0849
32143OCT     C164285  11.683   6.462   4.911  0.0012 -0.4212 -0.0254
32143OCT     C264286  12.048   6.221   4.688  0.0828  0.0239  0.1419
32144OCT     C164287  18.059  21.492   8.339  0.1979  0.3129 -0.0386
32144OCT     C264288  17.844  21.597   7.903  0.0808  0.0092  0.0437
32145OCT     C164289   2.754   7.708   9.888  0.0350  0.0604 -0.1145
32145OCT     C264290   2.489   8.011   9.664  0.2517  0.0517 -0.1227
32146OCT     C164291   8.817  19.676  17.880  0.2000  0.5488  0.1118
32146OCT     C264292   8.629  19.804  18.302 -0.0848 -0.1341 -0.0758
32147OCT     C164293  12.145  10.851  19.667  0.1466 -0.4434 -0.0699
32147OCT     C264294  12.551  10.930  19.936  0.3280 -0.2793  0.1845
32148OCT     C164295  12.267  13.435  15.832 -0.1504 -0.2404 -0.1247
32148OCT     C264296  11.854  13.673  15.931  0.3269 -0.1429  0.0073
32149OCT     C164297   3.073   3.817  14.592  0.1624 -0.1886  0.0716
32149OCT     C264298   2.967   3.657  15.034 -0.1356  0.2487 -0.1632
32150OCT     C164299  14.160  19.712   9.106  0.0789 -0.0004 -0.2188
32150OCT     C264300  14.017  20.077   8.862 -0.0306  0.1429 -0.5131
32151OCT     C164301  23.492  22.457   1.271  0.0234  0.1698  0.0972
32151OCT     C264302  23.255  22.314   0.931 -0.2593  0.0867  0.1318
32152OCT     C164303  12.928   0.249  22.696  0.1439  0.1827 -0.0911
32152OCT     C264304  13.207  23.639  22.844  0.2278 -0.0730 -0.2021
32153OCT     C164305  21.935  13.144   9.781  0.0515 -0.2168 -0.1980
32153OCT     C264306  22.136  13.190  10.222 -0.1623  0.0679  0.1514
32154OCT     C164307   0.547   5.430  19.571 -0.4315  0.2005 -0.3156
32154OCT     C264308   0.462   5.747  19.955  0.0193  0.0395  0.1403
32155OCT     C164309  16.230   3.123   4.956  0.1624 -0.1392 -0.0689
32155OCT     C264310  15.806   3.270   4.800 -0.0764 -0.1286 -0.0706
32156OCT     C164311  11.689  13.587  16.367  0.1237 -0.2858  0.0679
32156OCT     C264312  12.027  13.819  16.689 -0.3088 -0.0443  0.0328
32157OCT     C164313   5.553  12.446  17.716 -0.2067  0.2218  0.0158
32157OCT     C264314   5.814  12.497  17.343  0.3067  0.1992  0.4405
32158OCT     C164315   9.125  13.243  13.199  0.1265 -0.2983  0.0548
32158OCT     C264316   9.369  13.508  13.506  0.0984 -0.1681  0.4413
32159OCT     C164317  16.323   4.700   4.735  0.3843  0.0243 -0.1047
32159OCT     C264318  16.178   4.934   4.394  0.0134  0.3212  0.0526
32160OCT     C164319  12.076   9.553   4.293 -0.2927  0.1908 -0.1241
32160OCT     C264320  12.467   9.731   4.231  0.0293  0.0747  0.3048
32161OCT     C164321   6.751  10.116  18.979 -0.0684  0.1706  0.2012
32161OCT     C264322   6.362  10.285  18.791  0.2203 -0.0664  0.0699
32162OCT     C164323   3.245   6.579  23.264  0.1063 -0.0041  0.1318
32162OCT     C264324   3.306   6.150  23.444 -0.0186  0.0690  0.0821
32163OCT     C164325  18.421  10.249  15.358 -0.0892 -0.1041 -0.1043
32163OCT     C264326  18.479  10.563  15.711 -0.1737 -0.1258 -0.1377
32164OCT     C164327   1.697  19.773  18.229 -0.0483  0.0070 -0.0616
32164OCT     C264328   1.983  19.812  18.594 -0.0160  0.1127  0.1877
32165OCT     C164329   8.404  14.611   5.439  0.1895  0.0760  0.2258
32165OCT     C264330   8.343  15.031   5.386 -0.1742 -0.1151 -0.2733
32166OCT     C164331  16.890  16.525  15.988 -0.1607  0.2907 -0.2185
32166OCT     C264332  16.905  16.586  16.414  0.2413 -0.0002 -0.1745
32167OCT     C164333  21.724   3.443   2.578  0.0298 -0.4147  0.2835
32167OCT     C264334  21.680   3.453   2.115 -0.1778  0.3545  0.0762
32168OCT     C164335  16.742   4.121  23.052  0.0700 -0.0949 -0.2488
32168OCT     C264336  16.562   3.923  23.421  0.0824 -0.0819  0.1952
32169OCT     C164337   1.568   0.350  14.860 -0.3688  0.0192 -0.3963
32169OCT     C264338   1.876   0.145  15.190 -0.2327  0.0414 -0.1000
32170OCT     C164339  22.683   0.284   8.882  0.4112 -0.1170  0.1772
32170OCT     C264340  22.818   0.460   9.272 -0.3313 -0.0772  0.0183
32171OCT     C164341  16.349  20.296  21.098 -0.2212 -0.1038 -0.0183
32171OCT     C264342  16.091  20.634  21.091  0.5532 -0.2022  0.2053
32172OCT     C164343  13.644  16.981   2.535  0.3275 -0.4233 -0.2640
32172OCT     C264344  13.991  17.289   2.487  0.0975 -0.0181  0.5095
32173OCT     C164345  18.581  16.177   1.795  0.0087  0.0690 -0.3107
32173OCT     C264346  18.147  16.411   1.922 -0.1495 -0.0322 -0.1403
32174OCT     C164347   4.092  11.423  21.254 -0.2551 -0.2391  0.0905
32174OCT     C264348   3.826  11.048  21.113 -0.2207 -0.2135  0.0390
32175OCT     C164349  23.194  21.808  15.833  0.0934  0.0884 -0.1980
32175OCT     C264350  22.959  21.534  15.500 -0.0114  0.2509 -0.1699
32176OCT     C164351  12.712  14.381  15.673  0.4228  0.0347 -0.2428
32176OCT     C264352  12.820  14.735  15.390  0.1583  0.3465  0.1479
32177OCT     C164353   9.548  10.100  16.002  0.0106 -0.1545  0.0763
32177OCT     C264354  10.005  10.055  15.981  0.1918  0.5158 -0.0525
32178OCT     C164355   5.192   5.301   9.799  0.4932 -0.2173  0.2861
32178OCT     C264356   5.085   5.538  10.184 -0.0001 -0.1642  0.1063
32179OCT     C164357  18.970   8.841   0.930 -0.0692 -0.3090 -0.1925
32179OCT     C264358  19.216   8.654   1.258 -0.3833 -0.0491 -0.0116
32180OCT     C164359  10.734   9.926  21.933 -0.4053 -0.0380 -0.2012
32180OCT     C264360  10.488  10.278  22.028 -0.2109 -0.1539 -0.0217
32181OCT     C164361   0.282  11.013   2.804 -0.1911  0.3581 -0.1400
32181OCT     C264362   0.161  10.809   3.212 -0.0130 -0.2391 -0.0158
32182OCT     C164363   0.923   7.621   7.445  0.2870  0.2830  0.0055
32182OCT     C264364   1.213   7.432   7.130  0.1144  0.0831 -0.1167
32183OCT     C164365  12.449   7.468  18.314 -0.0119  0.1341  0.0443
32183OCT     C264366  12.507   7.001  18.504 -0.2151 -0.2170  0.3223
32184OCT     C164367  12.512  23.400  14.561  0.1996  0.3082  0.2934
32184OCT     C264368  12.578  22.967  14.736  0.0389  0.2799  0.1730
32185OCT     C164369  13.478   0.190   8.335 -0.2545  0.4848  0.1862
32185OCT     C264370  13.270   0.525   8.637 -0.0676  0.2984  0.1349
32186OCT     C164371  20.658   1.466  13.138  0.2578  0.3363 -0.3628
32186OCT     C264372  21.088   1.331  13.332  0.0897  0.1309  0.1165
32187OCT     C164373  19.932  16.598   8.961 -0.0094 -0.0333  0.0831
32187OCT     C264374  19.705  16.915   8.865  0.0033 -0.1991 -0.0500
32188OCT     C164375   1.799  21.449  11.470  0.0253 -0.2670 -0.1052
32188OCT     C264376   1.584  21.079  11.334  0.1039 -0.1342  0.2290
32189OCT     C164377   4.929   2.716  23.144  0.0503  0.2657  0.0769
32189OCT     C264378   4.987   2.736  22.680  0.3206 -0.2323  0.0064
32190OCT     C164379   6.478  16.502  14.822  0.0122  0.1764 -0.2395
32190OCT     C264380   6.867  16.465  15.084 -0.0948 -0.0191 -0.1355
32191OCT     C164381  22.885  15.837  23.289  0.2783  0.1490  0.0547
32191OCT     C264382  23.252  15.511  23.330  0.2960 -0.1849 -0.1729
32192OCT     C164383  22.134  22.455  20.583  0.3156 -0.0375 -0.0891
32192OCT     C264384  22.267  22.444  21.069 -0.0951 -0.2992  0.0836
32193OCT     C164385   3.566   6.054   0.092  0.3332  0.0911  0.0205
32193OCT     C264386   3.200   6.029   0.376  0.1634 -0.3163 -0.2895
32194OCT     C164387   7.146   2.386  20.586  0.1693 -0.0419  0.0403
32194OCT     C264388   7.477   2.448  20.886  0.0130  0.1488  0.0074
32195OCT     C164389   0.053  14.885  11.110  0.1746 -0.0795 -0.0826
32195OCT     C264390  23.430  14.649  11.333  0.1455 -0.0020  0.0917
32196OCT     C164391  14.246   5.362  15.556 -0.3099  0.1133 -0.2202
32196OCT     C264392  14.459   4.917  15.511  0.1742 -0.2548  0.1526
32197OCT     C164393  20.790  11.603   3.344  0.2739  0.0974  0.0693
32197OCT     C264394  20.765  11.275   3.046  0.4021 -0.0552 -0.1549
32198OCT     C164395   1.575   4.726  17.133 -0.0003 -0.3172 -0.1214
32198OCT     C264396   2.009   4.657  17.292  0.0611  0.0073  0.1242
32199OCT     C164397   8.770  15.081   8.251  0.1367 -0.0903  0.1863
32199OCT     C264398   8.572  15.212   8.660  0.0954  0.3516 -0.0717
32200OCT     C164399  17.952   8.376   9.150 -0.0147  0.0905  0.0279
32200OCT     C264400  17.457   8.385   9.035 -0.2202  0.4499  0.1691
32201OCT     C164401  12.877  13.749   6.714  0.2186  0.3312  0.2767
32201OCT     C264402  13.100  14.139   6.840  0.0120 -0.1700 -0.2651
32202OCT     C164403   1.798  18.103  21.923 -0.1904 -0.1066 -0.1485
32202OCT     C264404   1.870  18.398  22.287 -0.2163 -0.0974  0.0557
32203OCT     C164405   6.394   3.901  15.651  0.0044 -0.2328  0.1902
32203OCT     C264406   6.661   3.589  15.404 -0.0084 -0.0681  0.1132
32204OCT     C164407  14.838   1.878  20.841  0.3486 -0.1556  0.1493
32204OCT     C264408  14.794   2.028  21.262 -0.1917  0.2026  0.0520
32205OCT     C164409  16.995  16.385   1.489  0.5843  0.1485  0.0039
32205OCT     C264410  16.852  15.966   1.554  0.0852 -0.1390 -0.2106
32206OCT     C164411   9.337   7.705   4.855  0.1266  0.1096 -0.2105
32206OCT     C264412   9.478   8.069   5.174  0.0715  0.0436  0.2794
32207OCT     C164413   6.467   9.505   0.363 -0.0867  0.2755  0.2050
32207OCT     C264414   6.629   9.070   0.525  0.0451  0.1376  0.3505
32208OCT     C164415  12.210   0.918   7.977  0.1776  0.2542 -0.0223
32208OCT     C264416  12.625   0.690   8.082 -0.3245  0.0125 -0.3810
32209OCT     C164417   5.068  17.356   3.424  0.3371  0.6054 -0.2703
32209OCT     C264418   5.431  17.087   3.599  0.2493 -0.0365 -0.0896
32210OCT     C164419  12.537   1.866   3.192 -0.0854 -0.1468  0.5089
32210OCT     C264420  12.329   2.014   3.621  0.0810  0.0996  0.1711
32211OCT     C164421  21.105   2.507   9.879 -0.0729  0.0210  0.0357
32211OCT     C264422  21.099   2.934   9.725 -0.2560 -0.1971 -0.2539
32212OCT     C164423   6.070   3.857   1.455 -0.0992 -0.3319 -0.1605
32212OCT     C264424   6.026   3.404   1.546  0.0674  0.2400  0.2963
32213OCT     C164425  21.777  13.821   5.492  0.1168 -0.1365  0.1995
32213OCT     C264426  21.697  13.579   5.057 -0.5742  0.0068  0.0349
32214OCT     C164427   1.960  21.548  16.773 -0.1414  0.0427 -0.3534
32214OCT     C264428   2.358  21.664  16.550 -0.1692  0.1503  0.2947
32215OCT     C164429   1.835   7.632  11.204 -0.1017  0.0809  0.1481
32215OCT     C264430   2.159   7.475  10.866 -0.0284 -0.1062 -0.4023
32216OCT     C164431  17.346  14.017   3.186  0.1272  0.0622 -0.0732
32216OCT     C264432  17.170  13.909   2.728 -0.1853  0.4863  0.0287
32217OCT     C164433  19.100  12.129  22.656 -0.2867 -0.0511  0.1228
32217OCT     C264434  18.967  12.143  23.115  0.1139  0.4720  0.1193
32218OCT     C164435   9.510  22.607  14.500 -0.1147 -0.2594 -0.0238
32218OCT     C264436   9.619  22.205  14.655 -0.1741  0.2667  0.0371
32219OCT     C164437   5.429  18.907   7.921  0.1228  0.1336  0.0327
32219OCT     C264438   5.403  18.424   8.112  0.1998 -0.0326  0.0577
32220OCT     C164439   1.261  19.876   7.039  0.6700  0.2980  0.1353
32220OCT     C264440   1.663  19.897   7.246  0.4604 -0.1915  0.0575
32221OCT     C164441  18.259  15.623  15.772  0.0296 -0.2130 -0.5047
32221OCT     C264442  18.183  15.632  16.229  0.0760 -0.0163  0.3573
32222OCT     C164443  11.940  16.722  20.852 -0.2594  0.3348  0.0921
32222OCT     C264444  12.212  16.854  21.188 -0.0382 -0.0755 -0.1277
32223OCT     C164445   0.750  12.046   0.635 -0.1571  0.3539  0.0515
32223OCT     C264446   1.096  12.276   0.490 -0.0247 -0.1415 -0.1133
32224OCT     C164447   6.031  18.611  21.851  0.0022  0.1390 -0.3882
32224OCT     C264448   5.530  18.612  21.844  0.0470  0.2406 -0.1555
32225OCT     C164449   8.137  20.325   6.233  0.0037 -0.0922  0.1433
32225OCT     C264450   7.833  20.612   6.030  0.0352 -0.1259  0.3036
32226OCT     C164451  14.156   9.682   6.598  0.3540 -0.1610  0.2766
32226OCT     C264452  14.542   9.868   6.772  0.0677 -0.0885  0.0910
32227OCT     C164453  20.693  17.534  21.172  0.0475  0.0253 -0.3396
32227OCT     C264454  20.917  17.848  21.418 -0.2600  0.1414  0.0855
32228OCT     C164455   9.263   4.266  22.365  0.0128  0.0496 -0.1213
32228OCT     C264456   9.117   3.809  22.369 -0.0878  0.2241  0.2360
32229OCT     C164457   4.247   8.688  23.031  0.0288  0.0759 -0.0330
32229OCT     C264458   4.352   8.859  22.581  0.3705  0.4390 -0.0217
32230OCT     C164459  14.773   1.501   8.137  0.1514  0.0104  0.1299
32230OCT     C264460  14.639   1.626   8.595 -0.0884 -0.0514  0.3007
32231OCT     C164461   0.109  16.216   9.576  0.1676 -0.0869 -0.2580
32231OCT     C264462  23.534  16.404   9.864 -0.1416 -0.0929 -0.2495
32232OCT     C164463  10.482   7.237  11.856  0.2274 -0.2102 -0.1835
32232OCT     C264464  10.064   7.002  11.963  0.1561 -0.0734 -0.2175
32233OCT     C164465   9.149   7.496   2.105 -0.1804 -0.2429 -0.0435
32233OCT     C264466   9.451   7.528   1.780 -0.0349 -0.0278 -0.0628
32234OCT     C164467   5.981  11.738  15.054  0.0912  0.0970  0.0345
32234OCT     C264468   5.779  12.116  14.855 -0.0432  0.1282  0.1797
32235OCT     C164469  15.102   7.262  17.134  0.0906  0.1781 -0.0637
32235OCT     C264470  14.797   6.922  17.211  0.1203 -0.1785  0.2854
32236OCT     C164471   0.711  14.681  13.701 -0.1317  0.1829 -0.2748
32236OCT     C264472   0.942  14.673  13.254 -0.0191  0.0494  0.0828
32237OCT     C164473   4.014   7.505  19.783 -0.1075  0.0993  0.5488
32237OCT     C264474   4.070   7.738  19.362  0.1342 -0.0860  0.2471
32238OCT     C164475  14.621  10.532   4.133 -0.1126  0.3543 -0.2243
32238OCT     C264476  14.473  10.219   4.327 -0.0904  0.1314 -0.0079
32239OCT     C164477   2.887  13.756  10.222 -0.0027  0.2511 -0.4102
32239OCT     C264478   2.940  14.112  10.407  0.0997 -0.1615  0.0909
32240OCT     C164479  17.097   1.093  13.861 -0.2902 -0.1678 -0.0177
32240OCT     C264480  17.015   0.591  13.836 -0.0276  0.0852  0.4031
32241OCT     C164481  18.151   3.407   6.262  0.1584 -0.1210 -0.3486
32241OCT     C264482  18.233   2.955   6.137 -0.0054  0.1216 -0.0075
32242OCT     C164483  15.133  23.282   4.551 -0.2176 -0.3290 -0.1089
32242OCT     C264484  15.312  23.360   4.987  0.0711  0.1566  0.1862
32243OCT     C164485  21.958   1.581   9.641  0.2387 -0.2167  0.3973
32243OCT     C264486  22.307   1.648   9.279 -0.3061 -0.2814 -0.0311
32244OCT     C164487  22.988  23.634  10.139  0.2091  0.0203 -0.1111
32244OCT     C264488  23.047   0.356  10.237  0.1497  0.2713  0.1729
32245OCT     C164489  19.841  10.464  10.156  0.0711 -0.2707  0.2300
32245OCT     C264490  20.195  10.396  10.405  0.0791  0.1840  0.3929
32246OCT     C164491   4.080  16.037   4.516  0.1468 -0.1543 -0.0735
32246OCT     C264492   3.818  16.204   4.152 -0.0599  0.0535 -0.4356
32247OCT     C164493  17.321  14.048  23.305 -0.2362 -0.1339 -0.2109
32247OCT     C264494  17.402  13.621  23.596 -0.0251 -0.4046 -0.0129
32248OCT     C164495  16.313   8.656  19.447 -0.0508 -0.3146  0.2586
32248OCT     C264496  16.528   8.548  19.078 -0.1186  0.1211  0.2071
32249OCT     C164497  20.216   4.697   2.789 -0.1731  0.0947  0.1867
32249OCT     C264498  20.238   4.264   2.898 -0.0437  0.0426  0.2611
32250OCT     C164499  12.593   1.551   4.186  0.0465  0.1065 -0.1353
32250OCT     C264500  12.690   1.432   4.633  0.2015 -0.0805 -0.2066
32251OCT     C164501  19.754  10.640  22.060 -0.0510 -0.2499 -0.1960
32251OCT     C264502  19.659  10.202  22.136  0.0733  0.2088  0.1195
32252OCT     C164503   9.847  17.270   3.905 -0.0484  0.0506 -0.4183
32252OCT     C264504   9.940  16.876   3.645 -0.2282 -0.0687 -0.0321
32253OCT     C164505  16.594  22.870  18.329 -0.2088 -0.2681  0.1218
32253OCT     C264506  16.602  22.718  17.843 -0.0966 -0.0322  0.1299
32254OCT     C164507   1.253   8.882   9.882 -0.3511 -0.1146  0.1684
32254OCT     C264508   1.655   9.094   9.653  0.0837 -0.0440 -0.1177
32255OCT     C164509  22.511   2.235   5.444  0.2457 -0.0870 -0.1831
32255OCT     C264510  22.066   2.267   5.622 -0.0939 -0.0952  0.1475
32256OCT     C164511   2.008  16.442  18.837 -0.1181 -0.0608 -0.5895
32256OCT     C264512   2.253  16.444  19.241 -0.1626  0.0181 -0.1775
32257OCT     C164513  20.744   7.966   9.593 -0.1260  0.2821 -0.0821
32257OCT     C264514  20.986   8.169   9.913 -0.0493 -0.1501 -0.2223
32258OCT     C164515  22.829   5.251   4.272 -0.0448 -0.0022  0.0563
32258OCT     C264516  22.670   4.855   4.100 -0.1228 -0.0260 -0.0935
32259OCT     C164517  20.394  22.568  11.536  0.1211 -0.2029 -0.2373
32259OCT     C264518  20.777  22.545  11.263 -0.3833 -0.3039  0.0928
32260OCT     C164519   8.806  19.281  13.948  0.1836  0.1972 -0.1390
32260OCT     C264520   9.087  18.979  13.826 -0.3019 -0.0403  0.1717
32261OCT     C164521   9.993  21.461   1.890 -0.0850 -0.0873  0.3177
32261OCT     C264522   9.738  21.089   1.799  0.4036 -0.0823  0.3095
32262OCT     C164523   3.112   7.286  15.882 -0.1032 -0.0038  0.3255
32262OCT     C264524   3.172   7.405  15.397  0.1206 -0.0753  0.1375
32263OCT     C164525   3.787   2.867  17.688 -0.1821 -0.0620 -0.2610
32263OCT     C264526   3.938   3.133  18.069 -0.1269  0.3152 -0.1569
32264OCT     C164527   5.079  20.571  12.223  0.1611  0.0164 -0.0411
32264OCT     C264528   4.752  20.707  11.914  0.2121  0.1327  0.0858
32265OCT     C164529   9.006  23.635   0.792  0.0567  0.3364 -0.0013
32265OCT     C264530   8.812   0.350   0.907  0.1111  0.0555 -0.2330
32266OCT     C164531  17.008  22.363  16.396 -0.0561  0.3331 -0.3317
32266OCT     C264532  16.991  22.743  16.216  0.0494 -0.0781  0.2576
32267OCT     C164533  22.277   9.208   8.039  0.0359 -0.1903 -0.2076
32267OCT     C264534  22.104   8.927   8.350  0.2386 -0.1275  0.4538
32268OCT     C164535   5.566   1.403  15.986  0.1761  0.1590  0.0622
32268OCT     C264536   5.406   1.365  15.502  0.1093 -0.0666  0.0624
32269OCT     C164537  14.692  21.176   5.237 -0.0929 -0.4833  0.0508
32269OCT     C264538  14.395  21.461   5.481 -0.0467  0.0149 -0.0776
32270OCT     C164539  11.853   6.001   6.610  0.0143  0.1102  0.0253
32270OCT     C264540  11.451   6.197   6.516  0.3183 -0.0936  0.0079
32271OCT     C164541  14.201   6.577  18.432 -0.2185 -0.0359 -0.0725
32271OCT     C264542  14.189   7.030  18.484  0.1803 -0.4074 -0.0395
32272OCT     C164543  13.722  10.571  20.971 -0.3843  0.3965  0.0572
32272OCT     C264544  14.074  10.268  21.058 -0.2549  0.0162  0.2900
32273OCT     C164545  18.668  17.674  10.569  0.1036  0.1109 -0.2925
32273OCT     C264546  19.016  17.930  10.379 -0.2592  0.0456  0.1140
32274OCT     C164547   8.602   1.812   6.446  0.1923  0.0509 -0.0957
32274OCT     C264548   8.420   2.032   6.035 -0.0513 -0.1434 -0.0688
32275OCT     C164549  12.151  14.849  16.803 -0.1890 -0.1027 -0.0114
32275OCT     C264550  11.731  14.679  17.078 -0.0667  0.2999  0.1037
32276OCT     C164551  12.633  22.684   2.350 -0.0431  0.0659  0.0270
32276OCT     C264552  12.725  22.265   2.355 -0.3630 -0.0639 -0.0325
32277OCT     C164553   9.391  11.596   6.396 -0.1965  0.0009  0.2646
32277OCT     C264554   9.110  11.273   6.578  0.0692 -0.0717  0.1217
32278OCT     C164555   3.650  11.415  14.362 -0.2757 -0.2835 -0.1289
32278OCT     C264556   3.994  11.796  14.391  0.0160  0.3711 -0.0922
32279OCT     C164557   9.958   4.799  13.360  0.0499 -0.0898 -0.1849
32279OCT     C264558   9.677   5.002  13.676 -0.2219  0.1686 -0.2206
32280OCT     C164559   9.145  21.687  17.595  0.0679 -0.1662 -0.1010
32280OCT     C264560   9.391  22.040  17.761 -0.0721  0.0081 -0.2113
32281OCT     C164561   5.254   2.343  14.978 -0.4607 -0.3396  0.3875
32281OCT     C264562   5.414   1.898  14.952 -0.0189  0.3337 -0.2443
32282OCT     C164563  15.134   4.408   3.047  0.2099 -0.2182  0.4357
32282OCT     C264564  15.364   4.341   2.633 -0.1975  0.2349 -0.2313
32283OCT     C164565  14.338  11.768  20.162  0.0793  0.2179  0.0511
32283OCT     C264566  14.030  11.845  20.503 -0.0792 -0.2628 -0.0235
32284OCT     C164567   5.605  13.108  15.569 -0.2480 -0.3883 -0.0535
32284OCT     C264568   5.936  13.375  15.344 -0.3733 -0.0667  0.1574
32285OCT     C164569   9.575  22.955  18.389  0.2366  0.3179 -0.1368
32285OCT     C264570   9.508  23.036  17.968 -0.2144 -0.0275  0.0182
32286OCT     C164571   9.183  13.255  16.153  0.3154 -0.2036  0.0567
32286OCT     C264572   9.354  13.519  15.771  0.1168  0.2941  0.0881
32287OCT     C164573  16.231   7.472   3.176  0.1226 -0.1043  0.2056
32287OCT     C264574  15.854   7.572   2.950 -0.3067  0.1618 -0.0760
32288OCT     C164575  22.475   7.772  18.219 -0.3437  0.1145  0.0606
32288OCT     C264576  22.030   7.604  18.049 -0.4366 -0.1304 -0.0414
32289OCT     C164577  20.342  14.055  15.600  0.1380  0.1353  0.0112
32289OCT     C264578  19.941  13.831  15.526 -0.1203 -0.0735  0.1093
32290OCT     C164579  19.068   3.513  16.359 -0.0806  0.5306 -0.1970
32290OCT     C264580  19.049   3.170  16.068 -0.1530  0.0601 -0.3577
32291OCT     C164581   2.779  19.712  10.366 -0.0591  0.0733 -0.1193
32291OCT     C264582   3.006  19.516  10.678  0.0177 -0.1664  0.0454
32292OCT     C164583   4.581   4.251  12.507 -0.0222  0.0146 -0.2563
32292OCT     C264584   4.953   3.943  12.670  0.1572  0.0262  0.1198
32293OCT     C164585   1.160   1.464   6.672 -0.0393  0.0034  0.3062
32293OCT     C264586   1.147   1.686   6.254 -0.3317  0.1915  0.1437
32294OCT     C164587  13.396  19.987   9.002 -0.0912  0.0110 -0.0932
32294OCT     C264588  12.935  19.934   9.145  0.1099  0.0062  0.0855
32295OCT     C164589  22.700  19.191   4.562  0.7106  0.2811 -0.1167
32295OCT     C264590  22.457  19.047   4.959 -0.0560 -0.0216 -0.2144
32296OCT     C164591  16.497  19.077  14.626  0.1261 -0.1151  0.1362
32296OCT     C264592  16.363  19.499  14.510  0.0409  0.3021 -0.0869
32297OCT     C164593  14.684  17.098  15.632 -0.4363 -0.0402 -0.2214
32297OCT     C264594  14.952  17.138  15.237 -0.4025  0.0661  0.3443
32298OCT     C164595   2.769  18.030  12.574 -0.0360  0.0272 -0.4172
32298OCT     C264596   2.942  17.684  12.850  0.2455 -0.3774  0.5082
32299OCT     C164597  22.618   6.600  11.222  0.0803 -0.4009 -0.2000
32299OCT     C264598  22.238   6.392  11.386  0.0120  0.1032 -0.0344
32300OCT     C164599  11.977   5.556   9.939 -0.2170  0.1117 -0.2043
32300OCT     C264600  11.622   5.800   9.943 -0.0086  0.0064 -0.2791
32301OCT     C164601  18.108  14.455   5.915 -0.1874  0.1081  0.2549
32301OCT     C264602  17.800  14.668   5.663  0.0841  0.2105  0.1552
32302OCT     C164603  14.517   1.783  22.098 -0.0154 -0.1214  0.4820
32302OCT     C264604  14.849   1.686  22.439 -0.1223  0.0052  0.2127
32303OCT     C164605   5.364   2.148  18.415 -0.3317  0.2566  0.1981
32303OCT     C264606   5.679   1.819  18.209  0.1593  0.2172  0.1597
32304OCT     C164607  13.471   0.623   9.550  0.1287  0.1457  0.0211
32304OCT     C264608  13.131   0.830   9.369  0.4909 -0.4075 -0.2369
32305OCT     C164609  18.923  18.309  23.323  0.0013 -0.4114  0.0351
32305OCT     C264610  18.690  18.167  23.708 -0.2993  0.0239 -0.0126
32306OCT     C164611   0.704  21.008   3.352  0.5267  0.0635 -0.1873
32306OCT     C264612   0.279  21.015   3.219  0.1818  0.1932  0.4418
32307OCT     C164613   1.106  16.818   4.489 -0.4076  0.2748  0.1194
32307OCT     C264614   1.303  16.356   4.637 -0.3446 -0.4218  0.0096
32308OCT     C164615  11.971   7.319  11.732 -0.1312  0.1271  0.2563
32308OCT     C264616  11.685   7.277  11.380  0.0739 -0.2093  0.2397
32309OCT     C164617  14.231   1.621   7.226  0.1888  0.2025 -0.2676
32309OCT     C264618  14.433   1.254   7.521  0.2414  0.2489  0.0149
32310OCT     C164619  19.483  13.952   6.694  0.0954  0.2477  0.4251
32310OCT     C264620  19.201  13.913   7.117 -0.3898  0.1913  0.0475
32311OCT     C164621  13.343  13.137   5.194 -0.0342  0.0461  0.1647
32311OCT     C264622  13.055  13.220   4.848  0.0183 -0.0733 -0.2739
32312OCT     C164623  11.432  23.192   9.704  0.0964  0.2261  0.0684
32312OCT     C264624  11.501  23.557   9.436  0.1627  0.1945 -0.0853
32313OCT     C164625  18.978   9.767  21.245 -0.2563  0.0554  0.3123
32313OCT     C264626  18.722   9.666  21.623 -0.2698 -0.0779 -0.3679
32314OCT     C164627   6.959  14.742   9.363 -0.0788  0.1871 -0.0967
32314OCT     C264628   7.113  14.884   9.776 -0.3069 -0.0052  0.3813
32315OCT     C164629  14.889  21.537  16.576 -0.0634  0.2621 -0.0189
32315OCT     C264630  14.392  21.563  16.456  0.2616  0.2010 -0.2156
32316OCT     C164631  14.185   0.541   9.713 -0.0615  0.0657  0.0442
32316OCT     C264632  14.301   0.187   9.456 -0.2528 -0.2088 -0.4463
32317OCT     C164633  14.801  16.582  22.007 -0.1343 -0.1287  0.0462
32317OCT     C264634  14.836  16.191  21.699 -0.0952 -0.1082  0.3348
32318OCT     C164635   7.757  22.025  18.763 -0.0186  0.0417 -0.0165
32318OCT     C264636   7.368  22.259  18.894  0.0189 -0.1691  0.4059
32319OCT     C164637   9.100  19.465   1.029 -0.0675 -0.2662  0.1448
32319OCT     C264638   8.666  19.431   1.174 -0.2205  0.0653 -0.0487
32320OCT     C164639  12.188  23.373   0.995  0.4474 -0.1208  0.1670
32320OCT     C264640  12.133  23.095   0.640 -0.0701 -0.0232  0.0756
32321OCT     C164641  17.868  19.725   3.670 -0.0286 -0.1129 -0.1825
32321OCT     C264642  18.012  20.113   3.908 -0.1171  0.3317  0.2827
32322OCT     C164643  21.164  14.692  10.294  0.1206  0.2697 -0.0192
32322OCT     C264644  21.345  14.654  10.746 -0.2106  0.3693 -0.1390
32323OCT     C164645   1.359   5.256   6.784  0.0098 -0.0375 -0.1442
32323OCT     C264646   1.730   5.336   7.060 -0.0432 -0.1820 -0.0916
32324OCT     C164647   3.966   5.222  13.088  0.0357 -0.1981  0.0903
32324OCT     C264648   3.537   5.211  12.970  0.1414  0.0097 -0.0179
32325OCT     C164649   9.773  18.370  10.807  0.0425 -0.2604  0.1707
32325OCT     C264650   9.869  18.195  11.248  0.1129 -0.2747 -0.3599
32326OCT     C164651  17.929  23.196  15.619 -0.2866  0.2344 -0.0241
32326OCT     C264652  18.139  22.769  15.571  0.2009 -0.0207  0.1717
32327OCT     C164653   0.781   0.784   2.390 -0.0298  0.2809 -0.0476
32327OCT     C264654   0.808   1.246   2.236 -0.1380 -0.1412 -0.3745
32328OCT     C164655  17.960  22.935  19.289  0.0256 -0.3383  0.1307
32328OCT     C264656  17.753  22.573  19.142 -0.0677 -0.0453 -0.1824
32329OCT     C164657   3.170  20.996  10.739  0.1303 -0.0343 -0.0041
32329OCT     C264658   3.128  21.375  11.004  0.1646  0.4060 -0.2981
32330OCT     C164659  17.380  15.493   9.004  0.1767  0.1851 -0.0194
32330OCT     C264660  17.682  15.774   8.898 -0.0314 -0.1199  0.1170
32331OCT     C164661  16.150   9.202   9.333 -0.2342  0.0453 -0.0011
32331OCT     C264662  16.081   8.782   9.212  0.1927  0.2117  0.1593
32332OCT     C164663   3.486  18.484   1.686  0.0509  0.2285  0.0098
32332OCT     C264664   3.680  18.173   1.379 -0.1609 -0.0161  0.0530
32333OCT     C164665   2.742   1.429  19.438 -0.0657 -0.1398  0.1954
32333OCT     C264666   2.983   0.987  19.413  0.0432  0.3116  0.0842
32334OCT     C164667   6.649   4.809   2.253 -0.0615 -0.2423  0.1406
32334OCT     C264668   6.443   5.066   1.903 -0.1864 -0.0945 -0.0637
32335OCT     C164669   9.284   7.612   9.015  0.2917 -0.3300 -0.0689
32335OCT     C264670   8.978   7.402   9.406 -0.0846  0.0487 -0.2808
32336OCT     C164671   9.979  18.670  18.590  0.1071  0.1954  0.2487
32336OCT     C264672   9.951  18.512  19.019  0.1206  0.2325 -0.0301
32337OCT     C164673  11.624  17.577   1.304  0.0581 -0.2594  0.1366
32337OCT     C264674  11.909  17.312   1.098 -0.0056  0.1335  0.0040
32338OCT     C164675   5.858   7.397  21.406  0.1346 -0.0722  0.2018
32338OCT     C264676   6.061   7.734  21.661 -0.2222 -0.2537  0.3043
32339OCT     C164677   6.784  13.354  21.225  0.1005  0.1268 -0.0216
32339OCT     C264678   6.763  12.896  21.208  0.1538  0.0255 -0.0384
32340OCT     C164679   1.662  21.046  20.554 -0.2366 -0.2028  0.0915
32340OCT     C264680   1.956  20.908  20.192  0.2921 -0.4554  0.1255
32341OCT     C164681  20.547   4.137  20.540 -0.1885  0.0823 -0.1339
32341OCT     C264682  20.126   4.170  20.594  0.5548  0.5157  0.2275
32342OCT     C164683   0.081  22.089   4.172 -0.0373  0.0528  0.1567
32342OCT     C264684  23.668  21.856   4.577  0.3919 -0.0395 -0.2110
32343OCT     C164685   9.306  23.374   4.716 -0.1333 -0.2872  0.3050
32343OCT     C264686   8.976  23.635   4.946 -0.1096 -0.2388  0.2847
32344OCT     C164687  13.257  10.028  16.111 -0.0506 -0.0728 -0.0586
32344OCT     C264688  13.699  10.047  16.277  0.0840 -0.0922 -0.1997
32345OCT     C164689  20.400  15.912   2.477  0.3477  0.0853  0.0066
32345OCT     C264690  20.743  15.731   2.246  0.0460 -0.2838  0.1395
32346OCT     C164691  16.655  17.086  22.334 -0.1890  0.2885  0.1289
32346OCT     C264692  16.962  17.117  22.000  0.1005 -0.2283  0.2611
32347OCT     C164693  21.996   4.965  16.265 -0.1041  0.1194 -0.0111
32347OCT     C264694  21.858   4.694  15.884  0.2325  0.3074 -0.2491
32348OCT     C164695   9.413  13.014  17.537 -0.0903 -0.2654 -0.1985
32348OCT     C264696   9.153  13.379  17.645 -0.2697 -0.0906 -0.1543
32349OCT     C164697  14.070   8.180   6.583 -0.1454 -0.0813 -0.2704
32349OCT     C264698  14.097   7.684   6.588 -0.3376 -0.1606  0.2821
32350OCT     C164699  17.048   2.870   9.263  0.0638 -0.1041  0.1048
32350OCT     C264700  17.322   2.892   9.685  0.0775  0.0560  0.3127
32351OCT     C164701  21.784   7.415   1.354  0.0507  0.0175 -0.0591
32351OCT     C264702  22.185   7.498   1.198  0.0696  0.2237  0.0471
32352OCT     C164703   1.275   9.129   0.921  0.2268  0.0041  0.0349
32352OCT     C264704   1.099   9.545   1.076 -0.1541 -0.1072 -0.1019
32353OCT     C164705   1.471  10.830   1.815 -0.1471 -0.1065  0.1876
32353OCT     C264706   1.394  11.000   2.215  0.2599  0.0595  0.0064
32354OCT     C164707   6.859   2.464   0.977  0.0399  0.3885 -0.1913
32354OCT     C264708   6.888   2.822   1.292 -0.3390 -0.2201  0.0799
32355OCT     C164709  23.264  16.921  17.169 -0.0663  0.2699 -0.1655
32355OCT     C264710  23.185  17.038  16.731  0.0488  0.1658 -0.0577
32356OCT     C164711   1.097  11.413  21.453  0.3356 -0.1362  0.3109
32356OCT     C264712   1.128  11.087  21.138 -0.1203  0.0355 -0.1417
32357OCT     C164713   3.677   2.925  12.176 -0.0636 -0.2404 -0.0867
32357OCT     C264714   3.962   3.290  11.939  0.1179 -0.0655 -0.0607
32358OCT     C164715  17.368  19.365  18.928  0.1340  0.3206 -0.3830
32358OCT     C264716  17.093  19.642  18.699 -0.1010 -0.1809  0.2963
32359OCT     C164717  19.438   9.670  13.846 -0.2762  0.2441 -0.0610
32359OCT     C264718  19.177   9.439  14.133 -0.0959 -0.0826  0.1235
32360OCT     C164719   0.393   7.621   4.023 -0.1378  0.1633  0.0962
32360OCT     C264720  23.699   7.613   3.866 -0.2685  0.0814  0.1729
32361OCT     C164721   1.185  18.313   9.978 -0.1842  0.0042 -0.1473
32361OCT     C264722   0.745  18.423  10.095 -0.0157 -0.0642  0.0569
32362OCT     C164723   3.616   8.258  13.180  0.0071 -0.3031  0.3526
32362OCT     C264724   3.335   7.936  13.126 -0.0727  0.0387 -0.0599
32363OCT     C164725   2.628  12.948   4.967  0.0007 -0.0143 -0.3553
32363OCT     C264726   2.301  12.695   4.892 -0.1059 -0.0611 -0.2854
32364OCT     C164727   1.969   1.677  21.622 -0.0073  0.0677 -0.1790
32364OCT     C264728   2.296   1.616  21.965  0.2237  0.1236 -0.1592
32365OCT     C164729   3.708   4.615   0.846 -0.0424  0.0790  0.2238
32365OCT     C264730   3.409   4.876   0.507 -0.2093 -0.4340  0.2999
32366OCT     C164731   7.194   4.793  11.326  0.0230  0.1189 -0.1739
32366OCT     C264732   7.262   4.315  11.433  0.3437 -0.2492  0.0086
32367OCT     C164733  14.560  21.610   1.822 -0.2779  0.2338 -0.2672
32367OCT     C264734  14.363  21.887   1.487 -0.0940 -0.0038  0.2013
32368OCT     C164735  22.072   6.671  22.187  0.0376  0.0577  0.0774
32368OCT     C264736  22.088   6.288  21.876 -0.1527  0.0145  0.2496
32369OCT     C164737  10.012   9.437   3.766  0.2670 -0.3615  0.1135
32369OCT     C264738   9.919   9.915   3.927  0.0126  0.2974 -0.1302
32370OCT     C164739  19.627   9.462   0.358 -0.1333  0.0975 -0.3090
32370OCT     C264740  19.743   9.072   0.578 -0.1226  0.3660  0.1361
32371OCT     C164741   5.449  11.825   0.530  0.3059 -0.2115  0.1249
32371OCT     C264742   5.551  11.487   0.840 -0.0682 -0.4517  0.2687
32372OCT     C164743   6.131  21.661   2.065  0.2362  0.4112 -0.0893
32372OCT     C264744   6.347  21.878   2.437 -0.4394  0.0700  0.3041
32373OCT     C164745  14.731  21.654  21.795 -0.3325 -0.2542  0.0245
32373OCT     C264746  14.357  21.635  21.554 -0.1968  0.0677 -0.0713
32374OCT     C164747  16.793   4.912  23.326  0.1134 -0.0660 -0.0260
32374OCT     C264748  16.705   4.713   0.065 -0.1966  0.1286  0.0147
32375OCT     C164749  17.587  21.041  21.504  0.1103 -0.2268  0.1146
32375OCT     C264750  17.623  20.814  21.925  0.2073  0.2466  0.1285
32376OCT     C164751   2.834  17.858  17.328  0.1440 -0.1315 -0.0322
32376OCT     C264752   2.970  17.497  17.062  0.3371 -0.4098  0.1021
32377OCT     C164753  22.765  22.044  14.562 -0.1052  0.1181  0.4352
32377OCT     C264754  22.322  22.063  14.427  0.0569 -0.0793  0.0513
32378OCT     C164755   9.935   8.385   5.086  0.7140  0.0521  0.0176
32378OCT     C264756   9.924   8.128   4.688 -0.2355  0.0644  0.1370
32379OCT     C164757  11.599   5.509  20.673  0.1863  0.0303  0.0297
32379OCT     C264758  11.315   5.824  20.380 -0.1329 -0.0293 -0.3204
32380OCT     C164759  17.303  21.946  14.415  0.0065 -0.2778 -0.2551
32380OCT     C264760  17.321  21.982  14.820 -0.0904  0.0523 -0.0087
32381OCT     C164761  14.005   5.015   1.268  0.0870 -0.3170  0.1461
32381OCT     C264762  13.826   4.861   1.593 -0.0687  0.3134 -0.0497
32382OCT     C164763  14.304  17.292   7.622 -0.1707 -0.3169  0.1829
32382OCT     C264764  14.364  17.752   7.665 -0.0363 -0.1417  0.1979
32383OCT     C164765   2.605  22.858   3.759 -0.3441 -0.2772  0.1057
32383OCT     C264766   2.198  22.990   3.580  0.4490 -0.3140  0.2648
32384OCT     C164767  11.102  17.026   5.412  0.1789 -0.0208 -0.2989
32384OCT     C264768  11.169  17.279   5.007  0.0069  0.0943  0.1044
32385OCT     C164769   0.955   6.285   3.148 -0.1501 -0.3817 -0.0711
32385OCT     C264770   0.864   5.952   3.452  0.0590  0.2057 -0.3407
32386OCT     C164771   9.242   6.225  21.699  0.0297 -0.1353 -0.2026
32386OCT     C264772   9.106   5.785  21.600  0.1421 -0.2513  0.0745
32387OCT     C164773  11.966  12.375   6.467 -0.0150  0.0809  0.3969
32387OCT     C264774  12.131  12.364   6.032 -0.0307  0.1210  0.1560
32388OCT     C164775  22.381   6.928  15.281  0.2327 -0.2980  0.1482
32388OCT     C264776  22.536   6.837  15.712 -0.0947 -0.4622 -0.0588
32389OCT     C164777  11.819  15.254  23.214 -0.2912  0.2690  0.0645
32389OCT     C264778  12.208  15.488  23.316  0.0199  0.0814  0.0439
32390OCT     C164779  11.740  20.244  20.656  0.0289  0.0686 -0.0940
32390OCT     C264780  12.030  20.149  20.984  0.3112 -0.4788  0.1886
32391OCT     C164781   0.480   1.410  15.193 -0.2036  0.0463 -0.0228
32391OCT     C264782   0.885   1.212  15.204  0.1399 -0.0550  0.0162
32392OCT     C164783  11.844  15.941  13.595  0.0394  0.1273  0.3186
32392OCT     C264784  11.534  16.287  13.443 -0.0802  0.0447  0.3200
32393OCT     C164785  14.380  15.351   8.565 -0.0290 -0.0879  0.0481
32393OCT     C264786  14.484  15.231   8.086  0.3960  0.2911 -0.1024
32394OCT     C164787  12.948  17.729  18.421  0.2135 -0.0550  0.0046
32394OCT     C264788  13.159  17.329  18.650  0.0759 -0.1306 -0.0884
32395OCT     C164789   1.780  16.642  13.465  0.3609  0.3357 -0.1141
32395OCT     C264790   2.096  16.424  13.745  0.0760  0.0886 -0.4578
32396OCT     C164791  13.491   7.231   8.474  0.0887  0.1085  0.0658
32396OCT     C264792  13.909   7.349   8.436  0.1467  0.1056 -0.2113
32397OCT     C164793  10.070   6.443  19.824  0.0328 -0.1673  0.0757
32397OCT     C264794   9.882   6.490  20.240  0.4807 -0.5064  0.0646
32398OCT     C164795  21.300  11.822  17.781 -0.1624  0.0262 -0.0223
32398OCT     C264796  21.158  11.602  17.435 -0.0850 -0.0826  0.1340
32399OCT     C164797   9.055   4.816  17.722 -0.3962  0.2763  0.0828
32399OCT     C264798   8.731   4.755  17.379 -0.2161 -0.3595 -0.1874
32400OCT     C164799  13.848  15.485   8.423 -0.3120  0.2527 -0.1618
32400OCT     C264800  13.568  15.806   8.640 -0.0716 -0.0926  0.2258
32401OCT     C164801  21.089  19.165  22.162 -0.0745 -0.3990  0.2143
32401OCT     C264802  21.305  18.804  22.439 -0.1106  0.2436 -0.0187
32402OCT     C164803  18.671  14.939  20.074 -0.0927  0.2760 -0.0500
32402OCT     C264804  19.041  15.053  20.341  0.1458 -0.0421 -0.1348
32403OCT     C164805  11.965  17.127  21.839  0.1663  0.0305  0.2359
32403OCT     C264806  12.371  17.241  21.755 -0.2425 -0.0465  0.1114
32404OCT     C164807  17.563  18.995  14.370  0.3131  0.2592 -0.3722
32404OCT     C264808  17.138  18.945  14.610 -0.0531 -0.2022 -0.0932
32405OCT     C164809  10.824  23.588  19.013 -0.1931  0.4687  0.0566
32405OCT     C264810  11.232  23.316  18.934 -0.3119 -0.2036  0.0899
32406OCT     C164811  17.918  14.186  21.365  0.1861  0.0681 -0.2862
32406OCT     C264812  17.949  14.262  20.937  0.2329  0.3750  0.0895
32407OCT     C164813   7.095  23.090   9.068 -0.0263 -0.0080  0.2084
32407OCT     C264814   7.276  22.684   9.270  0.2244  0.3022 -0.1833
32408OCT     C164815   5.157  20.458   5.711  0.1216 -0.1695  0.1718
32408OCT     C264816   5.534  20.156   5.711 -0.1784  0.2021  0.5310
32409OCT     C164817   3.788   1.268  22.576 -0.0584  0.0340 -0.0342
32409OCT     C264818   4.117   0.999  22.405  0.1713  0.1744  0.0310
32410OCT     C164819  10.349  13.045  10.443  0.0066 -0.0537  0.0324
32410OCT     C264820  10.419  13.143  10.920 -0.0951  0.0900  0.2666
32411OCT     C164821   6.453   0.693   2.420  0.2311  0.1167 -0.3261
32411OCT     C264822   6.081   0.963   2.342  0.0577 -0.1480  0.0182
32412OCT     C164823   7.876  11.573  10.716  0.0068 -0.0868  0.0736
32412OCT     C264824   8.245  11.777  10.925  0.1048 -0.0881 -0.0994
32413OCT     C164825   7.691  10.474   5.713  0.0109  0.0312 -0.0086
32413OCT     C264826   8.001  10.156   5.618 -0.1869 -0.0484 -0.1692
32414OCT     C164827  10.926   4.360   7.281  0.0144  0.2542  0.1390
32414OCT     C264828  11.249   3.999   7.199 -0.2757 -0.2935 -0.3438
32415OCT     C164829   5.097  12.913  11.025 -0.1180 -0.1185 -0.1875
32415OCT     C264830   5.313  13.153  10.651 -0.5219 -0.1038 -0.0053
32416OCT     C164831  20.809   1.568  22.961 -0.2124  0.2423 -0.1787
32416OCT     C264832  20.690   1.963  22.747  0.0467 -0.0135 -0.1688
32417OCT     C164833   5.898  20.178  14.775 -0.2012  0.0399 -0.0128
32417OCT     C264834   5.792  19.960  14.354  0.0928  0.0219 -0.0264
32418OCT     C164835  10.122  22.917  16.263  0.2734  0.2520 -0.0868
32418OCT     C264836  10.044  22.897  16.674  0.0341 -0.0904 -0.0780
32419OCT     C164837  15.153   1.677  17.743 -0.0729 -0.0330 -0.3892
32419OCT     C264838  15.572   1.504  17.658  0.3953 -0.0152  0.0038
32420OCT     C164839  16.746  22.260   9.528 -0.1080 -0.1041 -0.0439
32420OCT     C264840  17.053  22.275   9.871  0.1185 -0.3801  0.0866
32421OCT     C164841   7.698  22.229  22.550  0.1026  0.1720 -0.2558
32421OCT     C264842   7.546  22.096  22.992 -0.2059  0.1370 -0.1195
32422OCT     C164843  11.634  21.626  12.555 -0.2041  0.1536 -0.0181
32422OCT     C264844  11.906  21.232  12.478  0.2599  0.0466 -0.0035
32423OCT     C164845  17.066  11.517   4.021  0.0688 -0.1658 -0.0133
32423OCT     C264846  17.550  11.372   3.900 -0.3663  0.2696 -0.1097
32424OCT     C164847   3.190   0.028  22.916  0.3264  0.0279 -0.4471
32424OCT     C264848   3.385  23.518  22.570 -0.0222  0.3391 -0.0587
32425OCT     C164849  22.870  16.845  12.729 -0.2542  0.2780 -0.4347
32425OCT     C264850  22.988  16.378  12.736 -0.2354 -0.1790  0.1270
32426OCT     C164851  10.457  13.347   4.302  0.0556  0.2107 -0.2712
32426OCT     C264852  10.033  13.130   4.188 -0.1394 -0.0973 -0.1966
32427OCT     C164853   2.855  21.110   6.800 -0.0964  0.2008  0.0433
32427OCT     C264854   3.113  20.834   7.108 -0.1502  0.0876  0.1653
32428OCT     C164855  22.782  22.132   9.467 -0.0024  0.1867  0.3185
32428OCT     C264856  22.967  21.746   9.252  0.3334  0.1512 -0.0269
32429OCT     C164857  12.726   9.392   1.890  0.1423  0.5391 -0.1053
32429OCT     C264858  12.763   9.046   2.175  0.1940 -0.3513 -0.0383
32430OCT     C164859   3.470  13.145  21.433  0.4918  0.1470 -0.1148
32430OCT     C264860   3.672  13.297  21.853  0.0836  0.1585  0.0567
32431OCT     C164861   2.536  17.927   7.209  0.1787 -0.0103  0.1032
32431OCT     C264862   2.495  17.965   6.741 -0.1150 -0.3489 -0.1206
32432OCT     C164863   2.538  18.578  21.368  0.3003 -0.0122 -0.2805
32432OCT     C264864   2.626  18.226  21.040  0.0743 -0.0892 -0.2354
32433OCT     C164865  23.262  12.348   5.862  0.0373  0.3115  0.2552
32433OCT     C264866  22.871  12.138   5.656 -0.4302 -0.0283 -0.1655
32434OCT     C164867  15.026  12.897   7.828 -0.1955  0.3230  0.0694
32434OCT     C264868  14.817  12.795   8.236 -0.3147 -0.1061 -0.0589
32435OCT     C164869  13.492  16.310  23.303  0.0062 -0.0111  0.1566
32435OCT     C264870  13.583  16.220  22.858  0.0457 -0.3301  0.2800
32436OCT     C164871  10.177  20.957  11.407  0.3204 -0.1330  0.4212
32436OCT     C264872  10.258  20.611  11.107  0.0549  0.2839 -0.1893
32437OCT     C164873   4.543   7.880  15.905 -0.0516 -0.0254 -0.2352
32437OCT     C264874   4.286   8.188  15.657  0.0084 -0.3045 -0.1262
32438OCT     C164875  21.522   9.872   2.398  0.3848 -0.2539 -0.0426
32438OCT     C264876  21.163   9.919   2.029 -0.0918  0.1958 -0.0041
32439OCT     C164877   3.233   2.385   9.458 -0.0408  0.1070 -0.1870
32439OCT     C264878   3.330   2.685   9.091  0.0722 -0.1632 -0.2068
32440OCT     C164879  20.123   1.755  19.172 -0.5853  0.2998 -0.0311
32440OCT     C264880  19.879   1.866  18.773 -0.2511 -0.2500 -0.4265
32441OCT     C164881   7.137   1.808  12.948  0.0466 -0.0071  0.1650
32441OCT     C264882   6.885   1.701  12.577  0.2569  0.0057  0.0601
32442OCT     C164883  16.869  16.137  17.788 -0.1405  0.0344  0.2380
32442OCT     C264884  16.982  15.968  18.195  0.2048  0.1953 -0.1283
32443OCT     C164885  10.375   9.842  17.506  0.2296 -0.0663  0.5336
32443OCT     C264886  10.212   9.484  17.782  0.1793 -0.0774 -0.2727
32444OCT     C164887   5.814   3.666  13.821  0.5047  0.0489 -0.0748
32444OCT     C264888   5.686   3.470  14.205 -0.0345  0.1064 -0.0229
32445OCT     C164889   1.595   2.271  19.143  0.6292 -0.1876  0.2492
32445OCT     C264890   1.310   2.515  19.336 -0.1789  0.0452 -0.2488
32446OCT     C164891   0.547   9.888  22.275 -0.0583  0.0220  0.0855
32446OCT     C264892   0.161   9.771  22.522 -0.1779  0.0009 -0.1727
32447OCT     C164893  11.755  21.107  16.454  0.0977  0.0465  0.1217
32447OCT     C264894  11.493  20.973  16.125 -0.0205 -0.1510 -0.0229
32448OCT     C164895  20.467   1.093  14.836 -0.0345  0.1930 -0.0826
32448OCT     C264896  20.155   0.951  15.137  0.2441  0.1230  0.1032
32449OCT     C164897   2.525  14.201   2.060 -0.2033  0.1295  0.3290
32449OCT     C264898   2.896  14.445   1.889  0.2291 -0.0820 -0.4392
32450OCT     C164899  16.921   2.146   3.882  0.2591  0.0509 -0.2456
32450OCT     C264900  17.089   2.019   3.420 -0.1669 -0.1106  0.1194
32451OCT     C164901   0.670  16.194  19.770  0.0892 -0.1658 -0.0101
32451OCT     C264902   0.228  16.041  19.625  0.0528 -0.2316  0.1312
32452OCT     C164903   9.387  12.475   5.979  0.4140 -0.2610 -0.0044
32452OCT     C264904   9.304  12.100   6.230 -0.2147  0.2192 -0.2638
32453OCT     C164905  14.678   3.689  14.325 -0.0480 -0.1814 -0.3263
32453OCT     C264906  15.107   3.561  14.110  0.0975  0.0388  0.2605
32454OCT     C164907   2.987   4.949  19.646  0.0520 -0.0060 -0.2178
32454OCT     C264908   2.681   4.647  19.844  0.3349  0.1718 -0.2802
32455OCT     C164909   3.272  11.707  20.814 -0.2733 -0.0261 -0.1519
32455OCT     C264910   3.641  11.573  21.035 -0.1856 -0.0758  0.4465
32456OCT     C164911  11.846   9.664  14.495 -0.1571  0.1741 -0.1370
32456OCT     C264912  11.987  10.116  14.485 -0.1518 -0.2989 -0.2898
32457OCT     C164913   5.876   2.299  14.903 -0.0860  0.0168 -0.3631
32457OCT     C264914   6.282   2.272  14.680  0.0423 -0.3869 -0.1079
32458OCT     C164915   2.166   4.265   1.039  0.2804 -0.1510  0.4778
32458OCT     C264916   1.890   3.891   1.051 -0.2362  0.1139 -0.0825
32459OCT     C164917  11.311   1.198   1.004  0.1013  0.2636 -0.1832
32459OCT     C264918  11.643   1.059   0.773  0.1786  0.3313  0.0761
32460OCT     C164919   6.919   1.087  14.089  0.1098  0.1822 -0.3773
32460OCT     C264920   6.789   1.018  13.636  0.0120  0.0744 -0.4297
32461OCT     C164921  20.579  17.762  11.891 -0.0579 -0.0282  0.1724
32461OCT     C264922  20.974  17.644  11.811 -0.0680 -0.0414 -0.1588
32462OCT     C164923  17.921  17.265   3.177  0.0776  0.1437 -0.1684
32462OCT     C264924  18.274  17.099   3.024 -0.1057  0.0172 -0.1915
32463OCT     C164925   1.383  21.782   4.325  0.0826  0.1267 -0.1171
32463OCT     C264926   1.291  21.419   4.010 -0.0332 -0.0344  0.2285
32464OCT     C164927   9.369  11.012  10.739 -0.0435  0.0824  0.6553
32464OCT     C264928   9.594  10.605  10.753 -0.1444  0.1966 -0.0770
32465OCT     C164929   6.389   7.631   1.831  0.1798  0.1647 -0.0189
32465OCT     C264930   6.846   7.415   1.699 -0.0330  0.0883 -0.0292
32466OCT     C164931  13.217  13.061   1.051  0.1814 -0.1139  0.0550
32466OCT     C264932  12.900  12.906   1.332  0.2972 -0.1053  0.0817
32467OCT     C164933  23.327  10.073   7.165  0.0334  0.2972 -0.3442
32467OCT     C264934   0.030  10.155   7.174 -0.1523  0.1011  0.2188
32468OCT     C164935  23.086  16.430  12.255 -0.0028  0.1348 -0.4876
32468OCT     C264936  22.895  16.798  12.124 -0.4492  0.1174  0.3293
32469OCT     C164937   4.165  20.609  13.493  0.3485  0.4546 -0.0164
32469OCT     C264938   4.263  20.111  13.511  0.0893 -0.1172  0.0979
32470OCT     C164939  23.007   0.961  19.894 -0.3649 -0.1543  0.3609
32470OCT     C264940  22.701   0.692  19.690  0.0767  0.1336  0.1326
32471OCT     C164941  10.720   9.222   7.487 -0.0241  0.2192 -0.1823
32471OCT     C264942  10.510   9.327   7.108  0.0546  0.0708 -0.0143
32472OCT     C164943   8.024  13.307  16.021  0.0673  0.1047 -0.1921
32472OCT     C264944   7.819  13.556  16.396  0.0485  0.0967  0.1427
32473OCT     C164945   8.375  11.056  11.513  0.1019 -0.1711 -0.0840
32473OCT     C264946   8.422  11.529  11.474 -0.1441  0.1076  0.4977
32474OCT     C164947   7.742   0.313   9.410  0.1174 -0.3657 -0.0378
32474OCT     C264948   8.055   0.029   9.440  0.1364  0.3927 -0.1440
32475OCT     C164949  10.610   2.357  19.030  0.4436  0.1857 -0.2776
32475OCT     C264950  10.163   2.488  19.072  0.1065 -0.1679 -0.0838
32476OCT     C164951  17.561  15.589  17.053  0.0963 -0.0072 -0.1908
32476OCT     C264952  17.122  15.735  17.149  0.0169  0.0155 -0.0089
32477OCT     C164953   9.736   4.368  22.175  0.2637  0.1449 -0.3628
32477OCT     C264954   9.993   4.768  22.079  0.0981  0.5376  0.3217
32478OCT     C164955  13.069  14.201  10.712  0.3075 -0.2073  0.1402
32478OCT     C264956  13.189  13.776  10.883 -0.1576  0.1491 -0.1105
32479OCT     C164957  13.797   3.146   4.570 -0.1732 -0.3885  0.0951
32479OCT     C264958  13.999   3.229   4.157  0.1611  0.1961 -0.3210
32480OCT     C164959   2.834   3.827  21.254 -0.2054 -0.0677  0.0896
32480OCT     C264960   2.688   4.206  21.066  0.0071  0.0133  0.2122
32481OCT     C164961  11.172  12.879   8.503  0.1709 -0.1131  0.4426
32481OCT     C264962  11.390  13.259   8.412 -0.3569 -0.0345 -0.2457
32482OCT     C164963   9.099  18.274  17.465 -0.1647 -0.1723 -0.0238
32482OCT     C264964   9.054  18.156  17.022  0.1995  0.1020  0.0463
32483OCT     C164965  12.164   6.974  15.395 -0.4560 -0.2198  0.0447
32483OCT     C264966  11.799   6.739  15.575  0.0442 -0.3744 -0.1219
32484OCT     C164967  22.112  22.624   8.994 -0.1241  0.2160 -0.1006
32484OCT     C264968  21.652  22.676   9.015 -0.1316 -0.3382  0.2275
32485OCT     C164969   0.997  21.447  19.964 -0.4509 -0.0509  0.1792
32485OCT     C264970   1.341  21.355  19.659  0.2264 -0.2373 -0.0185
32486OCT     C164971  13.790   3.044  15.029  0.0274  0.0555  0.2472
32486OCT     C264972  13.803   3.310  15.388  0.0817  0.1498 -0.0052
32487OCT     C164973  21.313   5.726   5.449  0.0005 -0.4235  0.1666
32487OCT     C264974  21.670   6.035   5.468 -0.3504 -0.0552  0.1144
32488OCT     C164975  15.052   3.625  10.813 -0.0598  0.0219  0.2289
32488OCT     C264976  15.002   3.835  11.209 -0.2478  0.0841 -0.1218
32489OCT     C164977   7.861   4.695   5.663  0.1504 -0.1286  0.3765
32489OCT     C264978   8.216   4.851   5.361 -0.0079  0.2699  0.0258
32490OCT     C164979   4.424   8.015   1.301 -0.0973 -0.2339 -0.1153
32490OCT     C264980   4.320   8.135   1.727 -0.0925 -0.1430 -0.3063
32491OCT     C164981   4.084  21.368   1.924  0.0117  0.1594  0.0307
32491OCT     C264982   3.807  21.013   2.110  0.4912 -0.2134 -0.2957
32492OCT     C164983   8.692  23.669  21.533  0.2463 -0.2105  0.0125
32492OCT     C264984   8.788  23.212  21.329  0.1953  0.2237  0.0688
32493OCT     C164985   6.797  16.427   0.420  0.2886  0.0150  0.0131
32493OCT     C264986   7.091  16.655   0.700  0.0896 -0.3675 -0.2547
32494OCT     C164987  10.849  20.718  22.029 -0.2156  0.4251  0.0353
32494OCT     C264988  11.012  20.829  21.668  0.0343  0.0866  0.0031
32495OCT     C164989   9.381   9.559  13.099 -0.1957  0.1114  0.1108
32495OCT     C264990   9.033   9.536  13.429 -0.0993 -0.0959 -0.2002
32496OCT     C164991   7.709  20.911  19.854 -0.0374  0.1351  0.2306
32496OCT     C264992   7.415  20.658  19.656  0.1484 -0.3261 -0.3486
32497OCT     C164993  23.415  16.056  15.254 -0.0829  0.0358  0.0022
32497OCT     C264994  23.329  16.123  15.746 -0.1004  0.0905  0.6227
32498OCT     C164995  15.312  14.325  21.978 -0.3561 -0.0002 -0.1046
32498OCT     C264996  15.680  14.548  22.090 -0.3293  0.2162  0.1342
32499OCT     C164997   4.919  18.811   0.077  0.1715  0.2682 -0.0272
32499OCT     C264998   4.665  18.427   0.064  0.1914 -0.0655  0.0343
32500OCT     C164999   7.380   3.191  14.212  0.0730 -0.1694 -0.2687
32500OCT     C265000   7.011   3.277  14.487 -0.1039 -0.4914 -0.2697
32501OCT     C165001  13.047  23.390   4.333  0.0642  0.0269  0.0260
32501OCT     C265002  13.172  23.457   4.804  0.1243  0.0255  0.1494
32502OCT     C165003  19.518   5.189  16.503 -0.2807  0.2850  0.0409
32502OCT     C265004  19.059   5.239  16.512 -0.0477 -0.0471 -0.2212
32503OCT     C165005  12.154  21.056   1.742  0.1926 -0.0655 -0.0314
32503OCT     C265006  11.821  21.222   2.004  0.2998 -0.3890 -0.1100
32504OCT     C165007  17.055  19.389  20.055  0.2319 -0.3779 -0.1835
32504OCT     C265008  16.632  19.624  19.993 -0.5275 -0.2345  0.1031
32505OCT     C165009  20.246   4.462   9.628 -0.3156  0.1078  0.0902
32505OCT     C265010  20.720   4.532   9.725 -0.1608  0.1100 -0.1242
32506OCT     C165011   5.161  19.886   0.711 -0.3016 -0.0673 -0.2870
32506OCT     C265012   5.502  20.101   0.478 -0.1612 -0.0693  0.2661
32507OCT     C165013   1.254  16.856  18.140  0.1360  0.1794 -0.1821
32507OCT     C265014   1.508  17.216  18.080 -0.0285 -0.2013  0.2940
32508OCT     C165015   4.341  18.820  10.426 -0.4517 -0.2589 -0.1312
32508OCT     C265016   4.506  19.064  10.757  0.2596 -0.1403 -0.0667
32509OCT     C165017   4.352  21.346  22.831  0.0980  0.3341  0.1797
32509OCT     C265018   4.250  21.514  23.275 -0.1719 -0.1552 -0.0185
32510OCT     C165019   2.474  21.839   9.107 -0.0757  0.0027  0.1501
32510OCT     C265020   2.307  21.445   9.078 -0.1718  0.3321  0.0059
32511OCT     C165021   3.955  21.261  23.568  0.1772  0.1319 -0.1477
32511OCT     C265022   4.276  21.088   0.158  0.0125  0.2530  0.0518
32512OCT     C165023  10.332  14.142  14.577  0.0583  0.2172 -0.0280
32512OCT     C265024  10.269  14.251  14.170  0.0630  0.0319  0.0047
32513OCT     C165025  12.695   5.002   8.909 -0.5792  0.4562  0.0745
32513OCT     C265026  12.282   5.100   9.017 -0.1861 -0.0173 -0.1346
32514OCT     C165027   8.817   4.997   7.981 -0.0906 -0.3128  0.1957
32514OCT     C265028   9.010   4.587   8.104 -0.0930  0.1145 -0.0457
32515OCT     C165029  21.503   2.950  11.972  0.0929 -0.2591 -0.0046
32515OCT     C265030  21.752   2.726  11.641 -0.0225  0.3250  0.0207
32516OCT     C165031   5.622  17.077   0.379 -0.0213  0.1279  0.1963
32516OCT     C265032   5.569  17.461   0.586  0.0268  0.2849  0.1299
32517OCT     C165033   5.373   6.698  20.456  0.1799 -0.1871 -0.2394
32517OCT     C265034   5.468   7.015  20.803  0.0558  0.1087  0.0753
32518OCT     C165035   8.288  18.799  21.839 -0.0715  0.2163  0.0156
32518OCT     C265036   8.285  18.363  22.113 -0.2924 -0.3251  0.2621
32519OCT     C165037   1.485  14.484  11.587 -0.1902 -0.3557  0.1456
32519OCT     C265038   1.860  14.713  11.340  0.1052 -0.0981 -0.0846
32520OCT     C165039  15.104  10.712   8.939  0.2000 -0.0632  0.1187
32520OCT     C265040  15.565  10.773   8.966  0.0467  0.1410  0.0278
32521OCT     C165041  10.277   6.894   9.667 -0.1175 -0.1154 -0.0947
32521OCT     C265042  10.612   6.856   9.362  0.2883  0.0294  0.1024
32522OCT     C165043  20.254  23.525  14.377  0.0068 -0.3577  0.4557
32522OCT     C265044  19.953  23.420  14.090  0.1255  0.1177  0.1361
32523OCT     C165045   1.297   8.945  15.998 -0.0727 -0.2990 -0.1815
32523OCT     C265046   1.556   8.812  16.342  0.2845  0.2062 -0.1909
32524OCT     C165047  20.222   3.384   9.015  0.1757 -0.1735 -0.0280
32524OCT     C265048  20.124   2.991   9.291 -0.5254 -0.4232 -0.0058
32525OCT     C165049  15.405  12.380   5.975  0.0179  0.2788 -0.3456
32525OCT     C265050  15.177  12.511   5.613  0.1657  0.2052 -0.5149
32526OCT     C165051  22.426   7.610  19.400  0.2224  0.0393 -0.2832
32526OCT     C265052  22.882   7.525  19.454 -0.4978 -0.0986 -0.4121
32527OCT     C165053   6.471   3.181   3.846  0.0060  0.0786 -0.1959
32527OCT     C265054   6.260   2.750   3.873  0.1527  0.0715  0.0268
32528OCT     C165055  20.002  10.191   3.848  0.2841 -0.1984  0.1657
32528OCT     C265056  19.969  10.572   3.615 -0.2908 -0.1140  0.4161
32529OCT     C165057  14.395  17.803   5.475  0.1559 -0.3292  0.2324
32529OCT     C265058  14.769  17.685   5.752 -0.1763 -0.1996  0.1937
32530OCT     C165059   0.163  14.571   0.566 -0.0591 -0.0600 -0.1305
32530OCT     C265060  23.546  14.810   0.781 -0.0819 -0.5131  0.3699
32531OCT     C165061   3.784   5.898  16.018 -0.2835  0.0668  0.2771
32531OCT     C265062   4.057   6.211  16.250  0.0222 -0.0483 -0.5062
32532OCT     C165063   1.302   3.467  22.530 -0.0670 -0.0638  0.0981
32532OCT     C265064   1.609   3.170  22.580 -0.3388 -0.3606 -0.2906
32533OCT     C165065   3.731  11.615  16.605  0.3865  0.0263  0.2224
32533OCT     C265066   3.718  11.180  16.638 -0.2431 -0.1279  0.4064
32534OCT     C165067   5.707   4.043  10.415 -0.0037  0.2883 -0.1287
32534OCT     C265068   5.565   3.976  10.826 -0.3978 -0.1045 -0.1246
32535OCT     C165069   3.336   7.090   2.828 -0.2518 -0.1788 -0.2795
32535OCT     C265070   3.173   6.657   2.799 -0.1049  0.1481  0.2876
32536OCT     C165071  17.177  10.117   2.894  0.1309 -0.1655 -0.1043
32536OCT     C265072  17.526  10.317   3.233 -0.5053 -0.1329 -0.0283
32537OCT     C165073   8.444  12.615  13.519  0.1971 -0.1922  0.1617
32537OCT     C265074   8.762  12.687  13.869 -0.1231 -0.0807 -0.0351
32538OCT     C165075  20.388   2.228  20.064 -0.0967 -0.0492  0.1471
32538OCT     C265076  20.311   2.383  20.524  0.2060 -0.1380 -0.2002
32539OCT     C165077   4.177   0.869  12.029  0.0058 -0.0563  0.1938
32539OCT     C265078   4.563   0.889  11.791 -0.1296 -0.0139  0.3199
32540OCT     C165079   3.854   6.193  11.184 -0.0131 -0.3210  0.1335
32540OCT     C265080   3.888   6.679  11.141 -0.2004 -0.0063  0.0553
32541OCT     C165081  21.487  16.344   2.052  0.0391 -0.1127 -0.0145
32541OCT     C265082  21.620  16.757   1.984 -0.0962 -0.0909 -0.0245
32542OCT     C165083  17.855   9.272  15.396 -0.1452 -0.1123  0.2272
32542OCT     C265084  18.159   8.959  15.219  0.3421 -0.1815 -0.1358
32543OCT     C165085  21.306  10.903  18.014  0.2850 -0.2137 -0.2709
32543OCT     C265086  21.027  10.746  18.420 -0.3006  0.0340  0.0960
32544OCT     C165087  13.591  11.622   9.940 -0.2148  0.0566 -0.2372
32544OCT     C265088  13.314  11.856   9.698 -0.1504 -0.0057 -0.1639
32545OCT     C165089   7.726  12.784  23.216  0.1063  0.4288 -0.0585
32545OCT     C265090   7.958  13.044  22.960  0.0269  0.2177  0.1696
32546OCT     C165091  19.477   6.964   0.618 -0.2616 -0.0511  0.1872
32546OCT     C265092  19.701   7.256   0.223  0.0125  0.0573  0.0360
32547OCT     C165093  20.022   3.577  10.656  0.2028 -0.3088  0.0859
32547OCT     C265094  20.320   3.585  10.989  0.2683 -0.1477  0.1603
32548OCT     C165095   0.602  16.557  20.238 -0.3594  0.4980  0.1271
32548OCT     C265096   0.716  16.895  20.619 -0.0449 -0.0369 -0.1690
32549OCT     C165097  13.325  18.621  12.585  0.4451 -0.0235  0.1323
32549OCT     C265098  12.848  18.507  12.516 -0.0833  0.1030  0.3025
32550OCT     C165099  12.656  13.250   4.599  0.1579 -0.0683 -0.0492
32550OCT     C265100  12.230  13.392   4.488  0.1391 -0.1419 -0.1457
32551OCT     C165101  15.685  12.854   6.765 -0.1679  0.1101  0.2683
32551OCT     C265102  16.065  12.622   6.881 -0.0005 -0.0861  0.2042
32552OCT     C165103  12.018   9.654  15.590 -0.0148 -0.0973  0.0003
32552OCT     C265104  12.449   9.452  15.737 -0.0448 -0.2462 -0.1378
32553OCT     C165105  11.612   9.695  10.263  0.1025 -0.2925  0.3764
32553OCT     C265106  11.355   9.578   9.889  0.0773  0.0927  0.1527
32554OCT     C165107   7.898  19.425   3.746  0.2968  0.0994 -0.1495
32554OCT     C265108   7.856  19.199   3.356 -0.1670 -0.2753  0.1448
32555OCT     C165109  18.823  11.898  10.875  0.0564 -0.2315  0.0510
32555OCT     C265110  18.458  12.086  11.078  0.1574  0.1883  0.2636
32556OCT     C165111  21.506   5.453   7.274 -0.0109 -0.3180 -0.1806
32556OCT     C265112  21.407   5.298   7.742 -0.1720 -0.2242 -0.1277
32557OCT     C165113   0.146  11.728  20.612 -0.0093  0.0035 -0.0536
32557OCT     C265114   0.023  11.665  20.137  0.2110 -0.0572 -0.4119
32558OCT     C165115  21.878  21.141  10.557 -0.0322  0.0232 -0.3997
32558OCT     C265116  21.844  20.660  10.510  0.5330 -0.1793  0.0614
32559OCT     C165117   5.079   5.445  15.080 -0.2904  0.0748  0.1721
32559OCT     C265118   5.252   5.025  14.848  0.1044  0.0920  0.0752
32560OCT     C165119  19.337  15.913   0.700 -0.0647  0.5887  0.0706
32560OCT     C265120  19.125  15.481   0.598  0.0731 -0.1204  0.2249
32561OCT     C165121  22.184  20.390   4.332  0.1298 -0.3074 -0.1086
32561OCT     C265122  21.763  20.483   4.251 -0.0080 -0.0431 -0.3797
32562OCT     C165123   5.229  21.195  15.715  0.1049 -0.1832 -0.1465
32562OCT     C265124   5.329  20.948  16.116 -0.2319 -0.0871 -0.0418
32563OCT     C165125  11.945  10.793  16.282 -0.0219  0.0629  0.3035
32563OCT     C265126  12.027  10.546  16.693 -0.3368  0.0043 -0.1244
32564OCT     C165127  10.307   5.998   2.691  0.3083  0.0237  0.2182
32564OCT     C265128  10.640   6.103   3.029 -0.2985  0.0705 -0.2104
32565OCT     C165129  20.215  15.065   6.905 -0.1826  0.2434  0.1289
32565OCT     C265130  20.318  14.876   7.347 -0.0582  0.1631 -0.0063
32566OCT     C165131  11.564   1.350  18.445 -0.0222 -0.2905  0.2341
32566OCT     C265132  11.448   1.181  17.998 -0.1178 -0.1258 -0.1570
32567OCT     C165133   2.189   7.073  12.373  0.2374 -0.0628 -0.0804
32567OCT     C265134   2.594   7.166  12.599 -0.1068  0.0114  0.3241
32568OCT     C165135  17.664   0.804  15.246 -0.1653  0.3755  0.0436
32568OCT     C265136  17.248   0.794  15.495 -0.2964  0.0205 -0.0252
32569OCT     C165137   6.208   2.661  13.954 -0.1071 -0.0033 -0.0462
32569OCT     C265138   6.154   3.025  14.220  0.1369 -0.0329  0.1739
32570OCT     C165139  12.109  11.118   0.954 -0.1011 -0.1192  0.1296
32570OCT     C265140  12.219  11.018   1.388  0.0607  0.2841 -0.4259
32571OCT     C165141   7.534  14.350   7.768  0.1032 -0.0440  0.5891
32571OCT     C265142   7.465  14.734   7.478 -0.0364 -0.0748 -0.1935
32572OCT     C165143   0.445  16.797   2.252 -0.1548  0.1160  0.2857
32572OCT     C265144   0.935  16.754   2.221 -0.0141  0.2850 -0.2814
32573OCT     C165145   5.448  15.913  17.873  0.3304  0.1466 -0.4095
32573OCT     C265146   5.488  16.141  18.298  0.5767  0.1256  0.0012
32574OCT     C165147  18.436  19.107  12.711  0.1508  0.3476  0.6431
32574OCT     C265148  18.587  18.986  12.282  0.2780 -0.3454  0.0928
32575OCT     C165149  16.392   3.171   1.388  0.5169  0.0063 -0.0184
32575OCT     C265150  16.175   2.766   1.418 -0.1550  0.1116  0.0428
32576OCT     C165151  10.823  23.217  23.003  0.0422  0.0746 -0.0491
32576OCT     C265152  10.399  23.356  22.829 -0.1182  0.1286 -0.0087
32577OCT     C165153  11.483  19.406   0.559  0.2058 -0.0822  0.2640
32577OCT     C265154  11.612  19.445   0.101  0.1447 -0.1099 -0.1805
32578OCT     C165155   2.079  23.192   7.722  0.0469 -0.0040  0.1742
32578OCT     C265156   2.526  23.025   7.659 -0.0593 -0.2168  0.2164
32579OCT     C165157  18.910  15.938   7.961 -0.1571 -0.1659 -0.3536
32579OCT     C265158  19.043  16.298   7.654 -0.0313  0.3766  0.2924
32580OCT     C165159  16.234  11.324   0.214 -0.1782 -0.2411 -0.1599
32580OCT     C265160  16.471  11.144   0.589  0.2802  0.1369  0.1832
32581OCT     C165161  12.145   8.877  10.850  0.0484  0.1352  0.4280
32581OCT     C265162  11.733   8.640  10.740 -0.1275 -0.1824 -0.0842
32582OCT     C165163  20.114   7.499  20.214  0.3733  0.1807  0.2532
32582OCT     C265164  19.987   7.614  20.625 -0.0208 -0.1246 -0.0402
32583OCT     C165165  14.404   2.493  10.220 -0.1271 -0.0218  0.1303
32583OCT     C265166  14.606   2.719  10.592 -0.3999 -0.0974  0.2901
32584OCT     C165167   6.641  23.349  14.876 -0.1022 -0.2458 -0.0633
32584OCT     C265168   6.800  23.718  14.638  0.1958  0.2759 -0.1269
32585OCT     C165169  14.710   6.649  17.944 -0.1670 -0.2224 -0.3337
32585OCT     C265170  14.973   6.302  18.064 -0.4189 -0.2186  0.0099
32586OCT     C165171  20.104   3.250   8.256  0.0661  0.0855  0.3327
32586OCT     C265172  19.695   2.956   8.233 -0.5176 -0.2653 -0.1984
32587OCT     C165173   1.658   2.565   3.799  0.3103 -0.3806 -0.6712
32587OCT     C265174   1.230   2.545   4.045 -0.2973 -0.1591 -0.3266
32588OCT     C165175  13.734   8.057   7.523  0.3591 -0.7162  0.2196
32588OCT     C265176  13.960   7.977   7.937  0.1985 -0.0174  0.3149
32589OCT     C165177   2.342   8.815   7.580 -0.3451  0.2161 -0.1480
32589OCT     C265178   2.705   8.687   7.862  0.3022 -0.3603  0.1324
32590OCT     C165179   1.991   8.804   2.184  0.0171  0.1135 -0.1140
32590OCT     C265180   2.048   9.078   1.804 -0.1332  0.1639  0.0575
32591OCT     C165181   3.891   1.685  22.892 -0.1770 -0.2085 -0.1164
32591OCT     C265182   3.987   1.320  23.065  0.1229 -0.2687 -0.0970
32592OCT     C165183  22.904  21.279  23.285 -0.5603  0.2251  0.5192
32592OCT     C265184  22.799  21.377   0.010  0.0227  0.1696  0.1186
32593OCT     C165185   4.188  18.481  19.970 -0.1570  0.1033  0.1548
32593OCT     C265186   3.862  18.169  19.725 -0.0431 -0.1266 -0.3820
32594OCT     C165187  13.019  20.745  10.024 -0.1794  0.1975 -0.0906
32594OCT     C265188  12.986  21.157   9.814  0.1171  0.0446 -0.1244
32595OCT     C165189  21.514  13.946  15.046 -0.2628 -0.1227 -0.4790
32595OCT     C265190  21.631  14.356  15.196 -0.1492 -0.0590  0.1514
32596OCT     C165191  11.111  11.238  16.365  0.2052 -0.1515  0.1736
32596OCT     C265192  10.780  11.160  16.655  0.1959  0.2147 -0.0390
32597OCT     C165193   6.393   3.304  18.231  0.1209 -0.2863 -0.1072
32597OCT     C265194   6.606   3.158  17.845  0.0119 -0.3748 -0.1482
32598OCT     C165195  22.559  11.916  10.651 -0.1417 -0.6124  0.3587
32598OCT     C265196  23.025  12.029  10.548  0.1372  0.1012  0.4191
32599OCT     C165197   6.462  17.319   5.577  0.2644 -0.1965  0.2299
32599OCT     C265198   6.466  17.645   5.252  0.1265  0.1396  0.1270
32600OCT     C165199   9.287  14.779  10.551 -0.1068 -0.0578  0.0753
32600OCT     C265200   9.426  14.652  10.972  0.1773  0.1054 -0.2073
32601OCT     C165201  19.308  22.636  14.964 -0.3530 -0.0458 -0.0975
32601OCT     C265202  19.178  22.363  14.564 -0.0443 -0.0372  0.5289
32602OCT     C165203   2.924  17.936  16.738 -0.0432 -0.0070  0.1319
32602OCT     C265204   2.996  17.749  16.287 -0.1240  0.0160 -0.1950
32603OCT     C165205  15.443   6.407   2.770  0.0442  0.1248  0.4798
32603OCT     C265206  15.190   6.217   3.103  0.2937  0.3355  0.1430
32604OCT     C165207   1.600   5.625  22.214 -0.2417  0.3239 -0.2291
32604OCT     C265208   1.888   5.493  21.882  0.0665  0.1795  0.1465
32605OCT     C165209   7.527   8.249   7.154 -0.1763  0.0704 -0.0483
32605OCT     C265210   7.109   8.419   7.189  0.0224  0.2148  0.1886
32606OCT     C165211  14.352  20.374  12.656  0.0334 -0.0680  0.0972
32606OCT     C265212  14.610  20.253  12.279 -0.0729  0.1045  0.2435
32607OCT     C165213  15.105  14.872   4.385 -0.0434  0.1454 -0.2173
32607OCT     C265214  15.560  14.797   4.393  0.2005  0.0834  0.1974
32608OCT     C165215  15.679  19.739  18.926  0.1096 -0.1268 -0.0330
32608OCT     C265216  15.930  19.810  19.346  0.3624 -0.0926  0.0658
32609OCT     C165217  15.221  13.286  12.295  0.4536  0.0672  0.2713
32609OCT     C265218  15.207  12.949  11.934  0.1087  0.0620  0.0208
32610OCT     C165219   9.836  21.594  22.494  0.1699 -0.1440 -0.0519
32610OCT     C265220   9.851  21.367  22.938  0.4556 -0.1285 -0.3087
32611OCT     C165221   8.059   7.189  21.568  0.2270  0.0179  0.2971
32611OCT     C265222   8.394   6.918  21.697 -0.0090 -0.2158  0.2617
32612OCT     C165223  18.292   1.089  14.076  0.1759  0.2942  0.2732
32612OCT     C265224  18.360   1.249  14.514 -0.1594  0.1795  0.3178
32613OCT     C165225  21.629   9.667  16.026 -0.0806  0.0314  0.2578
32613OCT     C265226  21.560   9.890  15.652  0.1718  0.0324 -0.0441
32614OCT     C165227  10.804  18.855  21.525 -0.0736  0.0399 -0.0623
32614OCT     C265228  11.123  18.658  21.201 -0.0046 -0.1832 -0.0878
32615OCT     C165229   2.828   5.623  12.395 -0.0621 -0.0703  0.0493
32615OCT     C265230   2.517   5.252  12.349  0.0308 -0.1000  0.0613
32616OCT     C165231  13.179   0.185   3.763  0.0393 -0.5089  0.3546
32616OCT     C265232  12.788   0.031   3.596 -0.1449  0.1200 -0.0620
32617OCT     C165233   2.622  23.657  13.200  0.2729 -0.3406  0.2360
32617OCT     C265234   2.180   0.047  12.973 -0.1839  0.0002  0.0839
32618OCT     C165235  11.193  19.446   8.495  0.0108  0.3298 -0.1616
32618OCT     C265236  10.919  19.210   8.228  0.0662  0.3339  0.0745
32619OCT     C165237  22.616  17.819   5.050  0.0698 -0.1615 -0.2912
32619OCT     C265238  22.604  17.426   4.836 -0.0485  0.0836  0.2596
32620OCT     C165239  20.290  21.404  11.873 -0.0206  0.0081  0.1288
32620OCT     C265240  20.451  21.719  12.159 -0.1203 -0.0904  0.0314
32621OCT     C165241   7.037  22.072  23.127  0.2016  0.2996 -0.2154
32621OCT     C265242   6.788  22.439  22.900  0.0637  0.0224 -0.2159
32622OCT     C165243   6.333  21.692   3.497  0.0826  0.2058 -0.0930
32622OCT     C265244   6.071  22.080   3.556 -0.2118 -0.1868 -0.2946
32623OCT     C165245  12.915  12.649   8.861 -0.3034 -0.0168 -0.1035
32623OCT     C265246  13.174  12.497   8.491 -0.0872 -0.1823 -0.0505
32624OCT     C165247   0.787   5.068   2.569 -0.4532 -0.0565 -0.0954
32624OCT     C265248   1.124   5.054   2.334  0.2190  0.2781  0.1492
32625OCT     C165249  16.472   0.594  13.185 -0.1444 -0.1890  0.2579
32625OCT     C265250  16.612   0.888  12.851 -0.0031  0.0606 -0.2303
32626OCT     C165251   8.986  19.184   1.509  0.2699 -0.0939  0.5463
32626OCT     C265252   9.124  19.603   1.673 -0.0203 -0.0755 -0.1475
32627OCT     C165253  15.318  13.590   8.034  0.1952 -0.2869  0.1273
32627OCT     C265254  15.044  13.450   7.653  0.2191  0.0583  0.0093
32628OCT     C165255   2.890   2.267  20.048  0.0013  0.1465  0.1884
32628OCT     C265256   3.113   2.397  20.495 -0.0668  0.2439 -0.1676
32629OCT     C165257   3.634   7.342   2.469 -0.2535  0.4992  0.4412
32629OCT     C265258   3.603   7.593   2.154 -0.0280  0.0103 -0.0204
32630OCT     C165259  15.372   9.295  13.212  0.1503 -0.0679 -0.2939
32630OCT     C265260  15.349   9.004  12.813 -0.2543  0.1088  0.1050
32631OCT     C165261  20.867  18.026   2.011 -0.5118  0.2836 -0.1518
32631OCT     C265262  21.218  17.733   1.993 -0.1124 -0.3146 -0.0597
32632OCT     C165263  20.477  10.540   6.002 -0.0188 -0.0992 -0.1866
32632OCT     C265264  20.130  10.414   5.789  0.2222 -0.1983 -0.0773
32633OCT     C165265  12.833  23.468   1.728 -0.1614 -0.1567  0.2148
32633OCT     C265266  12.646  23.006   1.805  0.0115  0.0216 -0.4652
32634OCT     C165267   1.874  21.613  13.306 -0.2624  0.8188  0.0610
32634OCT     C265268   2.036  21.804  12.987  0.5714 -0.2698  0.0138
32635OCT     C165269  16.038  12.477   5.644 -0.2196  0.0740  0.3434
32635OCT     C265270  16.161  12.899   5.758 -0.2283 -0.1472 -0.2697
32636OCT     C165271  14.114   1.904  19.007 -0.2138 -0.0440 -0.1300
32636OCT     C265272  14.419   1.756  18.674 -0.1303  0.1408 -0.2503
32637OCT     C165273  19.362  18.168  21.332  0.1372  0.5015 -0.0631
32637OCT     C265274  19.084  18.347  20.972 -0.1271 -0.6569  0.0295
32638OCT     C165275   8.667  10.277  14.444  0.1246 -0.1061  0.0027
32638OCT     C265276   8.249  10.332  14.308  0.4519  0.1289 -0.3418
32639OCT     C165277  14.109   8.497  12.224  0.0692  0.2567  0.2075
32639OCT     C265278  14.176   8.138  11.876  0.1853  0.3645  0.0355
32640OCT     C165279   2.900   9.624  11.644 -0.1660 -0.0622  0.3325
32640OCT     C265280   2.509   9.800  11.418  0.1070 -0.3459 -0.0428
32641OCT     C165281   9.910   9.975  15.197  0.0812 -0.0431 -0.1070
32641OCT     C265282   9.958  10.427  15.372  0.3982  0.0539 -0.0781
32642OCT     C165283   1.984  22.136  15.283  0.2709 -0.2649 -0.1106
32642OCT     C265284   1.803  22.494  15.083  0.0462  0.0475  0.3322
32643OCT     C165285  21.890  10.569  19.703 -0.0115 -0.1301  0.1421
32643OCT     C265286  22.038  11.058  19.635 -0.0440 -0.3530  0.0537
32644OCT     C165287  14.443  11.487  22.012  0.2564  0.0565 -0.1612
32644OCT     C265288  14.664  11.274  22.369 -0.1696  0.2527  0.2791
32645OCT     C165289  10.569  19.099   3.449 -0.0326  0.0331  0.0439
32645OCT     C265290  10.581  18.911   3.874  0.2018  0.1642  0.2210
32646OCT     C165291   1.564  17.993   4.478  0.1373 -0.2344  0.1772
32646OCT     C265292   1.667  18.428   4.745 -0.3799 -0.2377  0.4448
32647OCT     C165293   9.417   6.995  10.045 -0.1357 -0.0502  0.0330
32647OCT     C265294   9.051   7.198   9.911  0.2123 -0.1454  0.0858
32648OCT     C165295   7.243  23.180   7.099 -0.2206 -0.0647 -0.2622
32648OCT     C265296   6.981  23.457   7.368 -0.4905 -0.2416 -0.1399
32649OCT     C165297  17.560   0.656   6.976  0.2213 -0.1260  0.1985
32649OCT     C265298  17.962   0.486   7.114 -0.1880 -0.0310  0.0600
32650OCT     C165299  18.961  22.798  21.728 -0.0784 -0.1421 -0.2500
32650OCT     C265300  18.577  22.955  21.544 -0.3894  0.1776 -0.0041
32651OCT     C165301   5.994   6.576   2.143  0.1585  0.2337 -0.0189
32651OCT     C265302   5.752   6.448   2.530  0.0611  0.1996 -0.4000
32652OCT     C165303   3.715  17.271  20.948  0.0400 -0.0462  0.1483
32652OCT     C265304   3.282  17.450  20.866 -0.1781  0.0756 -0.1936
32653OCT     C165305   6.250   8.626   1.381 -0.0937  0.1616 -0.1310
32653OCT     C265306   6.754   8.602   1.358 -0.0452 -0.5704  0.3093
32654OCT     C165307  21.934   1.864   3.533 -0.4137 -0.1784 -0.2814
32654OCT     C265308  21.778   1.383   3.476 -0.0959 -0.1887 -0.6553
32655OCT     C165309   9.820   3.959   1.022 -0.1688 -0.0593 -0.1996
32655OCT     C265310   9.560   4.331   0.947  0.1073  0.0927 -0.1723
32656OCT     C165311  17.596   2.644  21.612  0.1139  0.3234 -0.2539
32656OCT     C265312  18.010   2.866  21.407  0.1423 -0.1781  0.2686
32657OCT     C165313  15.297   9.928  19.313 -0.1406  0.0186 -0.1126
32657OCT     C265314  15.433  10.215  18.890  0.2471  0.0276 -0.3557
32658OCT     C165315  21.131  11.263  21.336 -0.1635 -0.0173 -0.1474
32658OCT     C265316  21.239  10.779  21.382 -0.2117  0.1167  0.1076
32659OCT     C165317  21.784  22.264  22.692  0.0533 -0.0070  0.0611
32659OCT     C265318  21.729  22.527  22.347  0.1499 -0.0414  0.0857
32660OCT     C165319   5.088  10.425  15.422  0.0404 -0.0558 -0.2478
32660OCT     C265320   4.839  10.806  15.448 -0.2967  0.2489  0.0988
32661OCT     C165321  19.597   0.465  17.746  0.0925 -0.2200  0.0664
32661OCT     C265322  19.590   0.708  17.302 -0.0986  0.1722  0.0987
32662OCT     C165323   7.926   7.325  12.306  0.0726  0.2587  0.1683
32662OCT     C265324   8.327   7.568  12.339 -0.2071 -0.3344  0.0287
32663OCT     C165325  16.326  23.227   2.933  0.2550  0.0879 -0.1146
32663OCT     C265326  16.149  23.654   2.904 -0.0852 -0.3525  0.1578
32664OCT     C165327   5.360   1.599  23.262 -0.1501  0.2591 -0.1541
32664OCT     C265328   5.313   1.529  22.774  0.2279 -0.0708 -0.1819
32665OCT     C165329  12.802  12.975  14.578 -0.0596  0.0101 -0.0592
32665OCT     C265330  12.675  12.992  15.029  0.1473 -0.1904  0.0875
32666OCT     C165331  10.836   4.051  20.611 -0.1058  0.2163  0.0607
32666OCT     C265332  11.084   4.239  20.904 -0.0986 -0.1119 -0.0174
32667OCT     C165333  23.070   6.708  17.902 -0.3726 -0.1671  0.5103
32667OCT     C265334  22.783   6.808  18.268 -0.0389 -0.3656  0.0830
32668OCT     C165335   5.691  10.409   5.745  0.3059  0.3857 -0.0239
32668OCT     C265336   5.574  10.373   5.235  0.2982 -0.0193 -0.3021
32669OCT     C165337  11.680   5.194   2.411 -0.0468  0.1626 -0.2307
32669OCT     C265338  12.007   5.507   2.373 -0.2482  0.1338  0.1795
32670OCT     C165339  22.643  13.775  22.720 -0.3444 -0.2013  0.2842
32670OCT     C265340  23.038  13.998  22.655 -0.0475  0.1493  0.0901
32671OCT     C165341  15.569  16.029   8.186 -0.1624  0.5407  0.3403
32671OCT     C265342  15.141  16.075   8.065  0.1436 -0.0194 -0.0429
32672OCT     C165343  15.345   2.584  20.391 -0.2019  0.2487 -0.2578
32672OCT     C265344  15.026   2.318  20.671  0.3188  0.0237 -0.0202
32673OCT     C165345  11.770   5.054  14.830  0.0021 -0.2754 -0.0419
32673OCT     C265346  11.374   4.868  14.630 -0.1314  0.0184  0.3099
32674OCT     C165347  15.676  11.737   7.695  0.4700 -0.1832  0.0687
32674OCT     C265348  15.194  11.603   7.648  0.0603 -0.1293  0.1792
32675OCT     C165349   4.238  15.907  22.136 -0.0760  0.2577  0.1252
32675OCT     C265350   4.393  15.435  22.097  0.1798 -0.0125 -0.0239
32676OCT     C165351   1.283  16.417   3.652  0.1324 -0.3306 -0.1915
32676OCT     C265352   0.852  16.519   3.717 -0.0783  0.0880  0.0833
32677OCT     C165353   5.745  11.245   2.971 -0.2192 -0.1820 -0.0907
32677OCT     C265354   5.275  11.323   2.783 -0.0178  0.0794 -0.0652
32678OCT     C165355  23.733  11.058   8.194 -0.0472  0.3657  0.0465
32678OCT     C265356  23.445  11.419   8.118  0.0465  0.0345  0.0171
32679OCT     C165357   2.153   2.735  17.605 -0.1517  0.0558  0.0258
32679OCT     C265358   2.042   2.596  18.019  0.0462 -0.0485  0.0335
32680OCT     C165359   1.972   6.846   8.511 -0.0772  0.0338 -0.0719
32680OCT     C265360   1.877   7.253   8.333 -0.1713  0.0354 -0.0489
32681OCT     C165361  10.084  19.250  19.604  0.1429 -0.2656 -0.1633
32681OCT     C265362   9.996  19.669  19.703 -0.2359 -0.0483  0.1472
32682OCT     C165363   0.611   6.429  11.329  0.0636  0.2345 -0.5211
32682OCT     C265364   0.703   5.929  11.155 -0.0893 -0.1354 -0.0033
32683OCT     C165365  16.497  13.278  19.985 -0.0572 -0.2230 -0.2229
32683OCT     C265366  16.156  13.316  19.679  0.3042 -0.0965 -0.1068
32684OCT     C165367  15.167   4.285  14.211 -0.4554  0.1283 -0.0638
32684OCT     C265368  15.217   4.705  14.128 -0.0027 -0.3030 -0.2940
32685OCT     C165369  10.378  23.286  18.921 -0.1855 -0.1617 -0.4088
32685OCT     C265370   9.899  23.221  18.851 -0.0927  0.3012 -0.0182
32686OCT     C165371   3.896   9.841  15.026  0.1207  0.3250 -0.1844
32686OCT     C265372   3.598   9.850  15.425 -0.0459 -0.1541 -0.0432
32687OCT     C165373  19.208  14.152  10.511 -0.0393 -0.0634  0.0929
32687OCT     C265374  18.978  14.306  10.877 -0.4398  0.1112 -0.1890
32688OCT     C165375  11.529  12.322   7.963 -0.0414 -0.2645 -0.1284
32688OCT     C265376  11.533  12.705   8.144  0.0644  0.1389  0.3282
32689OCT     C165377  16.311  17.457   8.711 -0.0554  0.1078  0.1272
32689OCT     C265378  16.758  17.319   8.789  0.4734 -0.2809 -0.1737
32690OCT     C165379  21.013  22.902  15.931 -0.0922  0.2061 -0.1476
32690OCT     C265380  21.172  23.291  15.748  0.1605 -0.0063 -0.0919
32691OCT     C165381  15.127   9.456  23.449  0.3047  0.1079 -0.1710
32691OCT     C265382  14.672   9.503  23.641 -0.0958 -0.0858 -0.0643
32692OCT     C165383  22.979   9.161  19.735  0.1952  0.1035  0.1770
32692OCT     C265384  22.833   9.437  19.380  0.1870 -0.1362 -0.1877
32693OCT     C165385  10.119  20.144  12.927  0.0122 -0.0481  0.0889
32693OCT     C265386  10.446  19.920  13.109 -0.0672 -0.0377 -0.1267
32694OCT     C165387  14.354  21.624  12.354  0.3631 -0.4587 -0.0314
32694OCT     C265388  14.193  21.391  12.762 -0.2536 -0.1612  0.1655
32695OCT     C165389   6.700  19.614   5.299  0.0436 -0.0503  0.1707
32695OCT     C265390   6.430  19.384   4.985  0.2833 -0.1336 -0.1689
32696OCT     C165391   0.750  20.363  10.817  0.0306  0.0142  0.0166
32696OCT     C265392   0.896  20.413  10.407  0.0678  0.0575  0.7493
32697OCT     C165393  19.717  19.674  11.613 -0.0932  0.1534  0.1258
32697OCT     C265394  19.413  20.076  11.813  0.3577  0.2283  0.0113
32698OCT     C165395   1.767  19.465  12.688 -0.0901  0.0166  0.2139
32698OCT     C265396   1.660  19.012  12.707  0.1992  0.2078  0.0331
32699OCT     C165397  22.750   0.213  17.425 -0.2170 -0.0417  0.0898
32699OCT     C265398  23.195   0.242  17.617  0.1498  0.1376  0.2472
32700OCT     C165399  20.664   9.040   2.236  0.2885  0.1136  0.1800
32700OCT     C265400  21.068   9.171   2.083 -0.0654  0.2389  0.1228
32701OCT     C165401  15.094   0.421   5.029 -0.0753 -0.3152  0.0640
32701OCT     C265402  14.968  23.725   4.890  0.1338  0.0127  0.2083
32702OCT     C165403  10.838  20.455  16.330  0.1358 -0.0127  0.1094
32702OCT     C265404  10.904  20.834  16.688 -0.2112  0.3333 -0.1564
32703OCT     C165405  19.102   5.886   6.391 -0.1201 -0.1275 -0.3754
32703OCT     C265406  18.926   5.686   6.019 -0.1595 -0.1455  0.0330
32704OCT     C165407   2.015   5.442   9.565  0.2518 -0.2526  0.0081
32704OCT     C265408   2.033   5.037   9.278 -0.1836  0.0395  0.0188
32705OCT     C165409  20.929  23.322  21.423 -0.2247 -0.2952  0.5400
32705OCT     C265410  20.856  23.229  21.846  0.0001  0.0594  0.0677
32706OCT     C165411   0.119   1.913   5.237 -0.1506 -0.3776 -0.1286
32706OCT     C265412  23.442   1.828   5.348  0.0989 -0.1445 -0.1060
32707OCT     C165413   2.452  13.530   1.853  0.1492  0.0965  0.0678
32707OCT     C265414   2.176  13.856   1.653  0.1806  0.0238  0.2961
32708OCT     C165415   6.806  14.957  11.567 -0.0771  0.4742 -0.1994
32708OCT     C265416   6.796  15.386  11.537 -0.2305 -0.0213 -0.0278
32709OCT     C165417  15.215   6.173  14.437  0.0235  0.0869  0.0002
32709OCT     C265418  15.610   5.977  14.597  0.0959 -0.2069  0.1456
32710OCT     C165419   9.436  13.618  12.893  0.1076  0.0000 -0.0679
32710OCT     C265420   9.747  13.908  13.076 -0.0484  0.3058  0.0533
32711OCT     C165421  12.711  21.378  16.533 -0.1393  0.1669 -0.1127
32711OCT     C265422  12.391  21.612  16.802  0.1335 -0.2758  0.0479
32712OCT     C165423  21.474  17.523  16.343  0.0965  0.1362  0.0392
32712OCT     C265424  21.936  17.308  16.263  0.0864  0.2246  0.2352
32713OCT     C165425   7.914   6.363  11.871  0.2638 -0.0321  0.0757
32713OCT     C265426   8.269   6.640  11.909  0.3563 -0.1258 -0.3044
32714OCT     C165427  12.879  19.708   5.925 -0.0914  0.0099  0.4344
32714OCT     C265428  12.618  19.794   6.297 -0.2370 -0.4107 -0.1337
32715OCT     C165429  19.261   1.270  19.384 -0.4607  0.0481  0.0607
32715OCT     C265430  19.435   1.082  19.778 -0.2473 -0.1619  0.4727
32716OCT     C165431   3.184  22.973  13.380  0.2270  0.0523 -0.1810
32716OCT     C265432   3.227  22.555  13.502  0.1369  0.1676 -0.2239
32717OCT     C165433   1.734  12.323  18.288 -0.0977  0.1721 -0.1539
32717OCT     C265434   2.014  12.693  18.189  0.0789  0.1643 -0.2934
32718OCT     C165435  17.067  20.848   9.646 -0.1471  0.0069 -0.0641
32718OCT     C265436  17.393  20.959   9.989  0.2051  0.0627 -0.2231
32719OCT     C165437  10.035   8.716  15.643  0.1942  0.1400  0.0742
32719OCT     C265438   9.655   8.622  15.926  0.1229 -0.0420 -0.0046
32720OCT     C165439  19.636  23.278  15.412 -0.0835 -0.1900  0.0103
32720OCT     C265440  19.415  23.532  15.060  0.1644 -0.0084 -0.0010
32721OCT     C165441  12.969   5.182   4.073  0.3468 -0.3572 -0.2252
32721OCT     C265442  13.180   5.311   3.697  0.0075 -0.0936  0.2712
32722OCT     C165443  14.575  22.019  18.627 -0.2244  0.0098 -0.0759
32722OCT     C265444  14.311  22.384  18.507 -0.0417  0.1354 -0.2321
32723OCT     C165445   2.173   3.462   6.218  0.0632 -0.2915 -0.2679
32723OCT     C265446   2.149   3.272   6.679  0.0786  0.1481 -0.0211
32724OCT     C165447   8.573  22.966   2.385  0.0981  0.1113  0.4393
32724OCT     C265448   8.438  23.106   2.787  0.2552 -0.2841  0.1249
32725OCT     C165449  17.789   7.461  17.737  0.1652 -0.2208 -0.2845
32725OCT     C265450  18.034   7.273  17.384 -0.1045 -0.1985  0.0175
32726OCT     C165451  20.520   9.226   7.344 -0.3789  0.1239 -0.1836
32726OCT     C265452  20.914   9.385   7.530  0.1141 -0.3168 -0.0485
32727OCT     C165453  17.760   8.219  20.551 -0.1839 -0.0701 -0.1450
32727OCT     C265454  17.410   8.451  20.751 -0.3348  0.0688  0.1103
32728OCT     C165455   9.698  18.682   0.287  0.0217  0.1098 -0.0301
32728OCT     C265456   9.866  18.830   0.685 -0.0593 -0.2606 -0.2644
32729OCT     C165457  22.077  14.205  17.299 -0.2660 -0.2854  0.2320
32729OCT     C265458  22.179  14.486  17.690  0.0399  0.1102 -0.0998
32730OCT     C165459   6.440   8.916   8.924 -0.1060  0.1514 -0.1023
32730OCT     C265460   6.695   8.698   9.232 -0.0591 -0.1522 -0.2046
32731OCT     C165461  11.923  12.608  11.743 -0.0883 -0.3306 -0.4889
32731OCT     C265462  11.671  12.285  11.910  0.1276 -0.1355 -0.0607
32732OCT     C165463  19.231  10.574  22.149 -0.1387 -0.0728 -0.1337
32732OCT     C265464  19.178  10.993  22.403 -0.3269 -0.1034 -0.0680
32733OCT     C165465  20.644   1.903   6.348 -0.3417  0.0529  0.0553
32733OCT     C265466  20.237   1.865   6.125 -0.0235  0.0618 -0.3401
32734OCT     C165467   9.707   6.479  21.749  0.1147 -0.1660  0.0588
32734OCT     C265468   9.793   6.911  21.652  0.0270  0.1411  0.1159
32735OCT     C165469  17.137  12.229   8.807  0.5753 -0.3202  0.0210
32735OCT     C265470  17.295  12.676   8.877 -0.2102  0.1258  0.1780
32736OCT     C165471   2.443   0.151  10.429 -0.0570  0.3017  0.0953
32736OCT     C265472   2.443   0.547  10.144  0.1370  0.2488  0.1299
32737OCT     C165473   8.488  10.314  17.538  0.2122  0.3397  0.0197
32737OCT     C265474   8.458  10.460  18.007  0.2198 -0.1514  0.1190
32738OCT     C165475  10.682  20.728   2.700 -0.0855 -0.0634  0.3495
32738OCT     C265476  10.957  21.090   2.513 -0.2876 -0.1550  0.0943
32739OCT     C165477  22.380  10.737  19.541  0.0831  0.3243 -0.0164
32739OCT     C265478  22.352  10.286  19.704  0.3499 -0.3682 -0.1051
32740OCT     C165479   9.534   8.083  20.698 -0.0247 -0.2538  0.0722
32740OCT     C265480   9.911   7.894  20.850 -0.2643 -0.2001  0.1769
32741OCT     C165481   8.626  22.419  18.848  0.1654  0.0329 -0.0277
32741OCT     C265482   8.235  22.612  18.872 -0.1111  0.1220 -0.0578
32742OCT     C165483  20.181   1.348   9.340  0.1912 -0.2615  0.1287
32742OCT     C265484  19.910   1.633   9.650  0.2675 -0.0747  0.1117
32743OCT     C165485   5.447   6.305   3.609 -0.1205  0.2852 -0.0071
32743OCT     C265486   5.780   6.562   3.371 -0.2105 -0.1050  0.1576
32744OCT     C165487   6.843   2.277  10.062 -0.2040  0.1844 -0.0960
32744OCT     C265488   7.249   2.457  10.245  0.0396 -0.2678  0.0163
32745OCT     C165489  23.238   2.324   0.942 -0.0328  0.0896  0.2154
32745OCT     C265490  23.000   2.008   1.174 -0.2608 -0.0200  0.0875
32746OCT     C165491  23.681  17.948   6.468 -0.1908 -0.0498 -0.0085
32746OCT     C265492  23.326  18.011   6.170 -0.2002  0.0639  0.1781
32747OCT     C165493  17.216  12.449   4.448 -0.1464  0.2237  0.0208
32747OCT     C265494  16.867  12.249   4.728  0.0289  0.2674 -0.2053
32748OCT     C165495  17.879   6.758  15.868  0.3198 -0.1057  0.0209
32748OCT     C265496  17.936   6.335  15.917  0.0170 -0.1940 -0.0641
32749OCT     C165497   5.494   0.822  15.905 -0.3674 -0.4689 -0.0871
32749OCT     C265498   5.376   1.024  16.321  0.2075 -0.1006 -0.0849
32750OCT     C165499   9.715   7.906  18.173  0.0670  0.0682 -0.0890
32750OCT     C265500   9.276   7.953  18.009 -0.0894 -0.3974 -0.0572
32751OCT     C165501   5.280  22.526   9.752  0.1682 -0.0758 -0.0580
32751OCT     C265502   5.513  22.242  10.001  0.1698 -0.0129 -0.1110
32752OCT     C165503  13.003  10.564   6.398 -0.0384  0.3795 -0.2463
32752OCT     C265504  13.045  10.125   6.247  0.2209  0.2436 -0.0589
32753OCT     C165505  11.758  21.517   9.568 -0.2735  0.0859 -0.4905
32753OCT     C265506  11.369  21.673   9.701  0.4183  0.0127 -0.2367
32754OCT     C165507   4.933  11.446  10.445  0.3346  0.1076 -0.1106
32754OCT     C265508   4.532  11.692  10.222 -0.0126 -0.1173 -0.1184
32755OCT     C165509  10.169  16.606   7.372 -0.0797 -0.0762 -0.1495
32755OCT     C265510  10.615  16.627   7.409 -0.0075  0.4451 -0.1171
32756OCT     C165511  10.607   6.340   1.390 -0.2619 -0.0299 -0.1663
32756OCT     C265512  10.256   6.203   1.662  0.1720 -0.1900  0.0389
32757OCT     C165513   0.949  15.564  16.290  0.2410  0.1933 -0.1312
32757OCT     C265514   1.245  15.364  16.524 -0.0377  0.0951  0.1354
32758OCT     C165515  20.816   3.506  20.510  0.1333 -0.1182 -0.3203
32758OCT     C265516  20.440   3.524  20.239 -0.0917 -0.0805 -0.0087
32759OCT     C165517   3.262   1.633   3.699 -0.1693  0.1751 -0.4825
32759OCT     C265518   3.107   2.045   3.963 -0.1360  0.0743  0.0943
32760OCT     C165519  16.702  16.818   3.089 -0.1928  0.3489 -0.0529
32760OCT     C265520  16.854  16.358   3.052 -0.0275  0.0515 -0.0556
32761OCT     C165521  14.483  21.690   6.923  0.0078 -0.0996  0.0759
32761OCT     C265522  14.864  21.555   7.141  0.1858  0.0770  0.2458
32762OCT     C165523   6.234  11.141  15.031 -0.2527  0.2845 -0.0720
32762OCT     C265524   6.231  11.007  14.602  0.3034 -0.0459  0.1756
32763OCT     C165525   7.610   3.149  19.809  0.0045 -0.3344 -0.0472
32763OCT     C265526   7.468   2.831  19.567 -0.0587  0.3224  0.1279
32764OCT     C165527   3.668  19.613   5.501  0.1846 -0.1424  0.1713
32764OCT     C265528   4.136  19.507   5.503  0.0415 -0.0479 -0.1415
32765OCT     C165529  17.397  19.328  19.461 -0.0313  0.0344  0.1151
32765OCT     C265530  17.185  18.995  19.685 -0.3629 -0.1501 -0.1937
32766OCT     C165531  15.814  17.243   9.169  0.1399  0.4631  0.2575
32766OCT     C265532  15.402  17.167   9.103  0.1319 -0.1986 -0.0531
32767OCT     C165533  19.911  15.568  20.133 -0.3088 -0.0950 -0.1121
32767OCT     C265534  19.600  15.870  20.288  0.2207  0.2206 -0.1110
32768OCT     C165535  16.199   1.113  16.412 -0.1591  0.1528  0.0727
32768OCT     C265536  16.594   0.958  16.582 -0.0400 -0.0663 -0.0786
32769OCT     C165537   8.302  13.793  21.359 -0.1406 -0.1605  0.3201
32769OCT     C265538   8.525  13.409  21.318 -0.2414 -0.2194 -0.1113
32770OCT     C165539  14.125  11.352  19.632  0.1206 -0.0989  0.3268
32770OCT     C265540  14.160  11.300  20.119  0.1342 -0.1667 -0.1241
32771OCT     C165541   0.735   2.107   0.177  0.1311  0.0451  0.3458
32771OCT     C265542   0.466   2.417   0.144 -0.2414  0.3719  0.1409
32772OCT     C165543  20.366   8.573  23.112  0.1648  0.3022 -0.0236
32772OCT     C265544  20.380   8.162  22.958 -0.5920 -0.0350 -0.3077
32773OCT     C165545  15.151  18.332  16.248 -0.0420 -0.0575 -0.1145
32773OCT     C265546  14.704  18.329  16.179 -0.0738 -0.2312  0.2047
32774OCT     C165547  17.024  14.073  20.510 -0.1038 -0.1364  0.2231
32774OCT     C265548  16.777  13.693  20.395  0.0233 -0.0505  0.0546
32775OCT     C165549   1.539  18.747   4.173 -0.0022  0.3208 -0.2809
32775OCT     C265550   1.411  19.056   3.828 -0.2056  0.1511 -0.3140
32776OCT     C165551   3.147  17.768   5.930 -0.0138 -0.1177 -0.0371
32776OCT     C265552   3.604  17.719   5.899 -0.0771  0.1256  0.1368
32777OCT     C165553   1.725  12.300  11.306 -0.0004  0.1066  0.3205
32777OCT     C265554   1.473  11.937  11.104 -0.0146  0.0594  0.0509
32778OCT     C165555  10.321  13.825   2.973  0.2938 -0.0675  0.0614
32778OCT     C265556  10.298  14.202   3.204  0.0763  0.0451  0.1629
32779OCT     C165557   6.668   7.699  20.984  0.1571  0.3814 -0.3707
32779OCT     C265558   6.741   8.079  20.752  0.5268  0.0281  0.1335
32780OCT     C165559   5.402   1.308  21.683  0.0915  0.0706 -0.4050
32780OCT     C265560   5.590   1.560  22.070 -0.1293 -0.1299  0.2147
32781OCT     C165561  22.824   4.104  21.591  0.0100  0.1276 -0.2089
32781OCT     C265562  23.194   3.868  21.788 -0.1438  0.0512  0.4386
32782OCT     C165563   8.778   2.205  13.844 -0.1205 -0.2547 -0.0854
32782OCT     C265564   8.389   1.946  13.818  0.0645  0.2856 -0.1813
32783OCT     C165565   0.022   9.641  16.451 -0.2428 -0.2799 -0.2343
32783OCT     C265566  23.641   9.714  16.883 -0.2005  0.2887  0.1162
32784OCT     C165567  15.761  20.829  17.470 -0.1593  0.3263  0.0356
32784OCT     C265568  16.066  20.461  17.626  0.3288 -0.2512 -0.3316
32785OCT     C165569  14.799  23.164   6.002 -0.1064  0.0301 -0.2792
32785OCT     C265570  14.363  23.125   6.161 -0.1256  0.1239 -0.2866
32786OCT     C165571  11.852  13.817  19.462 -0.0453 -0.1192 -0.2962
32786OCT     C265572  11.829  13.876  19.918  0.2104  0.2475  0.1104
32787OCT     C165573   6.701  11.543  20.326 -0.0444  0.0614  0.0758
32787OCT     C265574   6.997  11.353  20.055  0.0826 -0.1432  0.0397
32788OCT     C165575  21.760  19.851   2.079  0.0914  0.0214  0.1615
32788OCT     C265576  21.673  20.261   2.290 -0.1054  0.3589 -0.0608
32789OCT     C165577  12.613  10.290   4.918 -0.0182  0.1476  0.1893
32789OCT     C265578  13.018  10.134   5.101  0.2715  0.0117 -0.0856
32790OCT     C165579  15.380  12.104  20.299  0.2258  0.1085 -0.2129
32790OCT     C265580  15.125  11.709  20.543  0.1200 -0.1781  0.0283
32791OCT     C165581   4.129  22.360  20.181  0.0331 -0.2461  0.0629
32791OCT     C265582   4.126  22.698  19.853 -0.1999 -0.0688  0.4396
32792OCT     C165583  16.743   0.426   9.897  0.1785  0.0165 -0.0365
32792OCT     C265584  16.894   0.489  10.362 -0.1798 -0.0095  0.0939
32793OCT     C165585  12.103   8.017  20.633 -0.0883 -0.0635  0.1738
32793OCT     C265586  12.121   8.443  20.690 -0.0382  0.1274  0.0992
32794OCT     C165587  20.576   5.484   3.669  0.0399  0.2429  0.2506
32794OCT     C265588  20.731   5.807   3.375 -0.1400  0.1495 -0.0394
32795OCT     C165589   7.711  13.394   1.450  0.0653 -0.0326 -0.1106
32795OCT     C265590   7.536  13.183   1.798  0.0241 -0.3023 -0.0832
32796OCT     C165591  19.383  21.494  19.817 -0.0826 -0.0753  0.1806
32796OCT     C265592  19.300  21.885  19.516  0.1273 -0.2526 -0.1351
32797OCT     C165593   6.359   1.787  20.899 -0.4520 -0.0204 -0.0393
32797OCT     C265594   6.421   1.367  21.068 -0.0628  0.1923  0.1147
32798OCT     C165595  20.072  17.621   2.548  0.0997 -0.1477 -0.0450
32798OCT     C265596  20.008  17.341   2.938 -0.3295  0.2199  0.1977
32799OCT     C165597   2.697  16.888   9.670 -0.2066 -0.0294 -0.0403
32799OCT     C265598   2.959  16.853   9.274  0.1141  0.4176  0.3114
32800OCT     C165599  14.786  15.084   7.670  0.0260  0.1817 -0.1352
32800OCT     C265600  14.961  14.660   7.628 -0.2194  0.3786 -0.0381
32801OCT     C165601   1.222  10.844  22.618 -0.2088  0.1318  0.0667
32801OCT     C265602   1.180  11.017  22.211 -0.2206 -0.0006  0.0016
32802OCT     C165603  14.153  23.378  13.876 -0.1539  0.0447  0.0483
32802OCT     C265604  13.734  23.397  14.024 -0.1119 -0.0694  0.1630
32803OCT     C165605  13.297   3.804   2.638 -0.4566  0.3634  0.0885
32803OCT     C265606  13.477   3.614   2.226  0.0169 -0.0092  0.1640
32804OCT     C165607   4.240   4.418   0.756  0.2823 -0.0387  0.0201
32804OCT     C265608   4.080   4.459   1.181 -0.4507  0.0453  0.2076
32805OCT     C165609  12.059  23.047  16.814  0.1413 -0.0813 -0.0214
32805OCT     C265610  11.923  22.742  16.425  0.0007 -0.0081 -0.1220
32806OCT     C165611   7.793  18.907   6.850 -0.2629 -0.4289 -0.1128
32806OCT     C265612   7.487  18.673   6.549 -0.1049 -0.0849  0.0181
32807OCT     C165613   6.856  17.860   8.279  0.2719 -0.0353 -0.1041
32807OCT     C265614   6.727  17.461   7.995  0.3345  0.0419  0.0545
32808OCT     C165615   2.866  14.907  14.805  0.0237 -0.1821  0.1981
32808OCT     C265616   3.201  14.520  14.717  0.0522 -0.1297  0.2143
32809OCT     C165617   8.976  15.859  22.160  0.0462 -0.3010  0.0865
32809OCT     C265618   9.375  15.694  22.028  0.1596  0.1588 -0.1588
32810OCT     C165619  15.920  10.946  23.255 -0.1211 -0.0317 -0.0503
32810OCT     C265620  15.556  10.913  22.968  0.3536 -0.1346 -0.3102
32811OCT     C165621  21.636   8.620  10.857 -0.1946 -0.0203 -0.0305
32811OCT     C265622  21.968   8.304  10.658 -0.0259 -0.0587 -0.2363
32812OCT     C165623  14.407   7.607  23.031  0.0808 -0.2427 -0.4476
32812OCT     C265624  14.130   7.886  23.325 -0.3213  0.3172  0.1872
32813OCT     C165625  18.209  12.623  18.065 -0.1836  0.0675 -0.2127
32813OCT     C265626  18.380  12.824  17.676 -0.1297 -0.1400 -0.2574
32814OCT     C165627   0.049   4.477  10.732  0.0851 -0.1056  0.3583
32814OCT     C265628   0.466   4.549  10.952 -0.1398  0.0446  0.1118
32815OCT     C165629   5.134  16.993  14.044 -0.2208 -0.0498  0.4882
32815OCT     C265630   5.436  16.888  14.317 -0.2078  0.0652 -0.3008
32816OCT     C165631  17.358   6.994   6.014 -0.2162 -0.0031  0.1671
32816OCT     C265632  17.178   6.768   5.650  0.2497  0.1522 -0.0703
32817OCT     C165633  18.668  19.824  14.884 -0.0468  0.1640 -0.1332
32817OCT     C265634  19.003  19.872  15.186  0.1777  0.1150  0.1435
32818OCT     C165635  15.291   7.748  13.531  0.1225 -0.3516  0.6151
32818OCT     C265636  14.898   7.526  13.766 -0.1186 -0.0114  0.3063
32819OCT     C165637  16.909  13.568   1.224  0.0763  0.0766  0.0067
32819OCT     C265638  16.741  14.007   1.232 -0.2885  0.1303  0.0023
32820OCT     C165639  18.999   1.914  13.309 -0.2956 -0.6137 -0.1199
32820OCT     C265640  18.937   1.441  13.268 -0.1309  0.1058  0.1472
32821OCT     C165641  15.388   3.844  13.353  0.2251  0.1909  0.1701
32821OCT     C265642  15.414   3.528  13.714  0.1089 -0.1332  0.1410
32822OCT     C165643   3.976   2.459  20.902  0.2784  0.0654 -0.0108
32822OCT     C265644   4.338   2.718  20.680 -0.0706 -0.1884 -0.0832
32823OCT     C165645  21.629  16.926  23.454 -0.0305  0.1225 -0.0479
32823OCT     C265646  21.712  16.523  23.713 -0.2049  0.3298  0.1982
32824OCT     C165647  19.280  11.127  14.374 -0.2918 -0.2350  0.1361
32824OCT     C265648  19.116  11.118  13.925 -0.1627  0.1857  0.0521
32825OCT     C165649   8.857   2.369   3.082 -0.1553 -0.0170  0.1418
32825OCT     C265650   8.928   2.669   3.391  0.3443 -0.0195  0.0897
32826OCT     C165651  11.435  10.749  10.054  0.0080  0.3763  0.1347
32826OCT     C265652  11.381  10.445   9.753  0.2617  0.0902  0.0190
32827OCT     C165653  10.608  10.830  17.465 -0.1074 -0.1685 -0.1818
32827OCT     C265654  10.659  11.184  17.832  0.5693  0.3221 -0.0306
32828OCT     C165655   0.703  17.765  16.204 -0.3361  0.0866  0.3363
32828OCT     C265656   0.402  17.891  15.805 -0.2831  0.4624  0.2600
32829OCT     C165657   9.714   9.189   1.040 -0.1167  0.2060 -0.0698
32829OCT     C265658   9.343   9.449   1.182 -0.0857  0.0233  0.0015
32830OCT     C165659   7.759   9.097  23.082  0.3274 -0.2117  0.2016
32830OCT     C265660   7.984   9.448  22.928 -0.4904  0.2674  0.3354
32831OCT     C165661   7.773  17.036   3.058  0.3470  0.1838 -0.1824
32831OCT     C265662   8.110  16.815   2.789  0.0989 -0.2081  0.0980
32832OCT     C165663  22.727   5.134  11.258 -0.3396  0.0437  0.0399
32832OCT     C265664  23.090   4.794  11.254 -0.1737  0.2121 -0.1219
32833OCT     C165665   9.179   4.382  16.366  0.1948 -0.3362 -0.1899
32833OCT     C265666   8.744   4.543  16.444  0.0718 -0.2963  0.0024
32834OCT     C165667  22.805   1.187  21.835  0.0241 -0.1158  0.1793
32834OCT     C265668  22.643   1.375  22.248 -0.3527 -0.0491  0.3633
32835OCT     C165669  10.875  12.162   8.047 -0.2945 -0.1978  0.0561
32835OCT     C265670  11.151  12.408   8.300  0.0725  0.4221  0.0041
32836OCT     C165671   9.010  13.665  14.134 -0.1754 -0.3415  0.0728
32836OCT     C265672   9.030  13.236  14.353 -0.3702  0.1126  0.0928
32837OCT     C165673  17.560   0.611   6.431 -0.3905  0.2066 -0.3260
32837OCT     C265674  17.138   0.701   6.587 -0.0951  0.1125 -0.1941
32838OCT     C165675  11.363   9.726  19.238  0.2386 -0.1660  0.0819
32838OCT     C265676  11.484   9.401  18.898  0.1715  0.0690  0.1175
32839OCT     C165677  22.672  22.400   0.956  0.3384  0.4232  0.0657
32839OCT     C265678  22.483  22.734   1.227  0.1013 -0.3343 -0.0985
32840OCT     C165679   2.161   0.392   0.781  0.2434 -0.1200 -0.0838
32840OCT     C265680   2.206   0.766   0.486  0.0015 -0.2943  0.0117
32841OCT     C165681  16.627  19.756  13.872 -0.1138  0.3146  0.1608
32841OCT     C265682  16.205  19.581  14.004  0.0919  0.0616 -0.1193
32842OCT     C165683  18.604  23.735  20.101 -0.1797 -0.0411 -0.2965
32842OCT     C265684  18.989  23.531  19.957 -0.0850 -0.2641  0.1720
32843OCT     C165685  18.117  19.441   4.499  0.1712  0.3659 -0.1993
32843OCT     C265686  17.785  19.554   4.206  0.0284  0.0956 -0.2305
32844OCT     C165687   4.178  17.754   8.500 -0.0497  0.0600  0.0378
32844OCT     C265688   4.333  17.314   8.580  0.1972  0.2451 -0.1176
32845OCT     C165689  21.645   1.477  14.587  0.2011 -0.2414  0.1755
32845OCT     C265690  21.562   1.830  14.285 -0.0901 -0.2263  0.0234
32846OCT     C165691  17.428   8.768   1.189 -0.0850  0.1593 -0.2293
32846OCT     C265692  17.357   8.925   1.680 -0.0511 -0.0996  0.1196
32847OCT     C165693   9.380  22.498   8.224  0.1312  0.0252  0.1670
32847OCT     C265694   9.363  22.849   8.547  0.0898 -0.4502  0.1554
32848OCT     C165695   0.133   9.235   6.207 -0.1394 -0.3334 -0.1352
32848OCT     C265696  23.405   9.229   6.214  0.0808 -0.1082  0.0427
32849OCT     C165697  22.463  22.729   6.744  0.0006  0.0440  0.0777
32849OCT     C265698  22.509  22.978   6.386  0.3675 -0.0019 -0.2404
32850OCT     C165699  13.442  13.003  15.392  0.0464 -0.0044 -0.1800
32850OCT     C265700  12.991  12.924  15.482 -0.1332  0.0568  0.0008
32851OCT     C165701  18.892  18.664   1.516 -0.4684  0.2133  0.1032
32851OCT     C265702  18.670  18.815   1.130 -0.2626  0.1240 -0.0690
32852OCT     C165703  19.512   0.704  21.045 -0.3704  0.4125 -0.0730
32852OCT     C265704  19.815   0.672  21.364 -0.0476 -0.0812 -0.1251
32853OCT     C165705   1.668  15.164  17.287 -0.2303 -0.1654 -0.0277
32853OCT     C265706   1.795  14.909  17.681 -0.2631 -0.4078  0.0280
32854OCT     C165707  10.517   6.010  19.865 -0.0031  0.1522 -0.1122
32854OCT     C265708  10.164   6.084  19.557  0.3785 -0.2090 -0.0489
32855OCT     C165709  11.169  19.160  10.530  0.2615 -0.2162 -0.1004
32855OCT     C265710  11.591  19.016  10.648  0.2649  0.5551  0.2069
32856OCT     C165711  18.212  10.826  11.164  0.3035 -0.0978  0.0476
32856OCT     C265712  18.147  10.709  10.683  0.3677  0.0727 -0.1898
32857OCT     C165713  14.743  21.850   5.277  0.0329  0.3472 -0.2954
32857OCT     C265714  14.840  21.590   4.907 -0.1580  0.1273  0.1685
32858OCT     C165715  12.764  17.178   6.747 -0.0596 -0.2097 -0.0523
32858OCT     C265716  13.180  17.229   6.676  0.0365 -0.0232 -0.5764
32859OCT     C165717  22.637   7.952  11.997  0.2147  0.2777  0.4275
32859OCT     C265718  22.228   8.109  12.157 -0.4069  0.0585  0.1358
32860OCT     C165719  16.257  16.418  21.692  0.1249  0.1013 -0.0594
32860OCT     C265720  16.246  16.803  21.347  0.0575 -0.0393  0.1450
32861OCT     C165721  10.298  11.316  17.457  0.1645 -0.0676 -0.1800
32861OCT     C265722  10.290  11.777  17.306  0.0425  0.3205 -0.1583
32862OCT     C165723  14.219   0.246   3.840 -0.1148 -0.1989  0.1786
32862OCT     C265724  14.345  23.710   3.494 -0.0008  0.1027 -0.2163
32863OCT     C165725   7.114   3.128   2.580 -0.1292 -0.1599 -0.1090
32863OCT     C265726   6.778   3.321   2.882 -0.0094  0.2009  0.1587
32864OCT     C165727  16.163   0.913   1.326  0.0329 -0.0253 -0.0354
32864OCT     C265728  16.230   1.083   0.919  0.6146  0.1825  0.0670
32865OCT     C165729   4.444   7.252  17.551  0.0569 -0.0504 -0.2226
32865OCT     C265730   4.440   6.775  17.694 -0.1684  0.0299 -0.3523
32866OCT     C165731   3.595  19.225   0.931  0.3554  0.1330  0.1675
32866OCT     C265732   3.270  19.367   0.577 -0.0342  0.2343  0.0399
32867OCT     C165733   6.016   1.204  23.604  0.3689  0.2256 -0.4155
32867OCT     C265734   6.100   1.412   0.255  0.0031  0.2878 -0.0250
32868OCT     C165735  16.204  14.089  22.900 -0.0632 -0.4530  0.1039
32868OCT     C265736  15.972  13.712  22.967  0.2721  0.1624 -0.0869
32869OCT     C165737  20.927  17.661   4.183  0.1392  0.3711  0.1649
32869OCT     C265738  20.547  17.583   3.924  0.0231 -0.0549 -0.0073
32870OCT     C165739  16.851   5.095   4.831  0.0270  0.0340  0.6022
32870OCT     C265740  16.876   4.725   4.462 -0.0221 -0.0858 -0.2052
32871OCT     C165741  10.866   0.936  10.870  0.1185 -0.4375 -0.0122
32871OCT     C265742  11.044   1.365  11.067 -0.0854  0.0196 -0.2988
32872OCT     C165743  11.239  14.075  18.992  0.2098 -0.5037  0.0790
32872OCT     C265744  11.024  13.803  19.315 -0.1788 -0.1820 -0.3602
32873OCT     C165745  12.685   6.948  11.090  0.0030  0.5569  0.0932
32873OCT     C265746  12.292   6.853  10.759  0.3776 -0.0999  0.0029
32874OCT     C165747   2.384   4.055   8.475  0.1693 -0.0278  0.2574
32874OCT     C265748   2.837   4.153   8.629 -0.1453 -0.2599 -0.1264
32875OCT     C165749   7.824  18.548  22.091 -0.0569  0.1685 -0.1785
32875OCT     C265750   8.071  18.874  22.279  0.0092 -0.1262  0.4132
32876OCT     C165751   4.639  20.646  17.051 -0.0756  0.0882  0.2207
32876OCT     C265752   4.242  20.764  16.981 -0.0934  0.2616  0.6333
32877OCT     C165753   8.807   5.386  12.219 -0.1197  0.0518 -0.1177
32877OCT     C265754   8.988   5.700  11.946  0.0399  0.0736  0.1495
32878OCT     C165755  23.285  20.663  18.901  0.2034 -0.3422  0.1938
32878OCT     C265756  23.316  21.053  18.664  0.0215  0.1683  0.1827
32879OCT     C165757   2.430  17.373   3.670  0.5459 -0.1079  0.4111
32879OCT     C265758   2.359  17.175   3.274  0.0883  0.0370 -0.0671
32880OCT     C165759   6.686  19.169  18.815 -0.0319 -0.1676 -0.0389
32880OCT     C265760   6.712  19.476  19.108  0.1745  0.1950 -0.3342
32881OCT     C165761  16.307  20.241   3.183 -0.1674 -0.0523 -0.3682
32881OCT     C265762  15.940  20.464   3.346  0.2292 -0.0219 -0.1072
32882OCT     C165763   5.654  17.569  14.292  0.2473  0.0151 -0.2748
32882OCT     C265764   5.631  17.224  13.963 -0.4697 -0.0483  0.3295
32883OCT     C165765  13.177   2.964  11.966  0.0952 -0.2566 -0.1179
32883OCT     C265766  12.694   2.951  11.855  0.1352 -0.2669  0.0556
32884OCT     C165767   4.759  16.239  14.009 -0.2428 -0.0304  0.3202
32884OCT     C265768   4.384  16.066  14.256  0.0939 -0.0314 -0.0558
32885OCT     C165769   8.419   4.672   6.132  0.4127  0.2423  0.0662
32885OCT     C265770   8.749   4.514   6.393 -0.1274  0.1502 -0.1937
32886OCT     C165771  10.019  13.480   9.802  0.1922  0.1263 -0.0669
32886OCT     C265772  10.196  13.755   9.482  0.1163  0.1158 -0.0710
32887OCT     C165773  20.237  23.579   1.483  0.0618 -0.6704  0.0696
32887OCT     C265774  20.260  23.472   1.897 -0.4829  0.2482  0.0306
32888OCT     C165775   2.484   7.973  16.024  0.0712  0.1501  0.0327
32888OCT     C265776   2.788   7.697  16.219  0.0769 -0.0646 -0.0272
32889OCT     C165777   7.789  13.133  13.254  0.0203 -0.2249 -0.3323
32889OCT     C265778   7.387  12.964  13.192 -0.1608 -0.2996 -0.0173
32890OCT     C165779   4.673  18.016  10.173  0.1300  0.0276 -0.0677
32890OCT     C265780   4.884  18.125  10.621 -0.0709 -0.1291  0.1317
32891OCT     C165781  15.151  10.756   7.602 -0.1448  0.2598  0.2251
32891OCT     C265782  15.225  10.439   7.917 -0.4399  0.2192  0.1677
32892OCT     C165783  20.836   7.742   3.268  0.1398 -0.1950  0.0676
32892OCT     C265784  21.005   7.339   3.086  0.0387 -0.1084 -0.2526
32893OCT     C165785   9.631   7.415   2.298  0.1102 -0.1954  0.1420
32893OCT     C265786   9.692   7.851   2.246  0.2391 -0.2091 -0.1107
32894OCT     C165787  12.059   9.235  11.555  0.0961  0.1659 -0.0273
32894OCT     C265788  12.181   9.263  11.132  0.0130 -0.0885  0.1369
32895OCT     C165789  19.892   7.029  23.413  0.1743  0.0428  0.1527
32895OCT     C265790  19.652   6.841   0.001 -0.2174  0.1174  0.6130
32896OCT     C165791  11.236   4.848   5.661  0.2249  0.1704  0.2514
32896OCT     C265792  11.024   5.194   5.870  0.1285  0.1867 -0.0083
32897OCT     C165793   0.873   7.852   9.318  0.4253  0.3406 -0.0524
32897OCT     C265794   1.332   7.837   9.313 -0.0506  0.2905  0.0379
32898OCT     C165795  10.730  15.315  19.635 -0.1302 -0.1802 -0.4692
32898OCT     C265796  10.918  14.932  19.394 -0.0932  0.0587 -0.0266
32899OCT     C165797  14.674  11.842   8.308 -0.0001  0.1959  0.0009
32899OCT     C265798  14.702  11.516   8.003  0.1964  0.2090  0.1113
32900OCT     C165799   1.991   2.239  17.602  0.1653 -0.1706 -0.1423
32900OCT     C265800   1.677   2.598  17.696 -0.0096 -0.2167 -0.1006
32901OCT     C165801   5.324  13.496   2.961  0.0252  0.2915  0.1734
32901OCT     C265802   5.240  13.482   3.421 -0.0989  0.1560 -0.2016
32902OCT     C165803  17.958  13.568  15.258 -0.1417  0.0772 -0.2913
32902OCT     C265804  18.143  13.960  15.021 -0.1354 -0.0619  0.2455
32903OCT     C165805  22.833   4.520   6.669  0.1647  0.5421  0.0494
32903OCT     C265806  22.561   4.183   6.933  0.0901 -0.0272  0.3409
32904OCT     C165807   6.304   4.014  22.593  0.2266  0.0407 -0.3427
32904OCT     C265808   6.578   4.412  22.614 -0.3191  0.1009  0.2803
32905OCT     C165809   1.372   5.059  23.136 -0.3987 -0.1251  0.0288
32905OCT     C265810   0.893   4.919  23.115 -0.2199 -0.0671 -0.1173
32906OCT     C165811  17.575  23.449   2.454 -0.0248 -0.2769 -0.0878
32906OCT     C265812  17.169  23.341   2.234  0.2150 -0.0875  0.1547
32907OCT     C165813   3.172  16.429  10.044 -0.2472 -0.1588 -0.2288
32907OCT     C265814   2.814  16.392   9.761  0.4382  0.3228  0.1041
32908OCT     C165815   1.936  10.588  17.491  0.1417 -0.1817 -0.0480
32908OCT     C265816   2.210  10.963  17.415  0.2985 -0.2896  0.1581
32909OCT     C165817   3.471  10.687  12.953 -0.1431 -0.3146 -0.1366
32909OCT     C265818   3.052  10.948  13.049 -0.0781  0.1404  0.3084
32910OCT     C165819   8.387   8.157  16.881  0.0916 -0.2087  0.3770
32910OCT     C265820   8.418   8.161  17.351  0.1731  0.2682  0.2403
32911OCT     C165821   5.238  16.464  20.934 -0.2397 -0.2811  0.0136
32911OCT     C265822   5.612  16.229  20.796  0.4345  0.1445  0.1442
32912OCT     C165823  18.048  19.758   1.108  0.1223 -0.1432 -0.0359
32912OCT     C265824  17.706  20.151   1.083  0.0983  0.0844 -0.1365
32913OCT     C165825   3.958  17.797  18.926 -0.1406  0.2025 -0.5503
32913OCT     C265826   3.806  18.113  19.218 -0.0985  0.0531  0.1078
32914OCT     C165827   5.361   5.278   7.304  0.3156 -0.2255 -0.5288
32914OCT     C265828   4.926   5.153   7.327 -0.1609  0.4044  0.1237
32915OCT     C165829   1.143  23.638   9.988 -0.0782  0.1549  0.1377
32915OCT     C265830   0.995  23.632  10.383  0.0599 -0.1691 -0.1012
32916OCT     C165831  13.052  13.575   1.139  0.3164  0.3667 -0.3864
32916OCT     C265832  12.609  13.511   1.308 -0.2695  0.0132 -0.0411
32917OCT     C165833  20.292  18.718   6.156  0.2665 -0.2728 -0.5030
32917OCT     C265834  20.041  18.465   5.875 -0.0044  0.1366  0.0810
32918OCT     C165835   0.062   8.197   4.221  0.1686  0.0098 -0.0229
32918OCT     C265836   0.494   8.321   4.227 -0.0060 -0.3198 -0.1975
32919OCT     C165837   2.358  10.008   7.547 -0.0303 -0.3906 -0.1020
32919OCT     C265838   2.535   9.801   7.157 -0.1893 -0.1332 -0.1708
32920OCT     C165839  16.058  10.615  14.390 -0.3414  0.2513  0.4381
32920OCT     C265840  15.921  10.387  14.799  0.1473  0.0802 -0.6241
32921OCT     C165841  19.468   5.673  15.612  0.1606  0.2244 -0.0242
32921OCT     C265842  19.648   5.345  15.296  0.2200 -0.0851  0.2025
32922OCT     C165843  10.429  22.699   2.968 -0.3979  0.1062 -0.0488
32922OCT     C265844  10.477  23.163   3.050 -0.0216  0.0081  0.5539
32923OCT     C165845  16.454   8.348   5.896 -0.5430 -0.1249 -0.0545
32923OCT     C265846  16.560   7.908   5.814 -0.1743 -0.0677 -0.1521
32924OCT     C165847  12.995  23.260  22.565 -0.0311 -0.2405 -0.2498
32924OCT     C265848  12.517  23.311  22.661  0.0854  0.3508  0.3029
32925OCT     C165849  11.916  22.116  19.960 -0.3658 -0.2274 -0.2308
32925OCT     C265850  11.593  22.260  19.614  0.3127 -0.1035 -0.1593
32926OCT     C165851   0.274   4.589  19.188 -0.0244 -0.1404 -0.1421
32926OCT     C265852  23.572   4.760  19.346  0.1467  0.2713  0.1247
32927OCT     C165853  19.421  10.905  16.272 -0.2011 -0.2065  0.0575
32927OCT     C265854  19.785  10.738  16.023  0.0743 -0.0009 -0.1112
32928OCT     C165855  18.433  10.471  10.261  0.3947 -0.1741  0.0571
32928OCT     C265856  18.015  10.724  10.196  0.0234  0.0111 -0.0217
32929OCT     C165857   9.890   5.380   9.593 -0.0243 -0.2561 -0.2813
32929OCT     C265858  10.135   5.522   9.283  0.1843  0.0785 -0.0299
32930OCT     C165859   1.341   1.671   0.749  0.1079  0.0229 -0.1935
32930OCT     C265860   1.542   1.878   1.105 -0.1832 -0.0944  0.2696
32931OCT     C165861   9.051  12.102  23.343 -0.0318 -0.0793 -0.0835
32931OCT     C265862   8.562  12.104  23.291 -0.0293 -0.1983 -0.0239
32932OCT     C165863   4.346   6.879  17.195  0.0182 -0.0679  0.1602
32932OCT     C265864   4.748   6.776  17.322  0.0347  0.1629  0.4304
32933OCT     C165865   5.377  20.804  11.184 -0.2051 -0.3312 -0.0674
32933OCT     C265866   5.613  20.678  11.552 -0.0392  0.0853 -0.0354
32934OCT     C165867   7.360  18.377   4.556 -0.1814 -0.1321  0.0740
32934OCT     C265868   7.339  18.836   4.604 -0.2517  0.1876  0.2054
32935OCT     C165869  15.237   8.312  14.378  0.2558  0.0181 -0.0118
32935OCT     C265870  15.013   8.181  13.991 -0.1659  0.3031 -0.0976
32936OCT     C165871   0.958  16.619  10.974  0.1427 -0.1147  0.0953
32936OCT     C265872   1.252  16.642  11.280 -0.2157 -0.1418 -0.0137
32937OCT     C165873   5.999  23.043  19.919  0.0481 -0.2503  0.0338
32937OCT     C265874   6.363  23.130  20.157 -0.2806  0.1287 -0.0450
32938OCT     C165875   1.765  23.336  17.763  0.1511  0.3708 -0.2545
32938OCT     C265876   2.183  23.421  17.878  0.1529  0.1633 -0.1456
32939OCT     C165877  21.866   8.160   5.249 -0.3354 -0.3608 -0.2993
32939OCT     C265878  21.629   7.803   5.286  0.2197 -0.1297 -0.1493
32940OCT     C165879   4.293  14.790  16.172  0.2404  0.1469  0.0828
32940OCT     C265880   3.966  15.032  15.908 -0.0207  0.1381  0.0298
32941OCT     C165881  19.363  11.767  18.081 -0.2787  0.2801 -0.0696
32941OCT     C265882  18.965  11.496  17.877  0.1170 -0.4340  0.2813
32942OCT     C165883  12.860  15.804  22.237  0.0127 -0.2125 -0.0286
32942OCT     C265884  12.682  15.978  21.895  0.3959 -0.2957 -0.1165
32943OCT     C165885  22.169  13.026  11.233 -0.0420  0.0278 -0.1649
32943OCT     C265886  22.264  12.687  11.533 -0.4887 -0.0179 -0.0052
32944OCT     C165887   4.183   3.542   0.383 -0.1124  0.0627 -0.2558
32944OCT     C265888   4.640   3.624   0.335 -0.0347  0.0748 -0.2232
32945OCT     C165889  15.686   6.085   3.088 -0.2851 -0.1417 -0.0785
32945OCT     C265890  15.559   6.298   3.496  0.0761  0.1653  0.3090
32946OCT     C165891   2.853  11.812  19.717  0.1808 -0.2055  0.1258
32946OCT     C265892   3.298  11.724  19.833  0.0068  0.1255  0.3617
32947OCT     C165893  19.535  21.404  11.106  0.1156  0.0242  0.4555
32947OCT     C265894  19.685  20.995  11.040  0.3023  0.0993  0.1326
32948OCT     C165895   1.160  10.583  22.017 -0.1974 -0.0840 -0.1206
32948OCT     C265896   0.752  10.333  21.994 -0.0755 -0.1626  0.2654
32949OCT     C165897  19.234   6.252   5.908 -0.0727  0.1600  0.2467
32949OCT     C265898  19.178   5.891   5.595 -0.2624  0.3757 -0.2003
32950OCT     C165899   2.070  15.000  15.634  0.0938 -0.0999 -0.0829
32950OCT     C265900   1.600  14.964  15.627 -0.1449 -0.0534  0.0573
32951OCT     C165901   4.075   4.738  20.933 -0.3396  0.2104 -0.1858
32951OCT     C265902   3.669   4.551  21.068 -0.3130 -0.3024  0.3730
32952OCT     C165903  12.638   0.923  22.624 -0.2933 -0.0584 -0.3365
32952OCT     C265904  12.877   1.073  22.270  0.4880  0.2744  0.0687
32953OCT     C165905  15.338   9.377  16.818 -0.3599 -0.1133  0.2945
32953OCT     C265906  15.482   9.018  17.048 -0.1034  0.0121  0.1420
32954OCT     C165907  12.412  19.679  10.226 -0.1182  0.4207  0.0023
32954OCT     C265908  12.146  19.352  10.352  0.1424  0.1941 -0.2400
32955OCT     C165909  16.591  17.837   6.313 -0.0892  0.4825  0.2935
32955OCT     C265910  16.362  17.525   6.595  0.1360 -0.0374  0.0685
32956OCT     C165911   0.982   7.591   4.701 -0.0119 -0.2328  0.2812
32956OCT     C265912   0.774   7.874   4.415 -0.4378 -0.1453  0.3073
32957OCT     C165913  12.623  16.368  20.333  0.1319 -0.2486  0.3090
32957OCT     C265914  12.217  16.482  20.290 -0.0011 -0.0146  0.2854
32958OCT     C165915   6.963   7.035  22.200  0.3599 -0.1411  0.3072
32958OCT     C265916   6.986   7.272  22.611 -0.0183 -0.2684  0.0976
32959OCT     C165917  11.194  21.429  20.977 -0.0029 -0.4491 -0.1732
32959OCT     C265918  10.778  21.228  20.843  0.1165 -0.1445  0.1915
32960OCT     C165919  22.150   5.243  14.964 -0.2229 -0.0470 -0.0850
32960OCT     C265920  21.976   5.467  15.289 -0.0327 -0.2014  0.0822
32961OCT     C165921  20.828  18.152  21.869  0.3583  0.0433  0.4416
32961OCT     C265922  20.966  18.276  22.290  0.0595 -0.0259 -0.1074
32962OCT     C165923   5.042  18.084   7.300  0.0797 -0.2351  0.0514
32962OCT     C265924   5.309  18.320   7.011  0.2353 -0.0243  0.2506
32963OCT     C165925  15.879   7.487  21.665 -0.2031 -0.0482 -0.0024
32963OCT     C265926  16.139   7.342  21.258  0.1386  0.0788 -0.0197
32964OCT     C165927  13.240   6.340   8.872  0.1791  0.2760  0.3908
32964OCT     C265928  13.429   5.939   8.786 -0.1883 -0.0756  0.0581
32965OCT     C165929   4.315  16.153  12.756 -0.0798 -0.1687  0.1627
32965OCT     C265930   4.569  15.810  12.559 -0.0412 -0.0391  0.0032
32966OCT     C165931   6.388   3.030  20.454  0.0610 -0.0245  0.4252
32966OCT     C265932   6.327   3.296  20.825 -0.2278  0.1385  0.1392
32967OCT     C165933  11.549   7.699  16.501 -0.2608 -0.1836 -0.2410
32967OCT     C265934  11.990   7.785  16.745 -0.0735 -0.0787  0.1664
32968OCT     C165935  21.176  16.597  15.348  0.0490 -0.0626  0.0261
32968OCT     C265936  21.654  16.438  15.392  0.0415 -0.1474 -0.0907
32969OCT     C165937  23.628  14.399  18.083 -0.0452 -0.3150  0.2054
32969OCT     C265938  23.345  14.707  18.220  0.2361  0.3869 -0.0456
32970OCT     C165939  17.936  23.738  23.039 -0.2321 -0.0793  0.3662
32970OCT     C265940  17.574   0.230  22.782 -0.2565 -0.2273 -0.1205
32971OCT     C165941   2.369   9.926  18.555  0.0848  0.1525 -0.0059
32971OCT     C265942   2.341  10.068  18.106  0.0199  0.1878 -0.0661
32972OCT     C165943  22.818  19.431  10.559 -0.0094 -0.0841 -0.1166
32972OCT     C265944  22.694  19.217  10.120 -0.1475  0.1353  0.2502
32973OCT     C165945   5.413   7.461   3.377  0.0560  0.1011 -0.1715
32973OCT     C265946   5.064   7.414   3.683 -0.0147 -0.0623 -0.0493
32974OCT     C165947  14.446  12.124  18.515  0.0633 -0.0126  0.0105
32974OCT     C265948  14.904  12.065  18.661  0.2547  0.0495  0.1710
32975OCT     C165949  13.085  10.026   0.499 -0.2279  0.1068  0.2724
32975OCT     C265950  13.147  10.425   0.780  0.1710 -0.1325 -0.1156
32976OCT     C165951   7.455   3.633   3.987 -0.1215 -0.1143 -0.1312
32976OCT     C265952   7.736   3.449   3.751 -0.0276 -0.3453  0.1483
32977OCT     C165953   4.157  13.896   3.302  0.3234  0.0063 -0.1799
32977OCT     C265954   3.825  13.630   3.322  0.0588 -0.0363  0.0048
32978OCT     C165955   1.100  18.741   5.544  0.0782  0.0133  0.0607
32978OCT     C265956   1.169  18.374   5.857  0.2043  0.1076 -0.0626
32979OCT     C165957  15.897  21.546  22.733 -0.3502 -0.0019  0.5214
32979OCT     C265958  15.872  21.881  23.055  0.0376  0.5026  0.3860
32980OCT     C165959   8.894   5.521  14.799  0.2481  0.1062  0.2379
32980OCT     C265960   9.138   5.239  15.130  0.1071  0.1476  0.1216
32981OCT     C165961  19.920  22.143   2.256 -0.0855  0.0768  0.3102
32981OCT     C265962  20.153  22.447   2.084  0.2384 -0.2434 -0.1134
32982OCT     C165963   7.618  13.712  13.999  0.3132 -0.2467 -0.0331
32982OCT     C265964   7.398  14.158  13.914  0.1628 -0.2355  0.2139
32983OCT     C165965  21.308   3.927  12.136  0.2776  0.4839 -0.0035
32983OCT     C265966  21.161   4.128  11.789 -0.1012  0.1526  0.2957
32984OCT     C165967   0.636  14.239  16.776 -0.1398  0.2321  0.1042
32984OCT     C265968   1.016  14.402  16.567  0.0262 -0.1372  0.1943
32985OCT     C165969  11.940  23.399   9.761 -0.2798  0.2494 -0.0763
32985OCT     C265970  11.884  22.950   9.708  0.1632  0.2815 -0.0083
32986OCT     C165971  17.594  21.778   1.255 -0.1412 -0.0630  0.0422
32986OCT     C265972  17.632  21.889   1.711  0.1825 -0.4249 -0.2758
32987OCT     C165973   2.094   0.555  18.377 -0.1641 -0.0862 -0.0276
32987OCT     C265974   1.667   0.738  18.321  0.1477  0.0774  0.1526
32988OCT     C165975  18.282  21.255   6.991  0.2402 -0.1624 -0.2493
32988OCT     C265976  18.483  21.252   7.365 -0.0265  0.1173 -0.1792
32989OCT     C165977   1.586   8.832  17.197 -0.1575  0.4760 -0.2375
32989OCT     C265978   2.035   8.628  17.247 -0.0478 -0.1364 -0.1671
32990OCT     C165979   9.774  11.496  18.385  0.1080  0.0001  0.0817
32990OCT     C265980   9.453  11.587  18.071  0.0782  0.3139  0.4311
32991OCT     C165981  22.497   5.716   5.013 -0.2178  0.2160 -0.0609
32991OCT     C265982  22.234   5.850   4.625 -0.0128  0.2003 -0.0837
32992OCT     C165983   4.218  11.022  11.572 -0.0517  0.2028  0.0653
32992OCT     C265984   4.535  11.072  11.882 -0.0685  0.4455 -0.3468
32993OCT     C165985   2.198   7.267   2.744 -0.0844  0.0156 -0.1660
32993OCT     C265986   2.207   7.299   3.224  0.1601 -0.0486  0.0969
32994OCT     C165987  23.599   5.264  11.866  0.2491 -0.0127  0.3424
32994OCT     C265988  23.520   4.821  11.676 -0.0365 -0.0388 -0.4905
32995OCT     C165989   4.339   6.703  13.937  0.3661  0.1002  0.1489
32995OCT     C265990   4.798   6.790  13.896 -0.0580 -0.1934  0.2607
32996OCT     C165991  22.914  17.412  18.788  0.3708 -0.0217 -0.2333
32996OCT     C265992  22.515  17.355  19.035 -0.2100 -0.1089 -0.2326
32997OCT     C165993  12.229   2.680  11.728  0.4401  0.2924 -0.0343
32997OCT     C265994  12.004   2.573  11.303 -0.0654 -0.2980  0.5149
32998OCT     C165995  11.622   5.382  15.369 -0.2865  0.0929 -0.1129
32998OCT     C265996  12.069   5.217  15.293  0.3643 -0.3247  0.1214
32999OCT     C165997  12.198  20.152  22.444  0.0108  0.4303  0.0734
32999OCT     C265998  12.591  19.922  22.358 -0.3088 -0.4623 -0.1908
33000OCT     C165999   4.302   1.414   3.354  0.1501  0.0860  0.3180
33000OCT     C266000   4.330   1.814   3.639 -0.2685  0.3255 -0.4278
33001OCT     C166001  19.267  16.003  15.825  0.1873  0.0461 -0.1681
33001OCT     C266002  19.129  15.724  16.150  0.2606  0.2131 -0.0013
33002OCT     C166003   4.564  23.028   3.662  0.4468 -0.0650  0.0881
33002OCT     C266004   4.660  22.540   3.656 -0.1912  0.1670  0.0094
33003OCT     C166005  17.403  12.880   8.254  0.0386 -0.0295 -0.1053
33003OCT     C266006  17.481  13.237   8.531 -0.1752  0.1601 -0.2352
33004OCT     C166007   9.944  14.559   5.055  0.0509 -0.0003  0.0355
33004OCT     C266008   9.646  14.202   5.225 -0.0199  0.0952 -0.2961
33005OCT     C166009   6.899  15.007  14.941 -0.0273  0.2320  0.0105
33005OCT     C266010   7.207  15.341  14.954  0.2882  0.0138 -0.1596
33006OCT     C166011  22.976  14.057   5.792  0.0267 -0.1381 -0.3250
33006OCT     C266012  22.587  14.094   6.017  0.0630  0.0736 -0.0126
33007OCT     C166013   1.004   9.832  17.198 -0.0612 -0.1844 -0.0038
33007OCT     C266014   1.025  10.302  17.205 -0.1078  0.0726  0.0498
33008OCT     C166015   9.786  11.174  20.322  0.0270 -0.5047  0.4132
33008OCT     C266016  10.150  10.989  20.552  0.2572  0.0854  0.0878
33009OCT     C166017  20.287   6.766   3.641  0.1256  0.2406 -0.1155
33009OCT     C266018  20.051   6.422   3.927  0.1699  0.2033  0.0544
33010OCT     C166019   8.761  16.878  19.769 -0.0222 -0.1599 -0.0898
33010OCT     C266020   9.163  16.719  19.620  0.2410 -0.2729 -0.1244
33011OCT     C166021   2.412   6.512   8.675  0.0619 -0.3119  0.2883
33011OCT     C266022   2.505   6.082   8.489 -0.3034 -0.3229  0.1027
33012OCT     C166023  17.858  18.953  21.204 -0.0183 -0.2859 -0.0192
33012OCT     C266024  18.192  19.140  21.478 -0.2339 -0.0849  0.0131
33013OCT     C166025  20.568   7.441   5.000 -0.1443  0.3279  0.3672
33013OCT     C266026  20.822   7.678   4.681  0.3251 -0.2464  0.0423
33014OCT     C166027   3.962  17.540  20.542 -0.1090  0.1282  0.2349
33014OCT     C266028   3.574  17.370  20.246 -0.2690 -0.1608 -0.3038
33015OCT     C166029   3.312  13.125  18.630 -0.1609  0.1809 -0.4195
33015OCT     C266030   3.546  13.526  18.771 -0.1364  0.3000 -0.0878
33016OCT     C166031  22.585   0.186  18.050  0.0456  0.1592  0.1122
33016OCT     C266032  22.352   0.034  17.685 -0.3389 -0.2478  0.0336
33017OCT     C166033  21.516  14.806   5.681  0.3271 -0.0110 -0.0745
33017OCT     C266034  21.099  14.534   5.769 -0.6247 -0.0900 -0.1153
33018OCT     C166035   7.857  14.212   0.437 -0.0787 -0.0218  0.2355
33018OCT     C266036   7.828  13.916   0.105 -0.3888  0.0860  0.1392
33019OCT     C166037   4.488  15.606   5.308 -0.0500  0.4718  0.2052
33019OCT     C266038   4.426  15.391   4.904 -0.0316 -0.0828  0.0855
33020OCT     C166039  16.820  11.082  23.546 -0.3099  0.2079 -0.0274
33020OCT     C266040  16.988  11.530  23.413  0.0228  0.3850 -0.0866
33021OCT     C166041  21.868  13.308   1.463 -0.3874  0.0987  0.2433
33021OCT     C266042  22.077  12.934   1.247 -0.1211  0.3977  0.3702
33022OCT     C166043  21.520   0.953  21.698  0.0813  0.0227 -0.0090
33022OCT     C266044  22.002   0.880  21.675  0.0746  0.1323  0.1003
33023OCT     C166045  14.739   9.179   4.576 -0.0605  0.2828  0.1759
33023OCT     C266046  14.588   8.820   4.358  0.0882 -0.2063  0.0323
33024OCT     C166047  21.815  22.009  21.598  0.1268  0.3710 -0.2158
33024OCT     C266048  22.262  22.183  21.492  0.1248  0.3273 -0.2051
33025OCT     C166049   5.820  11.336   9.368 -0.2673  0.1900  0.6393
33025OCT     C266050   5.767  11.522   8.946  0.1246  0.0913  0.0512
33026OCT     C166051   2.418   6.560  14.364  0.3493 -0.0124  0.2347
33026OCT     C266052   2.459   6.319  13.960 -0.0008 -0.0210  0.0281
33027OCT     C166053   3.393   4.278   5.089  0.2725  0.1203 -0.2080
33027OCT     C266054   3.375   4.197   5.571 -0.5303  0.1807  0.2586
33028OCT     C166055   6.004   3.451   5.614  0.0459 -0.0759 -0.1157
33028OCT     C266056   5.744   3.680   5.315  0.1177  0.3279  0.0137
33029OCT     C166057   5.288   9.867   4.010 -0.1407  0.1891  0.2003
33029OCT     C266058   5.716   9.694   4.049  0.2364  0.2657  0.0432
33030OCT     C166059  11.247  20.721   0.286  0.0409  0.1194  0.2072
33030OCT     C266060  11.605  20.490   0.078  0.0856 -0.0350  0.0194
33031OCT     C166061   6.097   5.610   8.105 -0.1108 -0.0140 -0.1621
33031OCT     C266062   6.237   5.935   7.803  0.1313  0.2127 -0.1822
33032OCT     C166063  20.197  23.265  17.343  0.0738 -0.3771  0.3907
33032OCT     C266064  20.314  23.358  17.752 -0.0070  0.3616 -0.1470
33033OCT     C166065  22.878  10.061  19.748 -0.3349 -0.1725 -0.1026
33033OCT     C266066  22.516   9.822  19.761 -0.2223 -0.2092 -0.0817
33034OCT     C166067   5.417   5.715  21.477  0.2310 -0.5966  0.1825
33034OCT     C266068   4.925   5.793  21.620 -0.2090  0.0545  0.4164
33035OCT     C166069   2.646   4.579   1.933  0.1008 -0.3084  0.2245
33035OCT     C266070   3.034   4.304   2.005  0.1342 -0.2019 -0.0638
33036OCT     C166071  21.525   5.665   2.630  0.1282  0.3335 -0.2062
33036OCT     C266072  21.639   5.537   3.048 -0.3015 -0.0986 -0.3395
33037OCT     C166073   0.482   2.786  22.930 -0.2397 -0.1189  0.0505
33037OCT     C266074   0.846   2.953  23.138 -0.4493 -0.0420 -0.0744
33038OCT     C166075   6.874  11.962  11.947 -0.1115  0.3111 -0.1362
33038OCT     C266076   6.712  12.069  11.515 -0.0296  0.2349  0.2647
33039OCT     C166077  20.409  12.003   3.197 -0.0456 -0.2807  0.0605
33039OCT     C266078  20.737  12.266   2.931 -0.1098  0.2033 -0.0713
33040OCT     C166079  12.035  19.578   6.869 -0.1881 -0.1823 -0.1245
33040OCT     C266080  11.980  20.031   6.824 -0.2576  0.2946  0.1447
33041OCT     C166081  20.051  19.168   3.274 -0.1627  0.2859 -0.0255
33041OCT     C266082  20.066  18.714   3.014  0.0364 -0.2064 -0.1763
33042OCT     C166083  22.459   5.919   0.875  0.3715  0.0018 -0.1260
33042OCT     C266084  22.032   5.847   0.689 -0.0447 -0.0162  0.4005
33043OCT     C166085  12.467  20.381  15.316 -0.0092  0.2702 -0.1897
33043OCT     C266086  12.848  20.617  15.381 -0.2729 -0.2222  0.0494
33044OCT     C166087  11.084  20.673  23.532 -0.1432 -0.1665  0.0274
33044OCT     C266088  11.127  20.299   0.045  0.1414  0.4548 -0.1229
33045OCT     C166089  14.128   6.170   7.007  0.1538  0.2007 -0.0958
33045OCT     C266090  14.143   6.558   7.303  0.1542  0.0104  0.1427
33046OCT     C166091   0.693   7.909  21.543 -0.3551  0.0250 -0.4526
33046OCT     C266092   0.586   7.845  21.118  0.3017  0.3162  0.1523
33047OCT     C166093   1.259   3.994  20.411 -0.3477 -0.3308  0.1940
33047OCT     C266094   1.313   4.240  19.990 -0.1265  0.0376 -0.2823
33048OCT     C166095   0.191  10.804   0.574 -0.3248  0.0286 -0.0033
33048OCT     C266096   0.319  10.499   0.339 -0.1894 -0.0248  0.5923
33049OCT     C166097  20.317  16.326   2.817 -0.0924 -0.0348 -0.0167
33049OCT     C266098  20.042  16.438   2.459 -0.0552  0.2366 -0.0104
33050OCT     C166099  15.450  14.166  18.177  0.1131  0.2232 -0.0852
33050OCT     C266100  15.744  14.206  17.777 -0.2165  0.0409 -0.2772
33051OCT     C166101   9.601   4.038   4.211 -0.1594 -0.1274 -0.3314
33051OCT     C266102   9.530   4.462   4.316  0.1394 -0.0123  0.0474
33052OCT     C166103  15.384  12.235  17.729  0.3535 -0.3645 -0.2061
33052OCT     C266104  15.440  11.910  17.384  0.2442  0.2234  0.4714
33053OCT     C166105   6.421  19.561  12.906 -0.0035 -0.0563  0.0075
33053OCT     C266106   6.245  19.670  12.484 -0.2433 -0.1054  0.0073
33054OCT     C166107   1.063   4.043  11.656  0.1919 -0.0344 -0.2196
33054OCT     C266108   1.455   4.383  11.613  0.0071  0.3064  0.0728
33055OCT     C166109   8.170  10.069  22.462 -0.2978 -0.2372  0.2303
33055OCT     C266110   8.645  10.075  22.577  0.2819 -0.2056  0.3412
33056OCT     C166111  10.796   6.407  15.332  0.0086 -0.2389 -0.0952
33056OCT     C266112  11.089   6.187  15.079 -0.3270  0.4674  0.0880
33057OCT     C166113  11.608  17.631   0.741  0.1175 -0.1575  0.1302
33057OCT     C266114  11.680  17.147   0.668  0.4547 -0.0538  0.0576
33058OCT     C166115  22.367  20.019   7.044  0.2606 -0.2756 -0.0603
33058OCT     C266116  22.808  19.991   7.016  0.1427 -0.1728  0.1605
33059OCT     C166117  22.992   8.916  12.221 -0.6973 -0.2868  0.1476
33059OCT     C266118  23.421   8.944  12.393  0.0927 -0.0100 -0.0929
33060OCT     C166119   5.175  12.391  20.411 -0.1679  0.0536 -0.2000
33060OCT     C266120   5.187  12.797  20.177 -0.0249  0.6201  0.0668
33061OCT     C166121  13.869   6.644  22.429  0.1030 -0.1564  0.2996
33061OCT     C266122  13.508   6.799  22.704 -0.1696  0.1092 -0.7256
33062OCT     C166123  22.599  15.182  13.160  0.1358  0.1281 -0.0836
33062OCT     C266124  22.840  15.295  13.496 -0.1421  0.2845 -0.0275
33063OCT     C166125   4.444  14.763   6.113  0.1134 -0.0231  0.0935
33063OCT     C266126   4.815  14.561   6.245 -0.2730 -0.3850 -0.4402
33064OCT     C166127  15.228   6.433   7.215 -0.1668 -0.0634 -0.4113
33064OCT     C266128  14.972   6.299   7.604  0.1941 -0.0223  0.1841
33065OCT     C166129  19.564  15.457   4.138 -0.0927  0.1898 -0.4509
33065OCT     C266130  19.775  15.358   3.708  0.0065 -0.0767 -0.1709
33066OCT     C166131  12.898   4.455  21.050 -0.0282 -0.1652  0.0028
33066OCT     C266132  13.024   4.198  21.451  0.0947  0.1959 -0.0154
33067OCT     C166133   1.128  14.793  10.912  0.0400  0.0697 -0.0463
33067OCT     C266134   0.759  15.040  10.933 -0.0327 -0.2023  0.0012
33068OCT     C166135  16.254  13.537  20.332 -0.0404  0.0610 -0.0992
33068OCT     C266136  15.888  13.376  20.496  0.0701  0.4463 -0.0141
33069OCT     C166137   8.117  20.586   4.630  0.3753 -0.2537 -0.0371
33069OCT     C266138   7.875  20.607   4.229 -0.0283  0.0431  0.4716
33070OCT     C166139  18.119  14.835   9.532 -0.0068  0.3195 -0.2599
33070OCT     C266140  17.667  14.879   9.695  0.1851  0.1659 -0.1493
33071OCT     C166141  14.914   4.152  15.205 -0.0230 -0.0584  0.1884
33071OCT     C266142  14.483   3.986  15.175 -0.1245 -0.2883  0.0222
33072OCT     C166143   0.570   9.709   0.003 -0.0421 -0.1511 -0.3101
33072OCT     C266144   0.555   9.635   0.464  0.0868 -0.0200 -0.0643
33073OCT     C166145  12.509  23.715  16.447  0.2209  0.1556  0.0976
33073OCT     C266146  12.743  23.570  16.839 -0.0391  0.0590  0.1102
33074OCT     C166147  11.430  14.603   6.832  0.1731 -0.0302  0.1378
33074OCT     C266148  11.727  14.270   6.880 -0.4950 -0.0863 -0.0220
33075OCT     C166149   9.332   4.539  16.804  0.0664 -0.1637 -0.1776
33075OCT     C266150   9.411   4.150  16.972 -0.3998 -0.3078 -0.5085
33076OCT     C166151   9.834  10.630  12.559  0.2317  0.0459  0.1012
33076OCT     C266152  10.042  10.925  12.322 -0.3798 -0.1845  0.1433
33077OCT     C166153   2.169  10.632  19.652 -0.1148 -0.2044  0.0199
33077OCT     C266154   2.562  10.755  19.849 -0.2262 -0.2939  0.0843
33078OCT     C166155   1.401  19.786  16.557  0.0203 -0.5821 -0.4212
33078OCT     C266156   1.675  19.801  16.231  0.1726 -0.1809 -0.1306
33079OCT     C166157  20.619   6.162   2.470 -0.3381 -0.2481  0.2122
33079OCT     C266158  21.065   6.195   2.548  0.0239 -0.5082 -0.0725
33080OCT     C166159   8.629  16.907  10.779  0.0794  0.2280  0.2805
33080OCT     C266160   9.049  17.017  10.910 -0.0152  0.1016  0.4148
33081OCT     C166161   9.128  11.272  15.139 -0.0975 -0.1737 -0.0158
33081OCT     C266162   9.251  11.329  14.697  0.0105  0.0480 -0.0558
33082OCT     C166163   1.056  13.710   6.087 -0.1633  0.2057  0.1919
33082OCT     C266164   1.034  13.247   5.802 -0.1353 -0.2374  0.0315
33083OCT     C166165  20.868   0.431  10.228  0.0426 -0.1554  0.0498
33083OCT     C266166  20.703   0.646  10.597 -0.1608  0.2462  0.1885
33084OCT     C166167  18.665   4.347   8.453 -0.0369 -0.0892  0.2381
33084OCT     C266168  18.666   4.833   8.338  0.0087  0.3047  0.1338
33085OCT     C166169   3.371  12.970  10.800 -0.3216  0.5398  0.0987
33085OCT     C266170   3.632  13.199  10.469 -0.0372  0.1445  0.1226
33086OCT     C166171  21.621  12.583  19.233  0.3079  0.1756  0.0101
33086OCT     C266172  21.904  12.825  19.509  0.2128  0.3240  0.3027
33087OCT     C166173  19.025  15.004   7.368 -0.1474  0.1696 -0.3057
33087OCT     C266174  19.391  14.740   7.410 -0.0828  0.1747 -0.6845
33088OCT     C166175  17.540   2.791   8.889 -0.1021  0.1600  0.2043
33088OCT     C266176  17.954   2.978   8.814 -0.2080 -0.0155  0.2652
33089OCT     C166177  17.192  10.472  10.228  0.1513  0.2815  0.0391
33089OCT     C266178  17.460  10.351  10.576 -0.2402 -0.3277  0.1536
33090OCT     C166179  15.085   6.752  22.013  0.1319 -0.1845  0.0864
33090OCT     C266180  15.073   6.783  21.539  0.1977 -0.0772 -0.2900
33091OCT     C166181  22.221   6.870   5.567  0.0935  0.2451  0.0576
33091OCT     C266182  22.448   7.055   5.894 -0.2016  0.3895  0.2023
33092OCT     C166183  12.686   7.075  13.509  0.0709  0.1373 -0.3806
33092OCT     C266184  12.309   7.098  13.758 -0.0397  0.1711  0.0594
33093OCT     C166185   3.543   6.798   1.937 -0.3189  0.0654 -0.0556
33093OCT     C266186   3.303   7.018   2.263 -0.3403  0.0090  0.3372
33094OCT     C166187  15.533   3.403   5.216  0.0127 -0.0757 -0.0389
33094OCT     C266188  15.983   3.452   5.267 -0.7060 -0.1478  0.4591
33095OCT     C166189  21.018   8.294  13.000  0.2647  0.0254  0.0474
33095OCT     C266190  21.286   7.967  12.711  0.0789  0.2709  0.1032
33096OCT     C166191   6.764  22.195   2.281  0.2663  0.1898  0.0553
33096OCT     C266192   6.821  21.968   2.620 -0.0001  0.1185 -0.1160
33097OCT     C166193  10.122   5.107   3.803 -0.0677  0.2393  0.3356
33097OCT     C266194   9.873   4.873   3.483  0.0760 -0.1252 -0.0303
33098OCT     C166195   8.777   8.563   6.106 -0.4151 -0.2649  0.1900
33098OCT     C266196   8.695   8.581   5.665  0.2989  0.4007 -0.3634
33099OCT     C166197  15.376  10.533  18.029  0.0249  0.1667  0.4590
33099OCT     C266198  15.357  10.042  18.158 -0.0732  0.0035  0.2730
33100OCT     C166199  20.275   0.131  21.139 -0.1278  0.0779 -0.0718
33100OCT     C266200  19.824   0.245  21.073  0.0690  0.0453  0.1058
33101OCT     C166201  10.346   8.340   6.806  0.1959  0.0615 -0.2816
33101OCT     C266202  10.164   7.902   6.736  0.3090 -0.3158  0.1309
33102OCT     C166203   0.282  21.888  10.211 -0.2844 -0.2426 -0.2228
33102OCT     C266204   0.152  21.523   9.931  0.1050  0.0147  0.1560
33103OCT     C166205   5.581  18.099   4.396 -0.0322 -0.2000  0.0976
33103OCT     C266206   5.660  17.903   4.805  0.0450  0.3099 -0.2913
33104OCT     C166207   9.108  19.572  11.536  0.1322  0.1320  0.5630
33104OCT     C266208   8.953  19.591  11.995 -0.0196  0.1050  0.4697
33105OCT     C166209  14.312   9.147   5.484  0.0978  0.3746 -0.2927
33105OCT     C266210  14.245   9.305   5.111 -0.0227  0.0038  0.0684
33106OCT     C166211  22.217   8.341  15.724  0.1642  0.2046  0.2664
33106OCT     C266212  21.899   8.443  16.128 -0.4400  0.0835  0.1774
33107OCT     C166213  13.410  19.569  15.391  0.0230 -0.0650 -0.4686
33107OCT     C266214  13.545  20.014  15.333 -0.1576 -0.2852 -0.2242
33108OCT     C166215  12.682  17.718   6.208 -0.1850 -0.2891 -0.0252
33108OCT     C266216  12.850  17.826   5.823  0.1230  0.0743 -0.2251
33109OCT     C166217   6.601   7.195  11.100 -0.0060 -0.4338  0.2080
33109OCT     C266218   6.898   7.241  11.450 -0.2982  0.3477 -0.0391
33110OCT     C166219  23.635  21.371  12.345  0.3704 -0.2975 -0.3385
33110OCT     C266220  23.232  21.087  12.398 -0.0627  0.0269 -0.3253
33111OCT     C166221  21.767   5.658   0.065  0.1216 -0.3087 -0.2965
33111OCT     C266222  21.396   5.498  23.513 -0.0212  0.0982 -0.0980
33112OCT     C166223  22.879  14.816  18.694 -0.0041  0.1292 -0.1430
33112OCT     C266224  22.852  14.947  18.250  0.1049  0.3100 -0.1739
33113OCT     C166225  18.843  11.318  15.928 -0.0551  0.0626 -0.3335
33113OCT     C266226  19.242  11.385  16.103 -0.0524  0.1531 -0.2100
33114OCT     C166227  17.466  22.116   2.209 -0.3395 -0.4383 -0.1424
33114OCT     C266228  17.168  22.055   1.836 -0.0088  0.1003  0.0190
33115OCT     C166229   3.119  23.393  17.517  0.2792  0.1760 -0.1797
33115OCT     C266230   3.035  22.944  17.666  0.1950 -0.0878 -0.1820
33116OCT     C166231   4.610  14.678   5.294  0.0701 -0.0317  0.2248
33116OCT     C266232   4.267  14.858   5.587  0.0089  0.2926  0.2476
33117OCT     C166233  16.063  11.177  20.676 -0.0017  0.0503 -0.2303
33117OCT     C266234  16.464  11.203  20.467  0.0270 -0.2450 -0.1948
33118OCT     C166235   3.292   5.917   3.327  0.2266 -0.1777 -0.1868
33118OCT     C266236   3.687   5.672   3.501  0.2074  0.1812 -0.0272
33119OCT     C166237   0.629  13.886  23.523 -0.0538 -0.1238 -0.0268
33119OCT     C266238   0.312  13.633   0.081 -0.0206 -0.0451 -0.3531
33120OCT     C166239   8.369  17.183  23.451  0.2155  0.0081 -0.0373
33120OCT     C266240   8.122  16.906   0.022  0.0040  0.1071 -0.2038
33121OCT     C166241   6.382  11.506  14.584  0.0715  0.3157  0.1633
33121OCT     C266242   6.390  11.846  14.271 -0.2669 -0.1791 -0.2467
33122OCT     C166243   3.163  13.957  17.285  0.1687 -0.4709  0.0784
33122OCT     C266244   2.779  13.662  17.415  0.2360  0.0191  0.1166
33123OCT     C166245  15.914   4.436   4.381  0.1810  0.3858 -0.1053
33123OCT     C266246  15.707   4.681   4.760  0.1500 -0.0794  0.1321
33124OCT     C166247  16.471  22.510  10.697  0.1701  0.0284  0.1048
33124OCT     C266248  16.439  22.237  11.049  0.0342  0.1796  0.0349
33125OCT     C166249  15.979  15.560  14.080 -0.4758 -0.0702  0.4255
33125OCT     C266250  16.130  15.436  14.570  0.1113  0.2494  0.1593
33126OCT     C166251  10.316  23.349  12.141 -0.1644 -0.3579 -0.0531
33126OCT     C266252  10.316  22.927  11.944  0.0073  0.2417  0.1791
33127OCT     C166253   3.244   8.383   3.993  0.1736  0.0246 -0.2336
33127OCT     C266254   3.715   8.331   4.086  0.2587  0.1678 -0.2353
33128OCT     C166255   2.866   0.656   5.467  0.1457  0.1929  0.1820
33128OCT     C266256   2.732   1.098   5.415 -0.0399  0.1101 -0.0219
33129OCT     C166257  12.247   4.792   1.950 -0.2267  0.0397  0.0004
33129OCT     C266258  12.152   5.001   2.378 -0.0109  0.0082 -0.0588
33130OCT     C166259   6.270   2.247  16.109 -0.1763  0.1961 -0.3281
33130OCT     C266260   6.731   2.376  15.939 -0.1086  0.0299 -0.1612
33131OCT     C166261  21.587  22.244  19.239  0.0675  0.1791  0.2796
33131OCT     C266262  21.425  22.608  18.992  0.0840  0.1236 -0.3906
33132OCT     C166263  12.393  23.087  13.722 -0.3251 -0.3387 -0.0723
33132OCT     C266264  12.621  23.441  14.015 -0.1111  0.2399  0.2231
33133OCT     C166265   6.540  18.088   2.490 -0.6064 -0.1359 -0.1895
33133OCT     C266266   6.379  18.414   2.129  0.0363 -0.0962 -0.0747
33134OCT     C166267  10.513   6.251  12.618 -0.1746  0.2227 -0.2329
33134OCT     C266268  10.544   6.485  13.037  0.2409 -0.1280 -0.4110
33135OCT     C166269  19.705   6.479  20.015 -0.0673  0.2186 -0.4595
33135OCT     C266270  19.435   6.182  19.859  0.1556  0.3153 -0.0153
33136OCT     C166271  18.679   6.215  15.336 -0.2025 -0.2461  0.0651
33136OCT     C266272  19.140   6.076  15.209  0.1492  0.1298 -0.0497
33137OCT     C166273   3.699  14.158   3.026  0.0140  0.0433  0.5302
33137OCT     C266274   3.841  14.591   2.894  0.0385  0.3596 -0.3155
33138OCT     C166275  23.477   8.508   3.920 -0.1049 -0.0782  0.2613
33138OCT     C266276   0.070   8.723   4.110 -0.6012  0.3452  0.3848
33139OCT     C166277  22.935  17.428  11.014  0.1454 -0.0287  0.0123
33139OCT     C266278  23.375  17.534  10.835  0.1702 -0.0986  0.0620
33140OCT     C166279  20.161  19.614  13.638 -0.2210 -0.5603  0.1417
33140OCT     C266280  19.715  19.629  13.652 -0.4468  0.2081  0.0452
33141OCT     C166281  11.919   9.198  15.846 -0.1287 -0.2577 -0.0817
33141OCT     C266282  12.282   8.960  15.987  0.2811 -0.0224 -0.1218
33142OCT     C166283   3.457  23.367   0.716 -0.1849 -0.3689  0.0564
33142OCT     C266284   3.423  23.514   0.285  0.3228 -0.2754 -0.3324
33143OCT     C166285  22.329   0.270  16.001 -0.0175  0.3251 -0.2867
33143OCT     C266286  22.526   0.261  15.560  0.4508 -0.1161  0.0648
33144OCT     C166287   5.435  22.991   6.736 -0.0991  0.0373 -0.3020
33144OCT     C266288   5.601  22.693   6.990  0.2147  0.2304 -0.0558
33145OCT     C166289  13.280  22.116   5.418 -0.2376 -0.2668 -0.1911
33145OCT     C266290  12.921  22.325   5.698 -0.2957 -0.0436  0.2632
33146OCT     C166291  21.957   8.363   2.504 -0.0925 -0.2192 -0.1279
33146OCT     C266292  22.162   8.416   2.945 -0.1532  0.2185 -0.0018
33147OCT     C166293  20.376  23.314   3.115  0.3001  0.1095  0.0733
33147OCT     C266294  20.346  23.254   3.601  0.0246 -0.1499 -0.1780
33148OCT     C166295  14.932  12.428   0.170  0.2164 -0.2985 -0.0672
33148OCT     C266296  14.434  12.366   0.211 -0.1756  0.1929  0.2200
33149OCT     C166297  21.061  14.119  12.243  0.0645  0.0733 -0.2158
33149OCT     C266298  20.908  13.691  11.884 -0.3070  0.3201 -0.1296
33150OCT     C166299  21.845  11.223   1.672  0.0136 -0.4091  0.1252
33150OCT     C266300  22.182  11.084   1.964 -0.0105 -0.0965 -0.0602
33151OCT     C166301  22.424   5.174  21.018 -0.2568  0.2524  0.2838
33151OCT     C266302  22.477   4.908  20.611 -0.0200  0.2358 -0.0099
33152OCT     C166303  16.746  17.305  23.638 -0.1104  0.1767 -0.2154
33152OCT     C266304  17.189  17.463  23.487  0.0011  0.2405  0.0317
33153OCT     C166305   6.575  14.215   1.600 -0.3435  0.1660 -0.1673
33153OCT     C266306   6.266  14.219   1.197 -0.2160  0.0167 -0.0211
33154OCT     C166307  18.240  11.130   2.923  0.0129 -0.1282  0.0220
33154OCT     C266308  18.556  11.480   2.820  0.3121  0.2677 -0.1966
33155OCT     C166309  12.566   2.016   2.204 -0.0073  0.1874 -0.0171
33155OCT     C266310  12.676   2.453   2.048  0.1970 -0.3060  0.1899
33156OCT     C166311   5.641  11.818  16.007  0.3968 -0.0994 -0.1537
33156OCT     C266312   5.949  11.712  15.620  0.2665  0.1199 -0.2396
33157OCT     C166313  11.560  21.575  22.608 -0.1628 -0.0982  0.3674
33157OCT     C266314  11.974  21.475  22.439  0.1600  0.0441  0.2907
33158OCT     C166315   8.971  11.835  21.075 -0.1145 -0.3987 -0.0544
33158OCT     C266316   9.166  12.234  20.943 -0.0384  0.1527 -0.4202
33159OCT     C166317  17.183  15.105  16.889  0.1218  0.0867 -0.6221
33159OCT     C266318  16.947  15.098  17.292 -0.0652 -0.1161  0.1413
33160OCT     C166319   4.761  10.270  14.607  0.1244  0.2116 -0.0545
33160OCT     C266320   4.387   9.970  14.769  0.3694  0.1038 -0.3126
33161OCT     C166321  19.316  20.900  14.387 -0.2010  0.1495  0.1899
33161OCT     C266322  19.009  21.186  14.594  0.2406 -0.0331  0.0759
33162OCT     C166323   1.570   7.996  10.217 -0.2374  0.2992  0.0630
33162OCT     C266324   1.409   8.086   9.834  0.1826  0.1432  0.0095
33163OCT     C166325   2.083  23.583  21.765 -0.2211 -0.0585  0.2110
33163OCT     C266326   1.705  23.392  21.872  0.1622 -0.1241  0.0799
33164OCT     C166327  11.916   9.663   5.214  0.1398 -0.0444  0.0494
33164OCT     C266328  11.495   9.665   5.186 -0.0573 -0.0353 -0.1298
33165OCT     C166329  16.683  18.332  15.080 -0.1845  0.1521 -0.0231
33165OCT     C266330  17.002  18.169  15.338  0.3724  0.2043 -0.3543
33166OCT     C166331  16.503   1.631   0.697  0.2462 -0.0664  0.0062
33166OCT     C266332  16.016   1.737   0.637  0.0493 -0.2121  0.3134
33167OCT     C166333  22.177  10.362   8.516 -0.0807  0.0499  0.3189
33167OCT     C266334  22.243  10.239   8.972 -0.0717 -0.1933 -0.0382
33168OCT     C166335  22.554   9.103  11.503  0.2977  0.1048 -0.0406
33168OCT     C266336  22.048   8.906  11.451 -0.0494  0.0921  0.1466
33169OCT     C166337   0.667   3.132  10.767  0.1996  0.0088  0.1945
33169OCT     C266338   0.530   3.397  10.367 -0.4591 -0.0020  0.1549
33170OCT     C166339  22.178  16.120  18.351  0.0590 -0.4693 -0.3102
33170OCT     C266340  22.481  15.950  18.054 -0.1558  0.0437  0.2163
33171OCT     C166341  23.540   1.350  18.916  0.2220  0.2705 -0.1817
33171OCT     C266342  23.620   1.119  19.299  0.1621  0.0479  0.2904
33172OCT     C166343   9.522  11.124  20.724 -0.0501 -0.1954 -0.4313
33172OCT     C266344   9.850  11.070  21.049  0.0880  0.4219  0.1016
33173OCT     C166345  21.825  12.975   6.093  0.4032  0.1847 -0.0156
33173OCT     C266346  21.864  12.840   6.544  0.1620  0.0411  0.1478
33174OCT     C166347  22.073  18.984   7.888  0.0421 -0.0229  0.2761
33174OCT     C266348  21.746  18.939   8.189  0.1357  0.0918  0.3401
33175OCT     C166349  16.309   9.805  13.175  0.4779  0.2095  0.0680
33175OCT     C266350  16.578   9.909  13.516 -0.2385 -0.1991 -0.1957
33176OCT     C166351  21.059   0.017   6.019  0.1401 -0.0848 -0.0859
33176OCT     C266352  20.690  23.511   5.966  0.0570  0.3513  0.1639
33177OCT     C166353  22.391   9.402   6.014  0.5179 -0.5262 -0.0918
33177OCT     C266354  22.031   9.695   5.905 -0.3228 -0.0183  0.1296
33178OCT     C166355   5.138  16.744   7.177 -0.0193 -0.0182  0.0922
33178OCT     C266356   4.805  16.708   7.434 -0.0939 -0.3520 -0.2886
33179OCT     C166357  21.377   2.592  17.744 -0.1548  0.0833  0.1980
33179OCT     C266358  21.389   2.872  17.332  0.0873  0.1005  0.3975
33180OCT     C166359   9.592   4.431   2.946  0.1388 -0.5297  0.0599
33180OCT     C266360   9.925   4.303   2.647  0.1219 -0.1220  0.0374
33181OCT     C166361   5.259   1.813   7.102 -0.0980  0.2696 -0.0202
33181OCT     C266362   5.567   1.843   7.423 -0.3202  0.3282  0.0173
33182OCT     C166363  16.219   7.920  23.566 -0.1903 -0.0081 -0.4098
33182OCT     C266364  16.073   8.331  23.519  0.1277 -0.2484  0.1000
33183OCT     C166365   4.577   0.262  13.607  0.0730 -0.2565  0.0894
33183OCT     C266366   4.480   0.380  14.054  0.2660 -0.2601 -0.0072
33184OCT     C166367  16.009  22.688   1.496 -0.4014 -0.2989  0.0766
33184OCT     C266368  15.767  22.477   1.823  0.0222 -0.1330  0.2034
33185OCT     C166369  23.701  17.423   6.303 -0.0304 -0.2412  0.2619
33185OCT     C266370  23.456  17.250   6.708 -0.1003  0.1432  0.0003
33186OCT     C166371   5.137  17.421   0.788 -0.1480 -0.0530  0.0435
33186OCT     C266372   5.333  17.807   1.029  0.2986  0.5124  0.4893
33187OCT     C166373   6.232  18.171  13.246 -0.2515 -0.5091  0.0273
33187OCT     C266374   6.616  18.388  13.098  0.2971  0.2050  0.0775
33188OCT     C166375  21.165  10.567  22.400 -0.1024 -0.2155  0.0467
33188OCT     C266376  21.527  10.831  22.387 -0.0109  0.6226  0.1935
33189OCT     C166377  17.900  20.286   8.261  0.0860 -0.1836 -0.2708
33189OCT     C266378  17.901  19.853   8.039 -0.1252 -0.1046  0.0486
33190OCT     C166379  12.808   7.727  16.645 -0.1061 -0.1835 -0.0300
33190OCT     C266380  12.456   7.432  16.724 -0.1188  0.6054  0.1321
33191OCT     C166381   3.237  15.634  14.493 -0.1205  0.0326  0.3637
33191OCT     C266382   3.487  16.012  14.660 -0.0132 -0.2203  0.1238
33192OCT     C166383  14.738  22.541  18.618 -0.0556 -0.0121 -0.1010
33192OCT     C266384  15.187  22.544  18.526  0.5585  0.1807 -0.3258
33193OCT     C166385  19.246   6.051  11.163  0.2978  0.0369 -0.0126
33193OCT     C266386  19.497   6.233  11.501  0.0552 -0.0465  0.1500
33194OCT     C166387   3.161   3.548   6.842  0.1956  0.0002  0.1128
33194OCT     C266388   2.859   3.484   7.262 -0.1208 -0.4844 -0.0896
33195OCT     C166389   5.170   7.984  17.483 -0.0319  0.5146 -0.2735
33195OCT     C266390   5.598   7.813  17.628  0.0700  0.4148 -0.0591
33196OCT     C166391  14.907   8.835  12.863  0.2171 -0.3175 -0.1580
33196OCT     C266392  14.934   8.429  13.088  0.2200 -0.2852 -0.4434
33197OCT     C166393  18.974   0.627   4.912  0.0465  0.0838  0.2882
33197OCT     C266394  19.377   0.822   4.963 -0.0046  0.0212  0.1230
33198OCT     C166395  13.946  22.214  22.874  0.0303 -0.1418  0.1053
33198OCT     C266396  14.169  22.401  22.508 -0.0377 -0.2886 -0.2986
33199OCT     C166397   2.279  22.257   9.364 -0.0161 -0.2170 -0.0019
33199OCT     C266398   2.507  22.458   9.714 -0.1485 -0.0765 -0.1413
33200OCT     C166399  16.873   8.293   7.918  0.0758  0.1618  0.1211
33200OCT     C266400  17.189   8.522   7.682  0.1102  0.0499  0.2157
33201OCT     C166401   0.857  18.514   4.713 -0.0523 -0.2402  0.5161
33201OCT     C266402   1.261  18.748   4.789 -0.0808 -0.0507  0.0892
33202OCT     C166403   7.289  15.339   9.741 -0.0077 -0.3890  0.1141
33202OCT     C266404   7.717  15.265   9.975 -0.0636 -0.1350 -0.4349
33203OCT     C166405  18.799  21.327  15.098  0.2775 -0.1986  0.0341
33203OCT     C266406  19.168  21.581  14.936 -0.1356  0.0115  0.0477
33204OCT     C166407   0.520  23.103   0.255 -0.1387 -0.0855 -0.2397
33204OCT     C266408   0.825  22.812   0.443  0.3694  0.0760  0.1875
33205OCT     C166409   4.213  11.843  16.498 -0.3629 -0.2466 -0.1834
33205OCT     C266410   4.162  11.388  16.603 -0.1793 -0.3027  0.1182
33206OCT     C166411  19.958   2.292  15.911  0.0586  0.0811 -0.1674
33206OCT     C266412  19.893   2.761  15.778 -0.2651 -0.1086 -0.3606
33207OCT     C166413  13.762  22.162   8.285 -0.3900 -0.0121 -0.0146
33207OCT     C266414  13.296  22.192   8.423 -0.3325  0.1191  0.1024
33208OCT     C166415   8.114  16.036   3.283  0.0348  0.0323 -0.4371
33208OCT     C266416   8.394  15.743   3.014  0.3977 -0.1761  0.0800
33209OCT     C166417   5.293   1.468   8.187  0.1011 -0.1334 -0.1842
33209OCT     C266418   5.377   1.205   8.535 -0.1389  0.1719  0.3455
33210OCT     C166419  18.474  11.630  14.221 -0.0394  0.0737 -0.2920
33210OCT     C266420  18.608  12.010  14.023  0.1155 -0.4282 -0.0769
33211OCT     C166421  22.463  18.888  19.262 -0.0434  0.1711  0.0962
33211OCT     C266422  22.552  18.651  19.633 -0.1575 -0.2905  0.2033
33212OCT     C166423  11.681   5.339  10.322  0.0314  0.0790  0.1975
33212OCT     C266424  11.441   5.774  10.430  0.3718  0.3207 -0.2743
33213OCT     C166425  19.622  14.951   6.962 -0.0264  0.2308 -0.0296
33213OCT     C266426  19.887  14.617   7.117 -0.1976  0.1501  0.1730
33214OCT     C166427  13.405  20.601   4.393  0.1304  0.1826  0.3022
33214OCT     C266428  13.370  20.570   4.869  0.3712 -0.2052  0.0932
33215OCT     C166429   7.246  19.170  15.296  0.2861 -0.3344  0.2327
33215OCT     C266430   6.833  19.121  15.466 -0.2612 -0.2762 -0.0904
33216OCT     C166431  14.172   4.911   4.421 -0.1009  0.1270 -0.0517
33216OCT     C266432  13.915   4.537   4.621 -0.0776 -0.0888  0.1032
33217OCT     C166433  16.559  22.042   3.906 -0.1291  0.1639 -0.0534
33217OCT     C266434  16.182  22.331   4.031 -0.1929 -0.1017  0.3301
33218OCT     C166435  18.232  17.775   8.102 -0.2501  0.0875 -0.2310
33218OCT     C266436  18.634  18.000   7.911 -0.1413 -0.2065  0.3047
33219OCT     C166437   8.328  23.109  13.054 -0.1148 -0.1353  0.3823
33219OCT     C266438   8.296  23.393  12.747 -0.3598 -0.4230  0.0238
33220OCT     C166439  12.617   2.678   8.480  0.2404 -0.0596  0.0451
33220OCT     C266440  12.162   2.705   8.495 -0.1323 -0.0822  0.0602
33221OCT     C166441  16.974   5.947   7.538 -0.3251  0.0654 -0.3096
33221OCT     C266442  17.175   6.329   7.394  0.2954  0.0422  0.2901
33222OCT     C166443   1.320  23.039  14.982  0.0001  0.1687  0.4586
33222OCT     C266444   1.247  23.158  15.430 -0.0604  0.2059  0.1753
33223OCT     C166445  22.841  21.600  19.567  0.1799 -0.0408 -0.2830
33223OCT     C266446  23.138  21.859  19.321 -0.0247  0.0785  0.1219
33224OCT     C166447  18.182  15.861   9.487 -0.2483  0.3083  0.1878
33224OCT     C266448  17.861  15.729   9.783  0.1534  0.1811 -0.1154
33225OCT     C166449  10.542   7.138  13.843  0.2628  0.2151  0.2013
33225OCT     C266450  10.617   6.782  14.128 -0.0921 -0.1774 -0.0966
33226OCT     C166451   8.134  16.070  22.215  0.0455  0.4005  0.2172
33226OCT     C266452   8.067  15.958  21.762  0.1180 -0.2238 -0.0329
33227OCT     C166453  23.572  15.620  17.956  0.0276  0.1929 -0.0178
33227OCT     C266454  23.568  16.073  17.680  0.1862  0.2432  0.0356
33228OCT     C166455   7.014   3.802  15.077 -0.2742  0.2169 -0.0043
33228OCT     C266456   6.981   3.381  15.060 -0.3616 -0.0042 -0.0456
33229OCT     C166457  20.455  15.487  19.128 -0.2612 -0.3123  0.1403
33229OCT     C266458  20.606  15.698  19.531  0.3083  0.6275 -0.1464
33230OCT     C166459  14.731   5.081  16.314 -0.3797 -0.0420  0.0467
33230OCT     C266460  15.020   5.150  16.717 -0.0691 -0.1873 -0.0229
33231OCT     C166461   7.803  12.847   6.710 -0.4223  0.0375  0.0164
33231OCT     C266462   7.625  13.021   7.106  0.2573  0.2583 -0.1227
33232OCT     C166463   2.117   0.435   6.498  0.1592 -0.1549 -0.2788
33232OCT     C266464   2.479   0.097   6.363  0.2899  0.0111  0.2582
33233OCT     C166465  13.287  21.790   8.073  0.1151 -0.2702 -0.1358
33233OCT     C266466  13.275  21.579   7.675 -0.4102  0.0480  0.2057
33234OCT     C166467   5.230  15.514  12.585  0.0388 -0.1900 -0.2301
33234OCT     C266468   5.636  15.308  12.632 -0.1001 -0.0890  0.4013
33235OCT     C166469  13.135  13.330   6.471 -0.3731  0.1361  0.1828
33235OCT     C266470  13.562  13.084   6.454 -0.5165 -0.0067  0.0830
33236OCT     C166471   3.287  10.371  19.501 -0.0844 -0.0758  0.3053
33236OCT     C266472   3.386  10.741  19.134 -0.1226 -0.4200 -0.0971
33237OCT     C166473  10.722   4.635  21.141  0.0193  0.1681 -0.0051
33237OCT     C266474  10.669   4.511  20.644  0.2879  0.2971  0.1114
33238OCT     C166475   7.864   4.073   9.366  0.1920 -0.1498  0.0929
33238OCT     C266476   8.252   4.212   9.634 -0.2409  0.2430 -0.2179
33239OCT     C166477  16.758  19.828  11.655 -0.1478  0.0689 -0.0388
33239OCT     C266478  16.868  19.461  11.310 -0.2193 -0.1768  0.0442
33240OCT     C166479   9.021  20.124  19.188  0.2725  0.2284 -0.0212
33240OCT     C266480   8.745  20.372  18.917 -0.2915  0.1827 -0.2276
33241OCT     C166481  13.265   9.926   4.163 -0.0274  0.2027  0.2271
33241OCT     C266482  13.679   9.994   3.942  0.3281 -0.2082  0.1204
33242OCT     C166483   1.956  19.165   2.168 -0.2118  0.0330 -0.1016
33242OCT     C266484   1.952  19.403   1.807 -0.1511  0.3852  0.4240
33243OCT     C166485  12.476  21.432  13.513  0.0174 -0.1825  0.0749
33243OCT     C266486  12.732  21.200  13.162 -0.2149  0.0570 -0.1547
33244OCT     C166487  17.559   2.852   4.658  0.2978  0.1416  0.2293
33244OCT     C266488  17.552   3.168   4.934  0.0819  0.0904  0.1672
33245OCT     C166489   8.140  10.254   1.949 -0.0257  0.0211 -0.0461
33245OCT     C266490   8.333   9.957   1.670  0.2647 -0.2211 -0.2547
33246OCT     C166491  17.975   3.189  16.147  0.1450 -0.0811 -0.2434
33246OCT     C266492  17.665   3.052  15.934  0.1068 -0.1142  0.1218
33247OCT     C166493   3.391  12.077  11.985 -0.4701 -0.0293  0.0190
33247OCT     C266494   3.468  12.262  12.397 -0.0713 -0.0587 -0.2213
33248OCT     C166495  22.312  22.011   7.325  0.1662  0.0070  0.0977
33248OCT     C266496  22.385  21.622   7.555 -0.5097 -0.0133  0.0338
33249OCT     C166497  21.844  15.617  16.814  0.2221  0.1064  0.0014
33249OCT     C266498  21.826  16.057  16.976  0.2888 -0.0926  0.1794
33250OCT     C166499  12.338   6.361   8.800 -0.0839 -0.1394  0.3674
33250OCT     C266500  12.165   6.715   8.522  0.0536 -0.2372 -0.0521
33251OCT     C166501   1.150  19.166  13.608 -0.0627 -0.0370  0.0365
33251OCT     C266502   1.576  19.162  13.307  0.3510 -0.3387 -0.3710
33252OCT     C166503  22.259  19.451  16.759 -0.0613  0.0027 -0.1610
33252OCT     C266504  22.171  19.424  17.212  0.3373  0.0182 -0.0307
33253OCT     C166505  18.510  15.079  12.222  0.2418  0.1026  0.3639
33253OCT     C266506  18.293  15.201  11.857 -0.1580 -0.1619  0.4098
33254OCT     C166507   6.127   7.484  16.533 -0.0236 -0.3300  0.4564
33254OCT     C266508   6.401   7.335  16.888 -0.1071 -0.2996  0.2995
33255OCT     C166509   4.370   1.518   7.201  0.0190 -0.3707 -0.1496
33255OCT     C266510   4.407   1.502   6.757 -0.3539  0.3598  0.4376
33256OCT     C166511   6.774  20.466   8.986  0.3431  0.4310  0.0834
33256OCT     C266512   7.194  20.416   8.720  0.1782  0.2441 -0.1967
33257OCT     C166513  11.030  17.926   5.709 -0.1340  0.1290  0.0846
33257OCT     C266514  10.994  17.797   6.151  0.0191  0.4054 -0.3096
33258OCT     C166515  11.072  20.878   8.148 -0.0026  0.0607 -0.1857
33258OCT     C266516  11.259  21.243   8.357  0.2785 -0.2696  0.1868
33259OCT     C166517   8.653  22.157   6.992  0.2016 -0.1967  0.3308
33259OCT     C266518   8.943  22.114   6.595 -0.2151  0.2251  0.1511
33260OCT     C166519  18.358   0.073   1.696  0.1871  0.1223  0.4527
33260OCT     C266520  18.454  23.566   1.972 -0.1798 -0.4522 -0.1732
33261OCT     C166521   8.401  12.778   4.119 -0.0285 -0.1140  0.0705
33261OCT     C266522   7.979  13.011   4.081  0.3219  0.3030 -0.0059
33262OCT     C166523   6.484   8.513   1.811  0.1792  0.1278 -0.0538
33262OCT     C266524   6.953   8.476   1.922 -0.0668 -0.1919  0.1281
33263OCT     C166525  18.536   5.394   4.997 -0.1847 -0.2136  0.2670
33263OCT     C266526  18.227   5.351   5.331  0.2050  0.0383  0.0758
33264OCT     C166527   4.992  14.422   5.478  0.4673  0.1863  0.0942
33264OCT     C266528   5.343  14.295   5.257 -0.1566 -0.1600 -0.1126
33265OCT     C166529   4.712  19.672  18.099  0.3711 -0.3914  0.0328
33265OCT     C266530   4.970  19.951  17.763  0.1720  0.1844  0.0067
33266OCT     C166531  12.682  10.101  18.762  0.0480  0.2185 -0.0861
33266OCT     C266532  12.301  10.010  18.898  0.1906  0.0688 -0.2784
33267OCT     C166533  16.067   0.715   6.880 -0.4245  0.0244 -0.1816
33267OCT     C266534  15.810   0.507   7.183 -0.2648 -0.3768  0.2289
33268OCT     C166535  11.796  12.937  14.047 -0.0037  0.1023 -0.1721
33268OCT     C266536  11.397  12.748  14.056 -0.1584  0.0436  0.0213
33269OCT     C166537   4.430   6.338  20.674 -0.0910  0.2030  0.0501
33269OCT     C266538   4.127   6.399  20.306 -0.1235  0.3402 -0.0428
33270OCT     C166539  16.886  12.252  18.422  0.1165 -0.3471  0.2542
33270OCT     C266540  17.026  11.973  18.718  0.0014 -0.3222  0.5966
33271OCT     C166541  19.148  22.006  13.124  0.5064  0.1602  0.1213
33271OCT     C266542  19.202  21.569  13.022 -0.1765 -0.0334  0.0709
33272OCT     C166543  15.464  15.019  16.912  0.3283  0.2114  0.2193
33272OCT     C266544  15.225  14.602  16.830 -0.3556  0.0711 -0.4395
33273OCT     C166545   0.641   3.068  18.721  0.2492  0.0162  0.1729
33273OCT     C266546   0.180   2.887  18.631 -0.2162 -0.1639 -0.0311
33274OCT     C166547  13.742   6.819  16.462 -0.4047  0.4322  0.1604
33274OCT     C266548  13.321   6.993  16.340  0.1472 -0.0476 -0.3553
33275OCT     C166549   0.281  17.336   1.088  0.2963  0.3429  0.0368
33275OCT     C266550   0.356  17.786   1.216  0.0157 -0.2666  0.3039
33276OCT     C166551  11.613   6.219  12.305 -0.1607 -0.0697 -0.0026
33276OCT     C266552  12.099   6.423  12.296  0.1528  0.0711  0.1362
33277OCT     C166553  19.674   9.376   9.680  0.0934 -0.1849 -0.2789
33277OCT     C266554  19.644   9.595  10.153  0.1952  0.1160 -0.0675
33278OCT     C166555  13.704  23.364   1.178  0.4015  0.1746 -0.0365
33278OCT     C266556  14.094  23.135   1.288 -0.3129 -0.1422 -0.1722
33279OCT     C166557  11.014  23.411  12.208 -0.3749  0.2717 -0.0511
33279OCT     C266558  11.484  23.309  12.335 -0.4128 -0.7166  0.2272
33280OCT     C166559  11.105  17.639  17.645 -0.0922 -0.2141 -0.1722
33280OCT     C266560  11.380  17.277  17.673  0.0677  0.0538  0.0343
33281OCT     C166561   9.915  10.794   1.046 -0.2313 -0.2936 -0.0021
33281OCT     C266562  10.032  11.245   1.102 -0.2560  0.2024 -0.2236
33282OCT     C166563  23.409   0.874   1.567 -0.2329 -0.1171 -0.2979
33282OCT     C266564  22.978   0.907   1.731 -0.3890  0.1179 -0.1322
33283OCT     C166565   7.419   6.680   4.850  0.2783  0.1543 -0.1025
33283OCT     C266566   7.143   6.327   4.855  0.0499  0.0025  0.5233
33284OCT     C166567  15.827   0.957  15.632  0.2001  0.3496  0.3016
33284OCT     C266568  15.990   1.181  15.947 -0.0505  0.0088  0.2217
33285OCT     C166569   5.713  22.456   1.300 -0.0703  0.1849 -0.4735
33285OCT     C266570   5.868  22.031   1.232  0.0910 -0.1485  0.2358
33286OCT     C166571  12.630   3.438  16.318  0.1569 -0.0032  0.0522
33286OCT     C266572  12.950   3.249  16.054 -0.2952 -0.2351 -0.1713
33287OCT     C166573   8.506  22.767  22.720  0.1599 -0.3325 -0.1835
33287OCT     C266574   8.657  22.900  22.273  0.1618 -0.2994  0.1703
33288OCT     C166575   7.079  22.117  15.482 -0.0808 -0.0504  0.0831
33288OCT     C266576   7.256  21.837  15.819  0.2110  0.1504 -0.3164
33289OCT     C166577  13.240  14.876   9.497 -0.2060  0.2190  0.1305
33289OCT     C266578  13.177  15.092   9.087 -0.0360  0.0520  0.3187
33290OCT     C166579  10.849  15.065   3.312 -0.0592 -0.3094 -0.3931
33290OCT     C266580  11.229  14.963   3.027  0.0315  0.1219 -0.2981
33291OCT     C166581  16.362  18.534  19.486  0.0120  0.0387  0.0165
33291OCT     C266582  16.298  18.589  19.924 -0.0845 -0.1287  0.0721
33292OCT     C166583   1.860  17.797  21.560  0.3486  0.2843 -0.0569
33292OCT     C266584   1.425  17.688  21.320 -0.1844 -0.0278  0.0354
33293OCT     C166585  13.762   2.573  18.643 -0.0084  0.3474 -0.0161
33293OCT     C266586  13.368   2.373  18.495  0.2500 -0.1902 -0.1684
33294OCT     C166587   5.654  10.285  22.464  0.6786 -0.0567 -0.2515
33294OCT     C266588   5.506  10.684  22.217  0.1248  0.0874  0.0654
33295OCT     C166589  17.968   5.360  10.114  0.2601 -0.1007 -0.0940
33295OCT     C266590  17.954   5.547  10.555 -0.2099 -0.2000 -0.2785
33296OCT     C166591   7.349   5.098   4.270 -0.0803 -0.0113 -0.0391
33296OCT     C266592   7.812   5.044   4.124 -0.6026  0.1658 -0.4361
33297OCT     C166593  10.818   0.726   8.590 -0.0115  0.0948  0.1377
33297OCT     C266594  11.111   0.439   8.494  0.2917 -0.1127  0.0203
33298OCT     C166595   1.500  20.536   8.323  0.1670  0.0433  0.1417
33298OCT     C266596   1.876  20.458   8.040 -0.1007 -0.3822 -0.0229
33299OCT     C166597   4.921  12.114  23.639 -0.1032  0.0095  0.0169
33299OCT     C266598   5.205  12.187   0.271  0.2444 -0.0004 -0.1497
33300OCT     C166599  22.063  10.263   9.730  0.0084 -0.0429  0.0636
33300OCT     C266600  21.999  10.265  10.174  0.0247 -0.0530  0.3166
33301OCT     C166601  23.420  17.574  14.044 -0.1702  0.3883  0.2197
33301OCT     C266602  23.140  17.791  14.320  0.0137 -0.3366  0.0970
33302OCT     C166603   8.321  13.435   3.295  0.1398 -0.1412 -0.4145
33302OCT     C266604   8.052  13.292   3.035  0.3560 -0.2122  0.1483
33303OCT     C166605  15.084  23.455  22.191 -0.3338  0.0808  0.3127
33303OCT     C266606  15.453  23.424  22.441  0.1826  0.1331 -0.1276
33304OCT     C166607   3.467  20.176  20.856  0.1643  0.0716  0.2437
33304OCT     C266608   3.636  19.829  20.582 -0.2542 -0.0544  0.1329
33305OCT     C166609  16.963  19.073  20.971 -0.1505 -0.1626 -0.1438
33305OCT     C266610  17.308  18.982  20.673 -0.0605 -0.0644 -0.0320
33306OCT     C166611  14.086   8.857   1.131 -0.1224 -0.4819  0.0978
33306OCT     C266612  14.455   8.553   1.180 -0.2912  0.1735 -0.1158
33307OCT     C166613  10.368   8.298   5.404 -0.2110 -0.1292  0.0803
33307OCT     C266614  10.594   8.705   5.546 -0.2048  0.0777  0.3794
33308OCT     C166615   4.620  17.793  11.546 -0.3012  0.0858  0.2448
33308OCT     C266616   4.265  17.578  11.311  0.0694  0.0666 -0.0143
33309OCT     C166617   0.916  12.116  15.080  0.3086  0.1478 -0.0246
33309OCT     C266618   0.684  11.802  15.327 -0.1011  0.0810  0.2205
33310OCT     C166619  19.015  15.385  13.184 -0.0040  0.0401  0.1829
33310OCT     C266620  19.284  15.427  12.849 -0.0935  0.0249 -0.1726
33311OCT     C166621   1.499   4.682   3.655  0.2421 -0.2920  0.2451
33311OCT     C266622   1.510   5.066   3.961 -0.0366 -0.1517  0.2001
33312OCT     C166623   8.053   5.931  20.632  0.1186 -0.3963  0.0180
33312OCT     C266624   7.659   6.181  20.681 -0.3603  0.1948 -0.3376
33313OCT     C166625  12.342  14.052   8.143 -0.1207  0.2252 -0.0222
33313OCT     C266626  12.396  13.914   8.606 -0.2310 -0.0458  0.3188
33314OCT     C166627  12.113   9.809   0.158 -0.0400  0.1590 -0.2397
33314OCT     C266628  12.126  10.324   0.097 -0.1641  0.1952  0.1788
33315OCT     C166629  13.583  16.111  20.199  0.1391 -0.0269 -0.0679
33315OCT     C266630  13.949  16.438  20.169  0.1578 -0.0370 -0.1392
33316OCT     C166631   8.490  21.477   7.540  0.3018 -0.0579  0.0345
33316OCT     C266632   8.545  21.912   7.514 -0.1103  0.2501 -0.4084
33317OCT     C166633   8.900   8.525  18.388 -0.1788 -0.1409 -0.1962
33317OCT     C266634   8.799   8.760  18.749 -0.2674  0.2630 -0.0306
33318OCT     C166635  13.840   4.476  23.538 -0.0625 -0.2891 -0.0180
33318OCT     C266636  13.595   4.166   0.034 -0.1947 -0.2750 -0.0982
33319OCT     C166637  12.067  16.710   7.161 -0.0931  0.0480  0.2094
33319OCT     C266638  11.969  16.686   7.648  0.4560 -0.0797 -0.0033
33320OCT     C166639   3.897  22.876  23.140 -0.1600  0.0697 -0.0643
33320OCT     C266640   3.931  22.922  23.607  0.2515  0.2695  0.4305
33321OCT     C166641   2.772  10.322  10.467 -0.0789  0.5734 -0.1938
33321OCT     C266642   3.056   9.927  10.305 -0.5066 -0.3664 -0.2147
33322OCT     C166643  14.243  17.240  13.768 -0.1060 -0.2635 -0.2180
33322OCT     C266644  14.657  17.157  13.557  0.4321  0.2480 -0.2910
33323OCT     C166645   5.850   5.057   5.575 -0.3770  0.3520  0.0383
33323OCT     C266646   5.485   4.852   5.438 -0.2118  0.1554  0.2219
33324OCT     C166647  10.867  10.222   9.540  0.2222  0.0241  0.2062
33324OCT     C266648  10.928  10.706   9.576  0.1080  0.1212  0.2077
33325OCT     C166649  19.712  18.041  13.298 -0.2332 -0.2725 -0.0979
33325OCT     C266650  19.813  18.269  13.700 -0.2240  0.1317 -0.2547
33326OCT     C166651   5.743  12.897   2.469 -0.0864 -0.2944  0.3834
33326OCT     C266652   5.825  12.449   2.309  0.0763  0.0553 -0.0491
33327OCT     C166653  10.445   2.176  11.991 -0.1470  0.3256  0.2633
33327OCT     C266654  10.366   2.088  12.412  0.1301  0.0474  0.1195
33328OCT     C166655  23.596   3.793  22.078  0.0259  0.2607  0.1509
33328OCT     C266656  23.707   4.053  21.715  0.3458 -0.1041  0.1921
33329OCT     C166657   4.992  12.058   8.524 -0.0830 -0.1472 -0.2090
33329OCT     C266658   5.452  11.915   8.413  0.0267 -0.1336  0.1585
33330OCT     C166659   4.715   4.505  14.477  0.0722 -0.1113 -0.2774
33330OCT     C266660   4.262   4.424  14.605  0.3940  0.1433  0.0988
33331OCT     C166661   4.952  19.030  21.119  0.1095  0.1181  0.1139
33331OCT     C266662   5.314  18.813  20.876  0.4049 -0.0129  0.4063
33332OCT     C166663   9.549  20.609  10.436  0.0748  0.0240 -0.2195
33332OCT     C266664   9.436  20.536   9.975  0.1155 -0.0109 -0.2387
33333OCT     C166665  16.343   3.111  15.271 -0.2945  0.0537  0.4818
33333OCT     C266666  16.331   3.483  14.963 -0.4134  0.0089  0.4762
33334OCT     C166667  13.122  12.044  20.946  0.0610  0.2700 -0.0030
33334OCT     C266668  13.270  12.468  20.818 -0.0844  0.2394  0.2743
33335OCT     C166669  15.996  13.157   2.090  0.0963 -0.1836 -0.1362
33335OCT     C266670  15.825  13.071   2.525  0.4304 -0.0212  0.0678
33336OCT     C166671   2.967   3.692  10.062 -0.0053 -0.3431  0.5651
33336OCT     C266672   2.906   3.562   9.592 -0.1537  0.1982  0.0425
33337OCT     C166673  16.575   7.256  11.113 -0.2258 -0.0281 -0.0023
33337OCT     C266674  16.751   6.967  10.781 -0.1374 -0.0165 -0.1954
33338OCT     C166675   5.895   5.137  14.407 -0.1706 -0.2148 -0.1697
33338OCT     C266676   5.960   4.717  14.621 -0.0984 -0.1325  0.0951
33339OCT     C166677   3.777  20.300  18.565  0.4090  0.1114 -0.0555
33339OCT     C266678   4.153  20.375  18.794 -0.3681  0.0316  0.1455
33340OCT     C166679  17.848  18.801  12.035  0.0937 -0.0890 -0.0668
33340OCT     C266680  18.096  18.942  12.339 -0.1971 -0.1463  0.2279
33341OCT     C166681   8.330  14.073   2.492 -0.0269 -0.0075  0.2305
33341OCT     C266682   8.015  13.700   2.621  0.4631 -0.1185  0.0575
33342OCT     C166683  15.316  16.306  13.940 -0.0050 -0.1827  0.1025
33342OCT     C266684  14.976  16.555  14.046  0.1561  0.1598 -0.1258
33343OCT     C166685   0.116  11.853  15.115  0.1310 -0.3342 -0.0325
33343OCT     C266686   0.111  11.831  15.572  0.1705 -0.0185  0.0950
33344OCT     C166687   0.572  14.407  23.497 -0.2647 -0.2812 -0.0045
33344OCT     C266688   0.206  14.608  23.276 -0.4059 -0.1993  0.0404
33345OCT     C166689  16.239  21.391  23.132  0.0743  0.2688  0.0980
33345OCT     C266690  16.067  20.954  23.192 -0.3826 -0.1246 -0.6487
33346OCT     C166691  13.347  19.922  21.659 -0.0318 -0.1021  0.3641
33346OCT     C266692  13.008  19.924  22.014 -0.1853 -0.2341 -0.0910
33347OCT     C166693   6.408   1.506  10.346 -0.1861 -0.2832 -0.2826
33347OCT     C266694   6.679   1.338  10.688 -0.0989 -0.4173  0.0954
33348OCT     C166695   2.940  10.587   7.535  0.1885 -0.1183 -0.2584
33348OCT     C266696   3.323  10.357   7.287  0.4482 -0.0950 -0.2040
33349OCT     C166697   0.897  18.501  19.091  0.1780  0.3619 -0.0228
33349OCT     C266698   1.061  18.377  19.561  0.2817  0.1521 -0.1118
33350OCT     C166699   9.707  20.916   7.608  0.3352  0.1431 -0.0786
33350OCT     C266700   9.595  21.351   7.510 -0.0127 -0.0625  0.1649
33351OCT     C166701   0.101  17.535  10.391  0.0870 -0.2116  0.1575
33351OCT     C266702   0.016  17.195  10.679  0.1586  0.1134 -0.4056
33352OCT     C166703   2.114   2.626   4.585  0.2209 -0.4680  0.4681
33352OCT     C266704   2.254   2.830   4.989 -0.4028 -0.3950 -0.1594
33353OCT     C166705  21.177   8.248  15.708 -0.0277  0.2273 -0.2307
33353OCT     C266706  20.934   8.490  15.978 -0.0923 -0.0555 -0.2038
33354OCT     C166707   9.159   0.030  12.302 -0.0824  0.0792  0.0174
33354OCT     C266708   8.897   0.295  12.509 -0.0330  0.0034 -0.0370
33355OCT     C166709  13.252  11.853   4.162 -0.2748  0.0236 -0.0610
33355OCT     C266710  12.884  11.718   4.406 -0.2201  0.0222 -0.0242
33356OCT     C166711   3.724  11.664  15.649  0.1383  0.0161 -0.0610
33356OCT     C266712   3.457  11.407  15.879 -0.0973 -0.2808 -0.2582
33357OCT     C166713  18.729  17.090   1.710 -0.0731  0.2638  0.2344
33357OCT     C266714  18.698  17.275   2.116 -0.3449 -0.1779 -0.1654
33358OCT     C166715   4.380  21.634  11.283 -0.1806  0.2561 -0.3408
33358OCT     C266716   4.647  21.497  10.903 -0.1199 -0.0866 -0.1438
33359OCT     C166717  22.756   7.357  21.958 -0.2295 -0.0285  0.1071
33359OCT     C266718  22.944   6.960  21.871 -0.3405 -0.1292  0.2372
33360OCT     C166719   1.233   0.944  18.603  0.1523 -0.1065  0.5994
33360OCT     C266720   1.434   1.169  18.277  0.2609 -0.1032 -0.0902
33361OCT     C166721  14.932   1.235  21.581  0.1143  0.1919  0.1432
33361OCT     C266722  14.542   1.259  21.837 -0.0363 -0.1079 -0.2011
33362OCT     C166723  14.731  13.781   4.301 -0.1432 -0.1604 -0.0033
33362OCT     C266724  14.965  13.523   4.049 -0.3090 -0.0583 -0.2536
33363OCT     C166725  15.564  14.911   7.515 -0.4264 -0.1599  0.0363
33363OCT     C266726  15.827  14.666   7.176 -0.1249 -0.6013 -0.3327
33364OCT     C166727   2.911  21.523  12.899  0.0171 -0.0095 -0.1122
33364OCT     C266728   2.956  21.398  13.355 -0.4101 -0.1374 -0.0492
33365OCT     C166729  16.349   0.730  20.075 -0.4165  0.1970 -0.1198
33365OCT     C266730  16.734   0.610  20.307 -0.3045  0.2705 -0.0024
33366OCT     C166731  21.043   4.377   6.735  0.1420  0.1449 -0.3132
33366OCT     C266732  20.992   4.764   6.925 -0.0301 -0.3273 -0.2810
33367OCT     C166733  20.436  17.160   4.763  0.0866  0.4310  0.1784
33367OCT     C266734  19.953  17.161   4.614  0.2479  0.2264  0.4779
33368OCT     C166735   6.228   7.857  18.387  0.1151  0.0208 -0.0419
33368OCT     C266736   5.953   7.814  18.778  0.2608  0.0514  0.2188
33369OCT     C166737  16.358   9.896   5.526  0.1097 -0.5469  0.2986
33369OCT     C266738  16.203   9.558   5.177 -0.1107 -0.3431 -0.3059
33370OCT     C166739   0.672  22.931   3.942 -0.1003 -0.1610  0.0484
33370OCT     C266740   0.396  22.607   4.069 -0.1600 -0.4417  0.3196
33371OCT     C166741   3.071  12.186  18.664  0.0457 -0.2589  0.1495
33371OCT     C266742   2.758  11.932  18.829 -0.0835 -0.4547 -0.1638
33372OCT     C166743  13.218   6.467  12.760 -0.0516  0.0734 -0.0207
33372OCT     C266744  13.304   6.811  12.510 -0.0338  0.0753 -0.0448
33373OCT     C166745   2.961  19.928   6.285 -0.1408  0.2030 -0.0038
33373OCT     C266746   2.659  20.298   6.232  0.2835  0.1106  0.0181
33374OCT     C166747   7.498  11.544  11.122  0.1452 -0.0606 -0.2116
33374OCT     C266748   7.815  11.879  11.135 -0.4084 -0.0524  0.0515
33375OCT     C166749   7.103   4.338   9.003  0.2634  0.3634  0.0374
33375OCT     C266750   7.106   4.100   9.448  0.5431 -0.2911 -0.0469
33376OCT     C166751   1.482  18.799   3.292 -0.0229 -0.3022 -0.1117
33376OCT     C266752   1.141  18.687   3.617 -0.1966 -0.1124 -0.1624
33377OCT     C166753  10.691  19.054  16.211 -0.0349  0.0102 -0.0421
33377OCT     C266754  10.529  18.927  16.644 -0.3870  0.0455  0.2311
33378OCT     C166755   3.365   5.472   9.483 -0.1495  0.0663  0.0296
33378OCT     C266756   3.162   5.800   9.206 -0.3389  0.1293  0.0026
33379OCT     C166757  20.814   7.802   5.962  0.2737 -0.3044  0.2343
33379OCT     C266758  21.142   8.116   5.890 -0.1837 -0.4312 -0.3597
33380OCT     C166759   2.721  19.970  10.949  0.0154 -0.0106  0.0823
33380OCT     C266760   2.914  20.235  10.667 -0.2694  0.1164  0.4020
33381OCT     C166761   0.748  18.558  21.803  0.1844 -0.0434 -0.0303
33381OCT     C266762   1.152  18.604  22.030  0.0791  0.1214 -0.1267
33382OCT     C166763   3.702  22.356  21.569  0.3075  0.1722  0.0355
33382OCT     C266764   3.455  22.173  21.936  0.3305 -0.0888 -0.3257
33383OCT     C166765  12.447  13.881   4.343 -0.2746 -0.1394  0.0389
33383OCT     C266766  12.737  14.036   4.004 -0.2572 -0.1038 -0.2288
33384OCT     C166767   0.145  20.564   1.175  0.0821 -0.0630 -0.4279
33384OCT     C266768  23.578  20.806   0.882 -0.2431 -0.0138 -0.1803
33385OCT     C166769   2.149  14.572  15.379 -0.1933 -0.1563  0.0749
33385OCT     C266770   2.320  14.825  15.022  0.0177  0.0687 -0.3016
33386OCT     C166771   5.300  13.611  10.777 -0.3488 -0.0644  0.0893
33386OCT     C266772   5.612  13.920  10.684 -0.0825 -0.0840  0.0450
33387OCT     C166773  16.287  13.426   5.798 -0.0307 -0.6237 -0.3716
33387OCT     C266774  16.682  13.478   5.576  0.1918 -0.5003  0.2933
33388OCT     C166775  12.701  13.778  10.545 -0.1822 -0.0905  0.3102
33388OCT     C266776  12.667  13.960  10.958 -0.0884 -0.3162 -0.2004
33389OCT     C166777  12.839   6.598   5.979 -0.4411 -0.0944  0.3675
33389OCT     C266778  12.906   6.516   6.405  0.1329 -0.1562 -0.2225
33390OCT     C166779  16.075  12.837  12.101  0.1743  0.1566  0.2713
33390OCT     C266780  15.753  12.840  12.482 -0.0692  0.2282  0.1457
33391OCT     C166781  15.691  10.996  18.589 -0.0892 -0.1105  0.0023
33391OCT     C266782  15.282  10.785  18.601 -0.0474  0.0615  0.2443
33392OCT     C166783   6.892  15.213   4.571 -0.3364 -0.1437 -0.0271
33392OCT     C266784   7.389  15.213   4.522 -0.0140  0.0485  0.1168
33393OCT     C166785   7.461  20.184  11.433  0.4730 -0.1153  0.0017
33393OCT     C266786   7.621  20.575  11.579  0.2688  0.3153 -0.1099
33394OCT     C166787  17.964  21.272  14.528  0.0167 -0.5368 -0.4736
33394OCT     C266788  18.065  21.588  14.892  0.0125  0.0009 -0.2909
33395OCT     C166789   6.114   1.904  10.580  0.1779 -0.0513  0.3385
33395OCT     C266790   5.701   1.712  10.315 -0.1591 -0.3830  0.1982
33396OCT     C166791  19.638  10.706   1.720 -0.0436  0.0382  0.0604
33396OCT     C266792  19.847  10.383   2.052 -0.4160 -0.0207  0.3567
33397OCT     C166793  21.052  20.789  21.545 -0.1550 -0.1035  0.1808
33397OCT     C266794  21.148  20.768  22.007 -0.2374 -0.0262 -0.3273
33398OCT     C166795  11.407   7.331  17.583  0.3474 -0.3076 -0.0455
33398OCT     C266796  10.978   7.192  17.666 -0.5691  0.0926  0.1547
33399OCT     C166797   1.317   1.480  15.988 -0.0637  0.1402  0.0333
33399OCT     C266798   1.494   1.874  16.203 -0.2989 -0.0386 -0.4148
33400OCT     C166799   3.198   0.662  10.678  0.2538  0.1683  0.0419
33400OCT     C266800   2.896   0.755  10.395  0.1138 -0.2994 -0.3808
33401OCT     C166801  13.348   4.816  18.806 -0.2877  0.2637 -0.1759
33401OCT     C266802  13.298   4.647  19.140  0.2534 -0.0671 -0.2452
33402OCT     C166803  23.697  11.900   5.413 -0.1284 -0.1555 -0.1547
33402OCT     C266804  23.327  11.714   5.739  0.0377 -0.1016 -0.2203
33403OCT     C166805   3.722   9.597   3.825  0.0877 -0.0565 -0.4892
33403OCT     C266806   3.551   9.885   3.490  0.1178  0.1180  0.2844
33404OCT     C166807   0.778   3.525   4.602  0.2195  0.2374  0.0819
33404OCT     C266808   0.619   3.502   4.161  0.0438 -0.2540 -0.1693
33405OCT     C166809  16.267  21.080   1.419  0.4860  0.0220  0.0913
33405OCT     C266810  16.515  21.390   1.627  0.0875  0.0772 -0.0124
33406OCT     C166811   1.233  10.764   8.030 -0.3973  0.1756  0.1334
33406OCT     C266812   1.542  10.779   7.653  0.1519 -0.0882  0.1211
33407OCT     C166813   4.862  14.208  11.057  0.0477  0.1848  0.1440
33407OCT     C266814   4.979  13.964  10.672 -0.0434  0.2084 -0.0407
33408OCT     C166815   0.085  18.125  11.266 -0.0888 -0.3675  0.0229
33408OCT     C266816   0.029  17.852  10.843 -0.0686  0.2911 -0.2970
33409OCT     C166817   9.999   2.335   6.302 -0.0876  0.1027 -0.2244
33409OCT     C266818   9.876   1.847   6.284  0.1046 -0.1907 -0.2355
33410OCT     C166819  11.470  15.196  21.891 -0.4955  0.1275 -0.3089
33410OCT     C266820  11.833  15.397  21.683  0.0487 -0.0134  0.1849
33411OCT     C166821  22.631  21.803   6.920  0.1380 -0.0018 -0.0203
33411OCT     C266822  22.788  21.487   7.219 -0.0700  0.0572 -0.1978
33412OCT     C166823  11.263  20.473   4.265 -0.2784  0.0771  0.0954
33412OCT     C266824  11.286  20.005   4.187  0.3141 -0.0025 -0.0952
33413OCT     C166825   6.942   9.050   5.549  0.0830 -0.0990  0.2572
33413OCT     C266826   7.304   9.151   5.814 -0.0941 -0.0765 -0.1658
33414OCT     C166827  20.335  17.794  18.596 -0.0428 -0.2596  0.4628
33414OCT     C266828  20.145  17.821  19.016 -0.0219 -0.2186 -0.1317
33415OCT     C166829  10.822  15.953   2.544 -0.1150 -0.0813 -0.3274
33415OCT     C266830  10.516  15.980   2.148 -0.6780 -0.0866 -0.0393
33416OCT     C166831   8.393  20.965   2.833  0.1320  0.4175  0.0337
33416OCT     C266832   8.860  21.057   2.940 -0.3428  0.1646 -0.0213
33417OCT     C166833  22.548   9.538  22.342 -0.2036  0.3818 -0.0469
33417OCT     C266834  22.766   9.596  21.946 -0.0307 -0.1183 -0.2543
33418OCT     C166835   8.066  20.179   8.051 -0.2625 -0.1887 -0.1178
33418OCT     C266836   7.662  19.983   7.994 -0.1268  0.1832 -0.3613
33419OCT     C166837   1.927  10.018  13.112 -0.0203  0.1726  0.1474
33419OCT     C266838   1.810   9.936  12.664  0.1030 -0.3002 -0.3404
33420OCT     C166839  15.361  22.756   7.510  0.2096 -0.0377 -0.2118
33420OCT     C266840  14.969  22.490   7.374 -0.3226 -0.0804 -0.1466
33421OCT     C166841   8.901   3.612  22.807  0.0457 -0.0499 -0.4336
33421OCT     C266842   9.326   3.405  22.708  0.1691 -0.1784  0.2485
33422OCT     C166843  13.167   1.276  14.777 -0.0122  0.0174 -0.2868
33422OCT     C266844  13.498   1.493  14.974 -0.1935  0.0195  0.3024
33423OCT     C166845   5.692   0.786  21.931  0.1340  0.2258  0.2631
33423OCT     C266846   5.813   1.071  21.546  0.0007 -0.0794  0.1201
33424OCT     C166847   4.666  21.570  14.605  0.2925 -0.2119 -0.0827
33424OCT     C266848   5.085  21.682  14.490 -0.1058 -0.0442  0.0922
33425OCT     C166849  12.861   6.057   0.631 -0.0239 -0.0801 -0.2157
33425OCT     C266850  12.663   6.487   0.613 -0.2259  0.0873  0.2233
33426OCT     C166851   2.039   9.926   7.159  0.1719 -0.2280  0.0774
33426OCT     C266852   1.550   9.926   7.303 -0.1882 -0.1790  0.3035
33427OCT     C166853   5.203   9.949  13.767  0.1040 -0.0254 -0.0175
33427OCT     C266854   5.093  10.171  14.185  0.0854  0.1075  0.0791
33428OCT     C166855   5.150   2.193  23.285 -0.0557 -0.4071 -0.0801
33428OCT     C266856   4.942   1.836  23.050 -0.0301 -0.1266  0.0619
33429OCT     C166857  20.273  17.034   1.633 -0.0473  0.2296  0.1848
33429OCT     C266858  19.871  17.192   1.857  0.0757  0.3137  0.0831
33430OCT     C166859  22.495  13.321   8.158  0.0640  0.3055 -0.3486
33430OCT     C266860  22.484  13.741   8.311  0.0486 -0.1240  0.0203
33431OCT     C166861  20.591   9.258  11.632  0.0056  0.0291  0.2579
33431OCT     C266862  20.210   9.426  11.417  0.1491  0.1509 -0.2211
33432OCT     C166863  12.063  23.185  11.940  0.0480 -0.1208 -0.0941
33432OCT     C266864  11.997  23.026  12.369 -0.3644 -0.3046 -0.3864
33433OCT     C166865  18.134   2.315   7.401  0.2141 -0.0835  0.0375
33433OCT     C266866  18.215   2.448   7.827 -0.0498 -0.1923  0.0014
33434OCT     C166867  16.050  12.213  16.151  0.2951  0.1577 -0.0942
33434OCT     C266868  15.682  12.161  15.775 -0.0646  0.1245 -0.6043
33435OCT     C166869  16.466  14.863  17.384 -0.0945  0.0256  0.0876
33435OCT     C266870  16.555  15.320  17.573 -0.1283  0.2860  0.2231
33436OCT     C166871  13.938   2.531   3.730 -0.3661 -0.0372  0.0135
33436OCT     C266872  13.828   2.674   3.257  0.4688 -0.1492  0.0666
33437OCT     C166873   5.316   5.195   0.799 -0.1641 -0.2244 -0.2488
33437OCT     C266874   5.692   4.945   0.734  0.2311 -0.0447 -0.1528
33438OCT     C166875   2.479   4.887   6.081 -0.0074 -0.1931  0.1581
33438OCT     C266876   2.622   5.273   6.360 -0.1022  0.2785 -0.0597
33439OCT     C166877   3.101   1.522  16.543 -0.1607 -0.2362 -0.2138
33439OCT     C266878   2.698   1.245  16.422  0.0695 -0.0450  0.1867
33440OCT     C166879  22.190   5.597  22.344 -0.0878 -0.0582  0.0187
33440OCT     C266880  21.824   5.877  22.294 -0.0200 -0.0056  0.0788
33441OCT     C166881   9.839  15.748  23.410 -0.2101 -0.2531 -0.0361
33441OCT     C266882   9.755  16.157  23.160  0.0841  0.0081  0.2658
33442OCT     C166883  18.205   7.244  22.020 -0.2932 -0.0306 -0.0376
33442OCT     C266884  17.930   6.859  22.032 -0.4042 -0.0743 -0.2149
33443OCT     C166885  23.236  11.129  21.697 -0.2049 -0.1016 -0.0046
33443OCT     C266886  22.769  11.139  21.744  0.4598  0.2873 -0.7204
33444OCT     C166887   1.600  17.031  12.806  0.0310  0.0004 -0.1220
33444OCT     C266888   1.782  16.648  12.574  0.0756  0.0959  0.3760
33445OCT     C166889  16.076  18.819   0.595  0.3790  0.0856  0.1640
33445OCT     C266890  16.357  19.208   0.613  0.3266  0.2517  0.2913
33446OCT     C166891   9.768  12.870  18.789  0.2872 -0.2561  0.0420
33446OCT     C266892   9.510  12.854  18.431  0.1809  0.1484  0.0756
33447OCT     C166893   3.142  18.203  17.106  0.1795 -0.0679  0.0469
33447OCT     C266894   3.181  18.634  16.957  0.3124  0.2089 -0.2770
33448OCT     C166895  19.968  19.115  12.895  0.0841  0.1247 -0.2779
33448OCT     C266896  19.869  18.733  12.631  0.0287  0.6919 -0.0648
33449OCT     C166897  20.537  11.298   2.621 -0.0399  0.0457  0.1439
33449OCT     C266898  20.521  10.827   2.564 -0.2665  0.0245  0.0233
33450OCT     C166899  14.820  10.256  12.210 -0.1255 -0.0715 -0.7239
33450OCT     C266900  14.453  10.253  12.463  0.3736  0.0690  0.1135
33451OCT     C166901  11.368   0.067  21.560 -0.1310 -0.0759  0.1460
33451OCT     C266902  11.785  23.656  21.643  0.1506 -0.0579 -0.0492
33452OCT     C166903  10.091  10.273   3.189  0.0936 -0.2787  0.1580
33452OCT     C266904  10.461  10.358   3.430 -0.4717 -0.0193  0.0261
33453OCT     C166905  11.823   2.890   6.502  0.1983 -0.0655 -0.0282
33453OCT     C266906  11.809   2.453   6.355 -0.1892  0.2665  0.0591
33454OCT     C166907  20.327   4.943  14.328  0.0430 -0.0507 -0.0923
33454OCT     C266908  19.977   4.694  14.098 -0.2527 -0.1603  0.3886
33455OCT     C166909  12.859  20.057   0.074  0.1610 -0.0356  0.2051
33455OCT     C266910  12.868  19.590   0.008 -0.0825  0.1456 -0.4434
33456OCT     C166911  16.426   3.434   6.671  0.1626 -0.0624  0.1697
33456OCT     C266912  16.064   3.604   6.512  0.1251 -0.0141 -0.0801
33457OCT     C166913  12.905  10.911   3.059  0.1011 -0.4958 -0.0231
33457OCT     C266914  13.082  11.098   3.485 -0.2204 -0.0075  0.0234
33458OCT     C166915   8.038  18.781  10.381 -0.1718 -0.1377 -0.1736
33458OCT     C266916   8.168  18.525  10.850  0.3821  0.1843  0.3522
33459OCT     C166917  14.018  14.702   5.149  0.2512 -0.3220  0.2930
33459OCT     C266918  13.739  15.066   5.212 -0.3200  0.0802 -0.1082
33460OCT     C166919   6.603   4.743   3.970  0.1475  0.2161  0.2722
33460OCT     C266920   6.385   5.117   3.976 -0.1169 -0.2388  0.2448
33461OCT     C166921   5.138  19.964  19.555 -0.0285  0.0139  0.3724
33461OCT     C266922   4.846  20.167  19.840  0.4736 -0.1331  0.1639
33462OCT     C166923  11.531   2.250  11.444  0.1083 -0.0838 -0.1562
33462OCT     C266924  11.868   1.979  11.454  0.3916 -0.2506  0.3229
33463OCT     C166925  11.754  13.069  13.229 -0.0153  0.3429  0.0222
33463OCT     C266926  11.739  12.640  13.066 -0.3894 -0.1253  0.3943
33464OCT     C166927   5.117  17.015  23.456  0.0483 -0.2985 -0.0920
33464OCT     C266928   4.723  17.125  23.267 -0.2860  0.0080  0.1312
33465OCT     C166929  11.709   6.059  15.161  0.2380 -0.2763  0.1142
33465OCT     C266930  11.453   5.881  15.504 -0.1088 -0.0070  0.2875
33466OCT     C166931  15.739  16.252   7.655 -0.1312 -0.1486 -0.0862
33466OCT     C266932  15.749  15.752   7.777  0.2357  0.1802  0.0511
33467OCT     C166933   3.287  19.861  18.289 -0.1960 -0.0771  0.0394
33467OCT     C266934   3.733  19.834  18.170  0.2458 -0.1136 -0.2743
33468OCT     C166935  11.432   9.966   9.465  0.0601  0.1696  0.1858
33468OCT     C266936  11.802  10.063   9.152 -0.2378 -0.0393 -0.4780
33469OCT     C166937   1.884  18.121  19.248  0.2121 -0.3149  0.0231
33469OCT     C266938   1.707  18.050  18.844 -0.0202 -0.1617  0.3883
33470OCT     C166939  22.649   3.276   6.460 -0.1181  0.1387  0.1746
33470OCT     C266940  22.527   3.341   6.904  0.3837 -0.3767 -0.0052
33471OCT     C166941  23.461   9.986  22.295  0.3740 -0.3605  0.2279
33471OCT     C266942  23.301   9.568  22.536 -0.0881  0.0385 -0.2505
33472OCT     C166943  18.139  12.942  21.287  0.0450 -0.1027  0.1452
33472OCT     C266944  17.764  12.918  20.973  0.3184  0.3951 -0.1743
33473OCT     C166945   6.879  12.755  12.229  0.2103 -0.1967 -0.2685
33473OCT     C266946   7.340  12.721  12.227  0.2838 -0.1407  0.0390
33474OCT     C166947  12.845   6.112  12.772  0.0807  0.1461  0.1796
33474OCT     C266948  12.781   5.949  13.162  0.1548  0.3664 -0.2064
33475OCT     C166949  17.426  16.284  10.948 -0.1352  0.2081  0.3362
33475OCT     C266950  17.826  15.996  10.922 -0.2100  0.1122  0.0837
33476OCT     C166951  19.722  22.579   7.735  0.3396 -0.0043 -0.3728
33476OCT     C266952  19.471  22.740   7.276 -0.0315  0.0615  0.3149
33477OCT     C166953   7.395  11.435   5.557  0.0084  0.2918  0.1637
33477OCT     C266954   7.267  11.425   5.144 -0.0014 -0.0116 -0.2841
33478OCT     C166955   8.340   2.377  15.611 -0.0365 -0.0887  0.1083
33478OCT     C266956   7.951   2.053  15.569  0.1217  0.0778 -0.0238
33479OCT     C166957   3.805   0.146   2.800  0.0454 -0.1013 -0.1699
33479OCT     C266958   4.131  23.594   2.730 -0.2045  0.1350 -0.0030
33480OCT     C166959  12.653  16.247   5.680  0.3405  0.0725 -0.1117
33480OCT     C266960  12.398  15.859   5.621 -0.0110 -0.0420  0.1650
33481OCT     C166961  15.768   3.659   8.292  0.2296  0.3719 -0.2845
33481OCT     C266962  15.620   4.058   8.296  0.3223 -0.0403 -0.0914
33482OCT     C166963  10.780  13.317  11.997  0.4248 -0.0661  0.1157
33482OCT     C266964  10.938  13.691  12.111 -0.0339  0.0373 -0.2702
33483OCT     C166965   9.125  13.375  22.515 -0.0299 -0.2835  0.0395
33483OCT     C266966   9.522  13.213  22.435 -0.0489 -0.0460 -0.1982
33484OCT     C166967   6.320   6.682  17.816  0.2653 -0.3544 -0.3062
33484OCT     C266968   6.632   7.044  17.922  0.1096 -0.2761 -0.2182
33485OCT     C166969  20.760  11.501  23.448 -0.0896 -0.0933 -0.2968
33485OCT     C266970  20.877  11.581   0.175 -0.0397 -0.2346  0.1725
33486OCT     C166971   7.486   7.614   7.698  0.1045  0.0172  0.0148
33486OCT     C266972   7.191   7.463   7.353  0.1531 -0.0324  0.0566
33487OCT     C166973  16.196  17.190   4.554 -0.0120  0.0864 -0.1526
33487OCT     C266974  15.848  17.336   4.313 -0.2089  0.0461  0.0762
33488OCT     C166975  12.469  20.909  19.523 -0.0464  0.0992 -0.0971
33488OCT     C266976  12.692  20.540  19.769 -0.0050 -0.1670  0.0011
33489OCT     C166977   1.795   0.721  11.931  0.1399  0.3831  0.0961
33489OCT     C266978   1.709   0.356  12.216 -0.1934 -0.1009 -0.2701
33490OCT     C166979  12.182  20.170   8.039 -0.2572 -0.2350 -0.0053
33490OCT     C266980  11.885  19.810   8.100  0.2601  0.4418  0.2414
33491OCT     C166981  11.266  16.219  18.639 -0.0661  0.2521  0.2775
33491OCT     C266982  11.091  15.872  18.894  0.0172 -0.2899  0.2793
33492OCT     C166983  10.612   3.604  16.182 -0.0005 -0.0636  0.0432
33492OCT     C266984  10.373   3.611  16.569 -0.2017 -0.1801 -0.1118
33493OCT     C166985  19.698   7.848  15.086 -0.2002  0.3397  0.1169
33493OCT     C266986  19.932   7.649  15.463  0.0690 -0.4502  0.0748
33494OCT     C166987  16.390   8.056   7.877  0.2718 -0.2571 -0.0433
33494OCT     C266988  16.452   8.375   8.238 -0.0688  0.3366  0.1496
33495OCT     C166989   2.797   8.497   1.574  0.1972  0.0552 -0.1400
33495OCT     C266990   3.170   8.236   1.419  0.0041  0.1499  0.2130
33496OCT     C166991   5.644  20.188   6.192 -0.0344 -0.2237 -0.2073
33496OCT     C266992   5.575  20.619   5.929  0.2749  0.3408  0.1343
33497OCT     C166993  22.544   0.762  16.041 -0.0117  0.1090  0.2298
33497OCT     C266994  22.878   1.021  15.956 -0.0767  0.0332 -0.1188
33498OCT     C166995   7.151   2.981  18.775  0.1262  0.1495  0.0278
33498OCT     C266996   7.065   3.437  18.786 -0.1788  0.3205  0.2225
33499OCT     C166997  15.642  12.102   5.503  0.2969 -0.1208 -0.3156
33499OCT     C266998  16.038  12.171   5.273  0.0159 -0.2089 -0.1566
33500OCT     C166999  10.706  13.164   5.621 -0.0002  0.4530 -0.0961
33500OCT     C267000  10.914  12.846   5.956  0.1454  0.1034  0.1142
33501OCT     C167001  18.960   6.025   7.227 -0.2836  0.0357  0.0549
33501OCT     C267002  18.878   6.495   7.419 -0.1291  0.2069 -0.0331
33502OCT     C167003  13.318  19.611  22.918 -0.0791 -0.1291  0.0544
33502OCT     C267004  13.430  19.536  22.402 -0.0346 -0.2908 -0.0334
33503OCT     C167005   4.979  21.195  18.270 -0.1370  0.1860  0.0967
33503OCT     C267006   4.778  20.970  18.631 -0.3880  0.1425  0.0984
33504OCT     C167007   1.583  17.156  19.434  0.0680  0.0063  0.2928
33504OCT     C267008   1.415  17.147  18.958  0.0471  0.1328  0.4328
33505OCT     C167009  12.006   0.439  21.551  0.1247 -0.1064  0.0956
33505OCT     C267010  11.726   0.358  21.893 -0.2206  0.0835  0.2453
33506OCT     C167011  13.830  20.868  10.453 -0.0820 -0.2119  0.0023
33506OCT     C267012  13.998  20.707  10.069  0.1189  0.0218 -0.0088
33507OCT     C167013  20.173   9.605   6.256 -0.1270 -0.0587  0.1485
33507OCT     C267014  19.747   9.688   6.084  0.0960  0.2402 -0.0126
33508OCT     C167015  14.699   0.392   1.790  0.0439  0.2131 -0.4349
33508OCT     C267016  14.289   0.593   1.955  0.2881  0.1145 -0.1201
33509OCT     C167017  15.637  16.937  14.573 -0.1278 -0.3449 -0.0504
33509OCT     C267018  15.875  16.971  14.176 -0.0739 -0.1640 -0.2669
33510OCT     C167019  10.084   3.709  16.105  0.2045 -0.1891 -0.2030
33510OCT     C267020   9.708   3.546  16.330  0.1136  0.0981 -0.1185
33511OCT     C167021   2.663  14.186   5.263 -0.1315  0.0131 -0.1365
33511OCT     C267022   2.887  14.578   5.131 -0.0722 -0.1154 -0.1126
33512OCT     C167023   6.655   4.911  11.007  0.3018 -0.2413 -0.0559
33512OCT     C267024   6.282   4.640  11.046  0.1628  0.3231 -0.3318
33513OCT     C167025   6.237   5.608  12.252  0.1112  0.0006  0.2599
33513OCT     C267026   6.270   5.412  12.663 -0.2714 -0.2423 -0.2715
33514OCT     C167027  17.953  18.316   9.366 -0.2587  0.1689 -0.3481
33514OCT     C267028  17.542  18.219   9.669 -0.1324 -0.2805  0.0431
33515OCT     C167029   2.045  11.364  16.940  0.2024 -0.0529 -0.0084
33515OCT     C267030   2.219  11.723  17.152 -0.0871 -0.0417 -0.6482
33516OCT     C167031   7.118   6.537   8.565 -0.0216 -0.0560 -0.1661
33516OCT     C267032   7.099   6.184   8.258  0.1608  0.3833 -0.1532
33517OCT     C167033  13.083  12.932   3.474 -0.1513 -0.0635 -0.0517
33517OCT     C267034  12.718  13.104   3.170 -0.4968  0.2952  0.0044
33518OCT     C167035   4.171  16.922  13.617  0.0887  0.1696  0.3738
33518OCT     C267036   4.372  17.157  14.020  0.1453  0.1078  0.1183
33519OCT     C167037  21.287  20.626  18.985  0.0809  0.1314  0.2608
33519OCT     C267038  21.563  20.851  18.667  0.1833 -0.1605 -0.1046
33520OCT     C167039   7.038   1.548   9.412  0.3942  0.0455  0.3768
33520OCT     C267040   7.090   1.204   9.121  0.1862 -0.1026  0.1213
33521OCT     C167041  15.258   8.422  16.603  0.0029  0.0739  0.3191
33521OCT     C267042  14.862   8.405  16.837  0.1761  0.1133  0.0630
33522OCT     C167043  16.514  14.293  10.051  0.4017  0.1549  0.1063
33522OCT     C267044  16.127  14.571   9.989  0.0753 -0.6377  0.1942
33523OCT     C167045   3.436  11.188  10.928 -0.0380  0.1152  0.0695
33523OCT     C267046   3.083  11.209  10.609 -0.1430  0.1412  0.0987
33524OCT     C167047   6.290   7.986  15.051 -0.5059 -0.0476 -0.1868
33524OCT     C267048   6.118   8.439  15.227  0.1429 -0.3495 -0.2108
33525OCT     C167049   6.914  21.519  16.128 -0.1432  0.0827  0.0843
33525OCT     C267050   7.089  21.273  15.745 -0.1695 -0.2143  0.3281
33526OCT     C167051   9.284  17.040   7.291  0.0022  0.2753 -0.3457
33526OCT     C267052   9.251  16.873   7.718 -0.2720 -0.1464  0.3847
33527OCT     C167053  20.862  20.054  13.476 -0.0459  0.0194  0.0015
33527OCT     C267054  20.765  19.665  13.797  0.3110 -0.1031  0.5657
33528OCT     C167055   4.210  20.912  19.921 -0.2413  0.2554 -0.1558
33528OCT     C267056   4.242  21.091  19.437  0.1347 -0.2731  0.0334
33529OCT     C167057  12.814  14.599   2.153 -0.1084  0.0396 -0.1643
33529OCT     C267058  12.649  14.398   1.733  0.2550  0.1607  0.2045
33530OCT     C167059   9.234  23.397  13.853  0.0228  0.0054  0.1114
33530OCT     C267060   9.451  23.364  13.456  0.2034  0.0566 -0.6029
33531OCT     C167061   5.411  20.760   4.825  0.0009 -0.0912  0.2366
33531OCT     C267062   5.468  20.569   5.282 -0.2680 -0.0517  0.0661
33532OCT     C167063   1.750  16.843   1.158  0.1819 -0.2648 -0.1342
33532OCT     C267064   2.232  16.670   1.052 -0.0818  0.0726 -0.2433
33533OCT     C167065  16.919  21.750  19.941  0.0800  0.1209 -0.2608
33533OCT     C267066  17.123  22.063  19.687 -0.2414 -0.0895 -0.0837
33534OCT     C167067  17.326  14.839   4.590  0.2969  0.0263  0.3320
33534OCT     C267068  17.744  14.558   4.750  0.0017 -0.0577 -0.2939
33535OCT     C167069   6.884   6.733   3.691 -0.1920  0.1688 -0.1713
33535OCT     C267070   7.063   7.110   3.921  0.1150 -0.1335  0.0099
33536OCT     C167071   1.148  20.525  20.678 -0.0578 -0.0079 -0.0825
33536OCT     C267072   1.253  20.370  21.103  0.2109  0.1588 -0.1620
33537OCT     C167073  22.179   7.212  14.768 -0.0122 -0.5242 -0.0453
33537OCT     C267074  22.433   7.559  14.632  0.0303 -0.0899 -0.1222
33538OCT     C167075  13.235   1.173   1.531  0.1297  0.0492  0.2605
33538OCT     C267076  13.429   0.990   1.896 -0.0016  0.1493  0.2193
33539OCT     C167077  12.031   8.783  13.889 -0.2839 -0.0563  0.1861
33539OCT     C267078  11.716   8.850  14.221  0.0105 -0.2237  0.0802
33540OCT     C167079  21.697   8.207  22.399  0.1422 -0.1752  0.0880
33540OCT     C267080  21.223   8.293  22.581 -0.0924  0.2235 -0.2813
33541OCT     C167081  16.921   7.635   0.012  0.3229  0.3800  0.1434
33541OCT     C267082  17.336   7.722   0.052  0.0334  0.1203  0.4149
33542OCT     C167083   0.058  18.720   5.644  0.3419 -0.0689  0.2551
33542OCT     C267084  23.554  18.402   5.951  0.1121  0.0226  0.0088
33543OCT     C167085  16.621  16.773   4.995  0.4033 -0.2809 -0.1269
33543OCT     C267086  16.764  17.037   5.368  0.4801 -0.2253  0.0713
33544OCT     C167087  10.088   9.934  10.565 -0.2519 -0.2421  0.2771
33544OCT     C267088   9.963  10.268  10.795  0.1567 -0.2139 -0.0660
33545OCT     C167089   5.488   0.044   3.820 -0.1615  0.1406  0.1867
33545OCT     C267090   5.419   0.081   4.303  0.0819 -0.0413 -0.0842
33546OCT     C167091   5.353  22.052  19.336 -0.6067 -0.0882  0.3206
33546OCT     C267092   5.306  22.232  19.756 -0.3639 -0.1155 -0.0900
33547OCT     C167093  22.553  21.166  12.068 -0.0287 -0.0042  0.4008
33547OCT     C267094  22.674  21.437  12.355 -0.3329 -0.2525  0.3270
33548OCT     C167095  11.443  23.077  21.712 -0.0748 -0.2022  0.0497
33548OCT     C267096  11.013  23.109  21.808  0.1956  0.1594 -0.3651
33549OCT     C167097   8.585   4.204   2.843 -0.1261  0.0697  0.2110
33549OCT     C267098   8.704   4.645   2.911  0.4335  0.0664 -0.1811
33550OCT     C167099  22.616  23.371  12.136 -0.3047 -0.2185 -0.2658
33550OCT     C267100  22.428  23.541  12.545 -0.0089  0.2849 -0.0233
33551OCT     C167101  22.666  12.611  21.286 -0.2877  0.1389  0.0349
33551OCT     C267102  22.977  12.629  21.666  0.0660 -0.0183  0.2170
33552OCT     C167103   2.327   4.645   9.731 -0.4190  0.3329 -0.3136
33552OCT     C267104   1.965   4.672  10.013 -0.1568 -0.1297  0.0841
33553OCT     C167105  13.727  17.119  12.399  0.0010  0.0606  0.1977
33553OCT     C267106  13.676  16.623  12.488 -0.0832  0.0445 -0.1423
33554OCT     C167107   2.904   1.268   7.403  0.1247  0.0295  0.1468
33554OCT     C267108   3.210   1.374   7.087 -0.0345  0.1661 -0.2859
33555OCT     C167109   4.898  18.000  13.944  0.1648 -0.1150  0.1958
33555OCT     C267110   5.306  17.951  13.675  0.0116 -0.1577 -0.0098
33556OCT     C167111   5.112  15.598   9.138  0.1946  0.2082 -0.1073
33556OCT     C267112   5.268  15.347   9.507  0.2413  0.0707  0.3122
33557OCT     C167113   4.278  22.217  13.124  0.0471 -0.2904 -0.0180
33557OCT     C267114   4.299  22.655  12.916 -0.0249  0.1364  0.1110
33558OCT     C167115   4.480  20.859   9.251  0.1621  0.1090 -0.3627
33558OCT     C267116   4.218  20.560   8.967  0.0261 -0.0944 -0.1921
33559OCT     C167117   2.717  20.820   7.798  0.0749  0.0465 -0.1873
33559OCT     C267118   2.839  21.257   7.933  0.0563  0.3239 -0.1265
33560OCT     C167119  20.630   4.909   8.207 -0.0067  0.2707  0.1302
33560OCT     C267120  20.218   4.796   8.239 -0.0750 -0.1233 -0.1078
33561OCT     C167121   8.878   0.815   8.872  0.0976  0.2406 -0.2453
33561OCT     C267122   9.168   1.141   8.912  0.1681 -0.3818  0.2293
33562OCT     C167123  19.106  19.419  19.752  0.1153 -0.1445  0.0091
33562OCT     C267124  19.111  19.756  20.006  0.1072 -0.1585  0.0183
33563OCT     C167125   2.734   6.060  13.396  0.1134  0.1092  0.4403
33563OCT     C267126   2.272   6.166  13.441 -0.0464 -0.0019 -0.3728
33564OCT     C167127   1.942  14.187  15.055 -0.2606 -0.0973  0.0369
33564OCT     C267128   2.338  13.901  14.903  0.3596 -0.0049 -0.2061
33565OCT     C167129   7.373   3.213   7.131 -0.0905  0.0951 -0.1585
33565OCT     C267130   7.425   2.767   7.208  0.2600 -0.2719  0.0368
33566OCT     C167131  18.861  10.314   6.003  0.0945  0.1361 -0.1591
33566OCT     C267132  19.141  10.306   5.608 -0.3452 -0.0737  0.0395
33567OCT     C167133   6.059   4.445   2.824 -0.0937 -0.3225 -0.0515
33567OCT     C267134   6.213   4.501   2.423  0.1161 -0.1416  0.0295
33568OCT     C167135  11.347   6.244  23.446  0.3989  0.2527 -0.0662
33568OCT     C267136  11.255   6.120  22.999  0.0361 -0.0442 -0.3107
33569OCT     C167137  13.594   3.289   1.519  0.3144  0.1215  0.1717
33569OCT     C267138  13.138   3.321   1.336  0.1365 -0.0426 -0.0756
33570OCT     C167139   5.898  19.940   6.559  0.0270 -0.1439 -0.0544
33570OCT     C267140   5.789  20.098   7.005  0.2269 -0.2833  0.2663
33571OCT     C167141   9.220   3.586  15.011  0.0875  0.1659 -0.0803
33571OCT     C267142   8.853   3.819  14.796 -0.3572  0.3273 -0.3961
33572OCT     C167143   8.307   7.742  17.157  0.3180  0.3709  0.0969
33572OCT     C267144   7.931   7.954  17.188 -0.2337  0.0339 -0.0698
33573OCT     C167145   8.424  14.597  21.902 -0.3243 -0.1144 -0.2292
33573OCT     C267146   8.853  14.838  21.923  0.1447  0.0510  0.1214
33574OCT     C167147  13.876   8.490   8.076 -0.0469  0.3827 -0.1025
33574OCT     C267148  13.985   8.625   7.617 -0.4045 -0.2908 -0.3648
33575OCT     C167149   6.331  20.002   3.762 -0.0938  0.2040 -0.2485
33575OCT     C267150   6.173  20.267   4.086 -0.1794 -0.1012  0.2382
33576OCT     C167151  12.223   4.828  21.684  0.1608  0.1389 -0.0124
33576OCT     C267152  11.764   4.905  21.573 -0.3368 -0.1526  0.2033
33577OCT     C167153   6.124   3.654   3.136 -0.4225 -0.0733  0.2336
33577OCT     C267154   6.023   4.151   3.235  0.0608  0.0790 -0.0483
33578OCT     C167155  11.040   7.661   9.310  0.2133  0.1673 -0.3696
33578OCT     C267156  11.461   7.880   9.526  0.0976  0.0904  0.3580
33579OCT     C167157   2.040   9.733  17.402  0.1724 -0.3210  0.0881
33579OCT     C267158   2.037   9.949  17.026 -0.0755  0.2181 -0.3301
33580OCT     C167159   9.573   5.014  21.681 -0.0374 -0.0177 -0.0811
33580OCT     C267160   9.874   5.267  21.367  0.2880 -0.0850 -0.4339
33581OCT     C167161  15.654  15.634  12.306  0.1665 -0.0853 -0.0649
33581OCT     C267162  15.703  15.313  11.957 -0.2593  0.1249  0.0710
33582OCT     C167163   4.413  22.076   0.662 -0.1912 -0.2094 -0.0843
33582OCT     C267164   4.457  21.776   1.028 -0.1359 -0.0564  0.0420
33583OCT     C167165   6.393  17.020  22.127 -0.0825 -0.0004 -0.0253
33583OCT     C267166   6.157  16.788  21.810  0.0059  0.2510 -0.5347
33584OCT     C167167  22.879  12.292   9.842 -0.2503  0.4015  0.0614
33584OCT     C267168  22.706  11.878   9.789 -0.2579  0.2794 -0.2698
33585OCT     C167169  15.007   2.370   0.006  0.1804 -0.2943 -0.1705
33585OCT     C267170  15.138   2.089  23.405 -0.1060  0.2821 -0.1058
33586OCT     C167171  13.365  18.110  19.412  0.0038 -0.0299  0.1398
33586OCT     C267172  12.995  18.225  19.670  0.1743  0.1824  0.1577
33587OCT     C167173  21.154  20.459   5.345  0.3510  0.0409  0.2708
33587OCT     C267174  20.757  20.358   5.595  0.0036 -0.3331 -0.0651
33588OCT     C167175  17.970   5.085  16.219  0.1286 -0.0613 -0.1677
33588OCT     C267176  18.192   5.412  16.480  0.0686 -0.0048 -0.1054
33589OCT     C167177  22.042  16.463  23.202  0.0579  0.1393 -0.3400
33589OCT     C267178  22.068  16.084  22.955  0.0884 -0.0421 -0.3985
33590OCT     C167179   8.740  10.720  22.183  0.0454 -0.1504  0.0353
33590OCT     C267180   9.087  10.447  22.343 -0.0396  0.0734  0.2275
33591OCT     C167181  13.534  14.363  21.035  0.3517  0.3062  0.1413
33591OCT     C267182  13.891  14.339  21.331  0.1837  0.2152  0.1275
33592OCT     C167183   1.920   0.753   7.115  0.0557 -0.0520  0.2958
33592OCT     C267184   2.287   0.620   7.231 -0.0135 -0.1844 -0.0840
33593OCT     C167185  20.724   6.339   1.660  0.3641  0.3953 -0.1293
33593OCT     C267186  20.310   6.518   1.524  0.0267  0.1722  0.0692
33594OCT     C167187  10.422   8.181  17.362 -0.4056 -0.0333 -0.1068
33594OCT     C267188  10.062   7.874  17.337 -0.3226 -0.0363  0.0491
33595OCT     C167189   1.439  20.906  14.210 -0.0306  0.2459 -0.2732
33595OCT     C267190   1.709  20.538  14.286 -0.2629  0.4648 -0.1157
33596OCT     C167191   9.690  10.167  18.748 -0.0629 -0.1530 -0.0457
33596OCT     C267192   9.700   9.683  18.974 -0.3444  0.0816 -0.2306
33597OCT     C167193  19.298  21.197   6.112 -0.1801  0.1298  0.0476
33597OCT     C267194  19.603  21.069   5.753  0.1584 -0.0450 -0.1354
33598OCT     C167195   4.258  10.488   8.075  0.0120  0.0605 -0.0491
33598OCT     C267196   4.539  10.527   8.451  0.0838 -0.1032  0.0990
33599OCT     C167197  16.294  18.853   8.795 -0.2116 -0.1393  0.1994
33599OCT     C267198  16.708  18.556   8.814  0.1676  0.1100 -0.3628
33600OCT     C167199  20.965  19.399   6.526 -0.2052 -0.1401 -0.2208
33600OCT     C267200  20.758  19.656   6.823  0.0466 -0.1749  0.0245
33601OCT     C167201  16.218  17.046   1.361 -0.1361  0.0393 -0.2263
33601OCT     C267202  15.831  17.141   1.144  0.1782  0.1966  0.1072
33602OCT     C167203  12.457   0.782  18.074  0.3511 -0.1265 -0.6477
33602OCT     C267204  12.444   0.526  17.689 -0.0010 -0.0188 -0.0158
33603OCT     C167205   2.302  22.043   3.221 -0.0907  0.3325 -0.4219
33603OCT     C267206   2.382  22.555   3.270 -0.0831 -0.3791 -0.3878
33604OCT     C167207  22.599  14.877  19.166 -0.4094 -0.0059 -0.0811
33604OCT     C267208  22.770  15.238  19.436  0.0429  0.0458 -0.1422
33605OCT     C167209  11.990  21.357  20.488  0.1756 -0.1399 -0.1353
33605OCT     C267210  11.609  21.125  20.631 -0.3992  0.0554 -0.1012
33606OCT     C167211   7.488   3.007   2.933 -0.1861 -0.0430  0.0357
33606OCT     C267212   7.644   3.293   3.254  0.0161  0.0155  0.1599
33607OCT     C167213  15.021  10.894   5.599  0.1985 -0.0655 -0.0250
33607OCT     C267214  14.712  10.636   5.274 -0.1395  0.2734  0.0313
33608OCT     C167215  12.807  18.976   1.348 -0.1719 -0.4071  0.1059
33608OCT     C267216  12.515  19.301   1.240  0.0281 -0.4498  0.0874
33609OCT     C167217   5.172   7.895   3.997  0.1303 -0.3941 -0.0879
33609OCT     C267218   5.522   8.141   4.122 -0.2108 -0.1817  0.2000
33610OCT     C167219  20.142  11.919  13.461 -0.2110  0.0968  0.1005
33610OCT     C267220  20.430  12.122  13.726  0.1451 -0.1299 -0.1045
33611OCT     C167221   2.279  22.796   8.638  0.0534 -0.1773 -0.1460
33611OCT     C267222   2.669  22.739   8.449 -0.0683 -0.3598  0.1761
33612OCT     C167223  11.181  11.099   5.511 -0.2242 -0.3398  0.0916
33612OCT     C267224  10.781  10.885   5.537 -0.0743 -0.0935  0.0250
33613OCT     C167225   3.093   0.184   0.283 -0.1163 -0.1378 -0.0839
33613OCT     C267226   3.532   0.291   0.185  0.1889 -0.1851 -0.0871
33614OCT     C167227  18.555  20.180  18.666 -0.0382 -0.3259 -0.1157
33614OCT     C267228  18.879  20.268  18.355  0.0064 -0.0290 -0.0722
33615OCT     C167229  20.882  13.432  13.668  0.3099  0.2198  0.3238
33615OCT     C267230  20.832  13.182  13.236 -0.0035  0.1131  0.2337
33616OCT     C167231   3.443   6.261  15.997  0.0673 -0.1293 -0.0849
33616OCT     C267232   3.659   6.150  15.607 -0.0300 -0.0718 -0.0478
33617OCT     C167233   8.075  21.666  10.539  0.0193 -0.3197  0.0861
33617OCT     C267234   8.418  21.867  10.799  0.1226  0.1596  0.4906
33618OCT     C167235   9.025   8.067   0.574 -0.0917  0.1318 -0.1087
33618OCT     C267236   8.869   8.468   0.704  0.2444  0.0351 -0.0537
33619OCT     C167237   7.502   4.456  16.732  0.1751  0.1639 -0.1235
33619OCT     C267238   7.660   4.694  16.419  0.1429  0.0808  0.3234
33620OCT     C167239  21.852  23.240  19.400  0.1852  0.0495  0.1635
33620OCT     C267240  22.251  23.087  19.317 -0.5528 -0.2400  0.0768
33621OCT     C167241  21.892   7.649  19.837 -0.0800  0.1508  0.1179
33621OCT     C267242  21.960   7.168  19.845 -0.3762 -0.0798  0.2049
33622OCT     C167243   1.617   3.292   1.489  0.0255  0.0751 -0.1523
33622OCT     C267244   1.639   3.478   1.055 -0.2029  0.4001 -0.1824
33623OCT     C167245   7.674   7.650  14.416  0.0268 -0.3390 -0.2730
33623OCT     C267246   7.972   7.577  14.727 -0.0332  0.1585 -0.0977
33624OCT     C167247  12.611  18.680  23.451 -0.4988  0.0563  0.2985
33624OCT     C267248  12.978  18.944  23.574 -0.2672  0.3708 -0.0627
33625OCT     C167249   7.818   6.360   6.334 -0.0862  0.5012 -0.1482
33625OCT     C267250   8.252   6.141   6.326 -0.2151 -0.2894  0.3523
33626OCT     C167251  15.806   9.038   8.393  0.1681 -0.2578  0.1628
33626OCT     C267252  15.679   8.592   8.467 -0.1815  0.2106  0.0386
33627OCT     C167253   9.428  20.442  13.748 -0.0871 -0.0522  0.1101
33627OCT     C267254   9.811  20.636  13.530 -0.2561 -0.3424 -0.2476
33628OCT     C167255   5.523   2.205  18.923 -0.0799  0.4664  0.1423
33628OCT     C267256   5.942   2.269  19.198  0.4348  0.0492 -0.0335
33629OCT     C167257   3.065  14.433  10.817 -0.4458 -0.1219 -0.0841
33629OCT     C267258   2.628  14.428  10.721  0.0115 -0.3757  0.4220
33630OCT     C167259   8.389  20.318  11.945  0.0836 -0.0483  0.1423
33630OCT     C267260   7.910  20.431  12.020  0.0059 -0.1829 -0.2462
33631OCT     C167261  16.104  21.461  12.662 -0.4048 -0.2662  0.2704
33631OCT     C267262  15.924  21.238  13.063 -0.3380  0.3004 -0.2794
33632OCT     C167263   9.818  20.444  12.512 -0.1094  0.3137 -0.2391
33632OCT     C267264   9.498  20.224  12.217  0.0454 -0.0480 -0.1522
33633OCT     C167265  19.692   6.444  22.697 -0.0786 -0.3037 -0.0709
33633OCT     C267266  19.371   6.672  22.991 -0.0423 -0.0355 -0.6103
33634OCT     C167267  15.678  20.794  22.120 -0.0771 -0.0709 -0.0386
33634OCT     C267268  15.759  20.679  21.653  0.1396  0.0638 -0.1743
33635OCT     C167269  22.133  12.586   6.071 -0.1130  0.1073  0.2012
33635OCT     C267270  22.544  12.391   6.199 -0.0330  0.3448 -0.3902
33636OCT     C167271   1.372  16.941  12.336 -0.3847  0.1373 -0.0017
33636OCT     C267272   1.523  17.408  12.366  0.5222 -0.0783  0.0896
33637OCT     C167273   6.134   4.275   9.950  0.0076  0.0431 -0.0513
33637OCT     C267274   6.057   4.396   9.568 -0.1479  0.2219 -0.0435
33638OCT     C167275   9.032   1.905  13.116  0.0449 -0.0958  0.1245
33638OCT     C267276   9.029   2.246  12.802 -0.0903 -0.1324 -0.2714
33639OCT     C167277  13.695   5.656  19.765 -0.0103  0.4636  0.1352
33639OCT     C267278  13.435   5.985  19.870  0.1036 -0.2569 -0.3514
33640OCT     C167279   7.246  19.557   6.956 -0.1699 -0.1106 -0.2063
33640OCT     C267280   7.339  19.180   6.777  0.2055  0.2815  0.0755
33641OCT     C167281   2.507  19.180   6.011 -0.0158  0.1391  0.1951
33641OCT     C267282   2.996  19.038   5.890  0.0153  0.1595 -0.0998
33642OCT     C167283   2.913  23.540   5.066 -0.0875  0.0578 -0.3193
33642OCT     C267284   3.286  23.681   5.328 -0.1110  0.6328 -0.2248
33643OCT     C167285  18.669  19.554   1.311  0.0500 -0.2856 -0.0132
33643OCT     C267286  18.417  19.259   1.068 -0.0438 -0.0736 -0.5561
33644OCT     C167287  15.689  15.274  18.292 -0.3005 -0.1408 -0.1047
33644OCT     C267288  16.186  15.398  18.401  0.0839 -0.2715  0.0606
33645OCT     C167289  19.628   6.875   8.589  0.0173 -0.0344  0.0815
33645OCT     C267290  19.985   7.085   8.771 -0.1909 -0.7875 -0.2550
33646OCT     C167291  20.527   2.150  12.813 -0.3543 -0.1408  0.1873
33646OCT     C267292  20.059   2.141  12.729  0.0153  0.0761 -0.0865
33647OCT     C167293  19.359  11.772  17.130 -0.1936 -0.0224  0.4882
33647OCT     C267294  19.084  11.719  16.749 -0.2222 -0.1962  0.1271
33648OCT     C167295  14.939  18.389  10.747  0.0967 -0.2634 -0.0048
33648OCT     C267296  14.765  18.497  10.356 -0.3157  0.2907  0.1904
33649OCT     C167297   2.339  18.605  12.947 -0.3231 -0.2250  0.1417
33649OCT     C267298   2.019  18.774  13.245 -0.2313 -0.0722  0.2623
33650OCT     C167299  13.466   8.763  20.166 -0.1382  0.2364  0.0150
33650OCT     C267300  13.516   8.874  20.604 -0.1742 -0.4223 -0.3623
33651OCT     C167301  18.414  16.617   0.825  0.1441  0.1721 -0.0735
33651OCT     C267302  18.725  16.943   0.669  0.0373  0.0155 -0.1407
33652OCT     C167303  20.205  16.103   7.923 -0.3251  0.0645  0.0241
33652OCT     C267304  19.852  15.892   8.176  0.0210  0.0919  0.1015
33653OCT     C167305  15.664  19.561  18.481 -0.0664 -0.0199  0.0779
33653OCT     C267306  16.128  19.590  18.624 -0.2184  0.4681  0.2247
33654OCT     C167307   6.086  13.566  21.413 -0.3421 -0.2109 -0.1186
33654OCT     C267308   6.341  13.628  21.019 -0.3088  0.2698  0.1813
33655OCT     C167309  22.693  21.859  17.662 -0.1321  0.1700  0.1996
33655OCT     C267310  23.016  21.978  17.370  0.0175 -0.2343  0.1668
33656OCT     C167311   6.244   9.618  11.130 -0.0482 -0.3911  0.0252
33656OCT     C267312   6.226   9.293  10.808 -0.1255 -0.1306 -0.1884
33657OCT     C167313  16.262  15.822  17.712 -0.0247 -0.0645  0.5035
33657OCT     C267314  16.013  16.145  17.434  0.1061  0.1722  0.2122
33658OCT     C167315  18.086  22.390  17.285  0.3339 -0.4136 -0.1400
33658OCT     C267316  17.827  22.142  17.620 -0.0183  0.3640 -0.1830
33659OCT     C167317   8.077  11.602   6.337 -0.2277 -0.0702 -0.0129
33659OCT     C267318   8.438  11.851   6.193 -0.0721  0.0710 -0.0304
33660OCT     C167319   3.011  10.468  11.519 -0.1358 -0.2379 -0.2741
33660OCT     C267320   2.753  10.671  11.182  0.2965 -0.1287 -0.1563
33661OCT     C167321  16.160   9.252  19.766 -0.0852 -0.2947 -0.0588
33661OCT     C267322  16.477   9.067  19.529  0.2664  0.0870  0.0842
33662OCT     C167323   7.248   2.048   2.145  0.0607  0.1518 -0.1356
33662OCT     C267324   7.642   2.188   1.957 -0.0416  0.1500  0.0842
33663OCT     C167325   1.867  11.224  21.208  0.1127 -0.2344 -0.0887
33663OCT     C267326   1.610  10.836  21.155  0.1077 -0.2003  0.0989
33664OCT     C167327  18.539  14.237   6.415 -0.0379 -0.2670  0.1943
33664OCT     C267328  18.365  13.809   6.373  0.3830  0.0140 -0.0646
33665OCT     C167329   3.338   7.406   4.130 -0.0680  0.2827  0.3371
33665OCT     C267330   3.395   6.963   4.150  0.0012 -0.1786 -0.2468
33666OCT     C167331  11.197  19.113  20.242 -0.3503  0.2735 -0.0395
33666OCT     C267332  11.189  18.949  20.696 -0.2578  0.1470  0.1271
33667OCT     C167333   5.884  10.931   1.525  0.1402  0.1010  0.1059
33667OCT     C267334   5.949  10.707   1.096 -0.0329  0.2006  0.1475
33668OCT     C167335  15.593   2.850   9.025 -0.2790 -0.0720  0.3176
33668OCT     C267336  15.256   3.096   9.291 -0.1578  0.2349  0.1427
33669OCT     C167337  12.692  14.835  12.940 -0.1983  0.1567 -0.0387
33669OCT     C267338  12.973  14.956  13.238  0.2506  0.0161 -0.2540
33670OCT     C167339   6.780   0.910  19.573 -0.2062  0.1405  0.1244
33670OCT     C267340   7.027   1.049  19.948 -0.1853  0.4209 -0.1318
33671OCT     C167341  12.981  13.961   7.698  0.2683 -0.0813  0.3469
33671OCT     C267342  12.789  14.367   7.811  0.3498  0.4248  0.1181
33672OCT     C167343  19.989  11.493  16.562 -0.1588  0.1341 -0.0603
33672OCT     C267344  20.443  11.647  16.598 -0.2757  0.0537 -0.0771
33673OCT     C167345  13.172   9.048  15.442  0.1682  0.1527  0.1275
33673OCT     C267346  13.225   9.490  15.575  0.0986 -0.3162 -0.1286
33674OCT     C167347  23.250  17.922  11.124 -0.2617  0.1894  0.0685
33674OCT     C267348  23.355  18.117  10.676 -0.1180 -0.3341 -0.6433
33675OCT     C167349  15.908   4.252   0.897  0.1698  0.5903  0.2104
33675OCT     C267350  15.654   4.184   1.319 -0.0988  0.0094 -0.0118
33676OCT     C167351  19.504   2.759   7.429 -0.0797 -0.0850  0.1044
33676OCT     C267352  19.257   2.960   7.715 -0.1587 -0.2070 -0.1455
33677OCT     C167353  22.286  11.617   1.161  0.1354  0.1948  0.3434
33677OCT     C267354  22.747  11.615   1.179 -0.1154 -0.0156  0.3024
33678OCT     C167355  20.441  19.009  18.079 -0.0376 -0.2288 -0.1912
33678OCT     C267356  20.866  18.972  17.899 -0.0581 -0.1913  0.0951
33679OCT     C167357   1.814  15.939  19.023  0.1040 -0.1351  0.0282
33679OCT     C267358   1.615  16.129  19.361  0.2013  0.2862 -0.1109
33680OCT     C167359  14.024   7.753   1.576 -0.0791 -0.2096  0.0088
33680OCT     C267360  14.478   7.673   1.362 -0.0494 -0.0078 -0.2326
33681OCT     C167361   8.129  23.136   2.127 -0.4031 -0.0984 -0.1621
33681OCT     C267362   8.422  22.871   1.949  0.5597 -0.1612  0.2726
33682OCT     C167363   8.309   7.368  16.828  0.0511 -0.1932 -0.0399
33682OCT     C267364   8.669   7.357  17.185  0.1163  0.2416 -0.0536
33683OCT     C167365  21.665  21.191  22.362  0.2645 -0.2398 -0.0335
33683OCT     C267366  21.689  21.459  21.927  0.2344  0.0237  0.3153
33684OCT     C167367  23.373  12.473  11.628  0.0066 -0.0393 -0.0122
33684OCT     C267368  23.683  12.831  11.757 -0.1010  0.1700  0.5321
33685OCT     C167369   3.860   4.366  18.369 -0.1897  0.3810 -0.2283
33685OCT     C267370   4.094   4.783  18.423  0.3080  0.1220  0.0780
33686OCT     C167371   8.859  16.833   7.035 -0.0482  0.2834 -0.1213
33686OCT     C267372   9.022  16.574   6.660  0.1252 -0.0057  0.1063
33687OCT     C167373  19.931  12.809  22.545 -0.1116  0.4261  0.0868
33687OCT     C267374  19.927  12.603  22.066 -0.1978 -0.3844  0.2674
33688OCT     C167375  20.527   1.629   3.085 -0.0427 -0.1818 -0.0147
33688OCT     C267376  20.931   1.477   3.253 -0.2920 -0.3107 -0.0909
33689OCT     C167377   7.726  22.300   9.300  0.4496  0.0055 -0.0809
33689OCT     C267378   7.649  22.606   9.640 -0.1306 -0.0653  0.0870
33690OCT     C167379  21.197  14.146  16.925 -0.0686 -0.0906 -0.0445
33690OCT     C267380  21.182  13.727  16.739  0.2351 -0.0070  0.4270
33691OCT     C167381  15.561  23.423   8.216 -0.5085  0.0908 -0.1562
33691OCT     C267382  15.511  23.085   8.533 -0.2714 -0.3420  0.1793
33692OCT     C167383  22.268   7.167   0.786  0.0927  0.0544  0.1101
33692OCT     C267384  21.865   6.974   0.787  0.0381 -0.0466  0.4034
33693OCT     C167385   3.330   5.395  13.359 -0.0346  0.1126  0.2127
33693OCT     C267386   3.363   5.687  13.010  0.1041 -0.4235  0.2500
33694OCT     C167387  20.061   9.264  19.545  0.1657  0.4066  0.0740
33694OCT     C267388  20.388   8.973  19.432  0.1766  0.4928  0.0775
33695OCT     C167389  11.962   0.637   7.070 -0.1627  0.2191  0.1229
33695OCT     C267390  11.843   0.441   7.509 -0.2853 -0.5437 -0.0990
33696OCT     C167391   1.960  12.043   2.756  0.0878  0.1864  0.1872
33696OCT     C267392   1.993  12.102   3.264 -0.0664 -0.2383  0.0697
33697OCT     C167393   8.606   7.999  14.076 -0.3350  0.3142  0.2340
33697OCT     C267394   8.333   7.834  14.450 -0.0288 -0.1699  0.5610
33698OCT     C167395  22.909  21.435  12.857 -0.5476 -0.2612 -0.0703
33698OCT     C267396  23.183  21.568  13.221  0.3382 -0.0906  0.2864
33699OCT     C167397  18.322   0.009   5.356 -0.2147  0.1582  0.0872
33699OCT     C267398  18.286  23.680   4.964  0.1252 -0.0895 -0.1202
33700OCT     C167399   4.996  16.135   5.691 -0.0508 -0.0021  0.0973
33700OCT     C267400   4.715  16.105   6.062  0.0567 -0.0636  0.0353
33701OCT     C167401   8.978  19.773  23.678  0.1011  0.2251  0.3221
33701OCT     C267402   8.522  19.821   0.002  0.0385 -0.0918 -0.3798
33702OCT     C167403  22.082   3.462  16.155  0.1736 -0.0056 -0.1965
33702OCT     C267404  22.544   3.357  16.119  0.1022 -0.0744 -0.0751
33703OCT     C167405  14.959  19.884  16.736 -0.3649 -0.3678 -0.0581
33703OCT     C267406  14.668  19.738  16.378  0.0940 -0.2194 -0.5566
33704OCT     C167407  10.086   5.751   9.901 -0.3146  0.2704 -0.1037
33704OCT     C267408  10.516   5.919   9.878  0.0799 -0.5304  0.3363
33705OCT     C167409   9.758  13.151  15.379  0.0161 -0.3167  0.1366
33705OCT     C267410   9.659  13.142  15.888 -0.0926 -0.0786  0.0345
33706OCT     C167411  21.521   7.206  10.647 -0.2333 -0.0829  0.0947
33706OCT     C267412  21.596   7.547  10.368 -0.0408  0.0032 -0.2215
33707OCT     C167413  22.531   9.597   2.085 -0.1015 -0.2511  0.0157
33707OCT     C267414  22.273   9.223   2.165  0.2073  0.4463 -0.0582
33708OCT     C167415   9.893  13.956  16.141  0.3333 -0.2098  0.0675
33708OCT     C267416   9.712  13.586  16.362  0.5099 -0.1000 -0.0663
33709OCT     C167417   4.773  22.606   7.436 -0.0482  0.0214  0.3653
33709OCT     C267418   4.746  22.092   7.378  0.0695 -0.0919 -0.0935
33710OCT     C167419   2.752  13.550   7.714 -0.2342 -0.7990 -0.0879
33710OCT     C267420   3.192  13.855   7.731 -0.1776 -0.1293 -0.1039
33711OCT     C167421   7.561  18.049   9.106 -0.4718  0.2682 -0.1158
33711OCT     C267422   7.531  18.373   9.429  0.2098 -0.1336  0.0053
33712OCT     C167423  22.530  17.482   1.779 -0.1439 -0.4877 -0.1464
33712OCT     C267424  22.616  17.157   2.125 -0.1413 -0.1508  0.2502
33713OCT     C167425  15.848  11.209  11.306 -0.1823  0.2022  0.1335
33713OCT     C267426  16.237  11.048  11.096 -0.1223  0.1667  0.0120
33714OCT     C167427   1.069  13.169  14.287  0.2860  0.3316 -0.3696
33714OCT     C267428   0.939  12.976  13.885 -0.1009 -0.3181 -0.5445
33715OCT     C167429   5.483  12.289  16.039 -0.1376 -0.2685 -0.2557
33715OCT     C267430   5.068  12.415  15.858  0.1291  0.0876 -0.3009
33716OCT     C167431   2.158   3.456  18.082  0.2026  0.2674 -0.0295
33716OCT     C267432   2.165   3.336  17.630 -0.0379  0.0081  0.0537
33717OCT     C167433  16.935   6.853  15.637 -0.0165  0.0825  0.2803
33717OCT     C267434  17.392   6.728  15.702  0.1195  0.2576 -0.0011
33718OCT     C167435   4.158   3.461   1.478  0.0771  0.0090  0.0030
33718OCT     C267436   3.826   3.150   1.720 -0.1248 -0.1093 -0.1155
33719OCT     C167437  12.509  18.426  12.830 -0.2664 -0.1643 -0.1595
33719OCT     C267438  12.357  18.242  12.417  0.2606  0.0297 -0.5061
33720OCT     C167439  18.772  13.654  13.330 -0.1518 -0.0398 -0.0201
33720OCT     C267440  19.009  13.846  13.713 -0.5182 -0.2102  0.0524
33721OCT     C167441  21.028  16.223  16.110 -0.0182 -0.2253 -0.0559
33721OCT     C267442  21.326  16.278  15.768 -0.2983 -0.0443 -0.3392
33722OCT     C167443   8.957  12.438  11.868 -0.0952 -0.2510 -0.0789
33722OCT     C267444   9.265  12.732  11.928 -0.0904 -0.0124 -0.0735
33723OCT     C167445  19.522   0.926   0.691 -0.1395  0.1883  0.1658
33723OCT     C267446  19.768   0.728   0.317  0.4753  0.1395  0.0973
33724OCT     C167447  13.047   5.262   1.125 -0.1878 -0.0141  0.0431
33724OCT     C267448  13.523   5.167   1.092  0.5342  0.1392  0.1125
33725OCT     C167449   0.725  20.411   9.208  0.1430 -0.0820 -0.1667
33725OCT     C267450   0.630  20.145   8.819 -0.1178  0.0478 -0.1243
33726OCT     C167451  16.587   2.177   1.477 -0.2465  0.0831 -0.0025
33726OCT     C267452  16.553   1.719   1.555  0.0538  0.0370  0.1572
33727OCT     C167453   5.378  12.663  23.705  0.1565 -0.1157 -0.1289
33727OCT     C267454   5.183  12.505  23.295 -0.0212  0.2838 -0.1716
33728OCT     C167455   6.744   2.760   4.059 -0.0704  0.1748 -0.0242
33728OCT     C267456   6.879   2.954   4.479 -0.0800 -0.1141  0.2136
33729OCT     C167457  22.615   3.802  13.864 -0.1547 -0.0784 -0.0113
33729OCT     C267458  22.301   3.434  13.785 -0.2166 -0.4366 -0.1166
33730OCT     C167459   3.239   3.248   9.914 -0.1041 -0.1154 -0.1991
33730OCT     C267460   3.138   3.305  10.344  0.1647  0.3230  0.1643
33731OCT     C167461  17.791  10.297  21.977 -0.0686  0.1585 -0.3011
33731OCT     C267462  17.825  10.130  21.547 -0.1601 -0.3146  0.0377
33732OCT     C167463   7.952  21.273  17.259 -0.0472  0.0085 -0.2309
33732OCT     C267464   7.948  21.703  17.063 -0.1018 -0.2037 -0.2158
33733OCT     C167465   7.205  11.754  18.154  0.2877 -0.2555  0.0676
33733OCT     C267466   7.614  11.916  18.255 -0.1397 -0.0457  0.1047
33734OCT     C167467   9.602  12.830   1.244 -0.1652 -0.2131 -0.0572
33734OCT     C267468  10.091  12.992   1.181 -0.1432 -0.0418 -0.1246
33735OCT     C167469  11.142  11.320  22.656 -0.1273 -0.0642  0.0527
33735OCT     C267470  11.411  11.302  22.290 -0.0319  0.4768  0.0690
33736OCT     C167471  19.541   2.730  18.343  0.2561 -0.0912 -0.2401
33736OCT     C267472  19.301   2.869  17.945  0.0623  0.0129 -0.0182
33737OCT     C167473  21.829   6.833  23.570 -0.0397  0.2431  0.1733
33737OCT     C267474  21.374   6.791  23.430 -0.1450  0.2072 -0.0547
33738OCT     C167475   7.738  12.254  22.980 -0.1615  0.0255  0.0791
33738OCT     C267476   8.048  12.041  23.330  0.0395 -0.0286 -0.1721
33739OCT     C167477  22.807  21.000  12.579  0.1057 -0.2254  0.2134
33739OCT     C267478  22.328  21.034  12.494  0.2304 -0.0704 -0.0254
33740OCT     C167479  19.678  10.413  15.255  0.0864  0.0204 -0.0111
33740OCT     C267480  19.783  10.740  15.557  0.0919 -0.0840  0.0101
33741OCT     C167481   2.611   4.016  10.897 -0.0495 -0.0651 -0.1410
33741OCT     C267482   2.377   4.386  10.988  0.1831  0.3216  0.0220
33742OCT     C167483  19.935  19.152  21.833 -0.0775  0.0842  0.2766
33742OCT     C267484  19.847  19.623  21.936 -0.1674 -0.2880 -0.0678
33743OCT     C167485  18.620  16.739  21.475 -0.0076 -0.2647 -0.2963
33743OCT     C267486  18.783  16.829  21.913 -0.1290 -0.1604  0.0229
33744OCT     C167487   3.385  10.346  23.478 -0.0553  0.4346  0.2851
33744OCT     C267488   3.608  10.709  23.252  0.0591 -0.2187 -0.2452
33745OCT     C167489   2.773  16.708  16.821  0.2063 -0.0597 -0.2072
33745OCT     C267490   3.165  17.016  16.997 -0.0624  0.4378 -0.1404
33746OCT     C167491  10.364  19.140  13.769 -0.3720 -0.2137  0.0004
33746OCT     C267492  10.819  18.968  13.809  0.0200 -0.1209  0.2377
33747OCT     C167493  16.134   8.017   8.777 -0.2631 -0.2002  0.5719
33747OCT     C267494  16.516   7.838   9.051  0.1587  0.1651 -0.3358
33748OCT     C167495   8.689  23.595   5.541 -0.0191 -0.1015  0.2854
33748OCT     C267496   8.801   0.249   5.252 -0.0916 -0.0742  0.1470
33749OCT     C167497  21.251   7.540  21.189 -0.0174 -0.1733  0.0565
33749OCT     C267498  21.656   7.494  21.497 -0.4467 -0.0584 -0.0670
33750OCT     C167499   2.212  19.897  14.848 -0.0723  0.0291  0.3007
33750OCT     C267500   2.245  20.000  15.257 -0.1119  0.2957  0.5087
33751OCT     C167501   9.385  16.263   9.127 -0.1770 -0.2549 -0.0513
33751OCT     C267502   9.010  16.032   8.940 -0.4552 -0.4176  0.7235
33752OCT     C167503   3.891   7.476   7.674 -0.0215  0.0579 -0.2082
33752OCT     C267504   4.151   7.537   8.059 -0.4237  0.1396 -0.0231
33753OCT     C167505   3.499   3.626  13.027 -0.3582 -0.1929  0.0976
33753OCT     C267506   3.914   3.474  13.161 -0.0028 -0.0378 -0.0122
33754OCT     C167507  12.399   7.378   6.176  0.2131 -0.1820 -0.0576
33754OCT     C267508  12.732   7.067   6.174  0.0538  0.0787  0.1148
33755OCT     C167509  14.336  18.700  13.322 -0.0591  0.3470 -0.1982
33755OCT     C267510  14.701  18.683  13.041  0.0192 -0.0456  0.0560
33756OCT     C167511   3.112  20.243   5.352 -0.2577  0.1868 -0.1510
33756OCT     C267512   3.101  19.789   5.347 -0.2623  0.0955  0.1127
33757OCT     C167513  18.076  21.485   2.832  0.2506 -0.0357 -0.0067
33757OCT     C267514  17.847  21.868   2.931 -0.0203 -0.1612  0.2515
33758OCT     C167515  20.516   4.948  18.850  0.4495  0.2249 -0.1204
33758OCT     C267516  20.090   5.197  18.708  0.0595  0.0191  0.0639
33759OCT     C167517  21.295  21.614   2.095  0.1231 -0.2119  0.0212
33759OCT     C267518  21.169  21.473   2.563  0.1763  0.1150 -0.0118
33760OCT     C167519  10.852  18.103   5.149  0.0187  0.2060 -0.0843
33760OCT     C267520  10.703  18.242   5.540 -0.0745  0.0049 -0.1399
33761OCT     C167521  21.552  20.310  20.062  0.1158  0.1556  0.1539
33761OCT     C267522  21.695  19.970  20.416 -0.2882 -0.0315  0.2169
33762OCT     C167523  15.084  21.679  14.749 -0.1278  0.0090 -0.0828
33762OCT     C267524  15.504  21.538  14.784 -0.2216  0.4703 -0.1046
33763OCT     C167525  14.640  23.338   9.903  0.1583 -0.3185  0.1392
33763OCT     C267526  14.722  22.903   9.832 -0.1107 -0.1274 -0.0386
33764OCT     C167527  14.499   0.854   8.707 -0.2581  0.0649 -0.0940
33764OCT     C267528  14.372   1.121   9.058  0.0011  0.2200  0.0985
33765OCT     C167529  11.859   9.546  19.367 -0.3693  0.1204 -0.0890
33765OCT     C267530  12.289   9.669  19.299  0.1397  0.2176  0.0129
33766OCT     C167531   3.690  15.477   1.971 -0.2643  0.2028  0.1161
33766OCT     C267532   3.781  15.368   1.547 -0.0929  0.3342 -0.1099
33767OCT     C167533   1.093   4.444  17.022  0.0901 -0.4082 -0.1260
33767OCT     C267534   0.926   4.815  16.740 -0.2720 -0.0328 -0.0917
33768OCT     C167535  12.410   0.871  14.309  0.1485  0.0810 -0.0553
33768OCT     C267536  12.213   0.862  13.910  0.3681  0.0834 -0.1297
33769OCT     C167537   4.705   7.093  21.094  0.5684 -0.3498  0.0420
33769OCT     C267538   4.953   6.849  20.773  0.0085 -0.0431 -0.1213
33770OCT     C167539  10.335   0.023   8.465  0.1847 -0.1463  0.1939
33770OCT     C267540  10.469  23.367   8.648  0.3233 -0.2231 -0.0939
33771OCT     C167541  20.789   5.002   9.987  0.2509 -0.1466 -0.0104
33771OCT     C267542  20.510   5.330   9.774  0.0016 -0.2226 -0.1439
33772OCT     C167543  23.499  14.243   4.176  0.0673  0.1997 -0.1964
33772OCT     C267544  23.419  14.309   3.661  0.2405 -0.1018 -0.0025
33773OCT     C167545   9.997  21.181  13.466 -0.5630 -0.2176 -0.3118
33773OCT     C267546  10.063  20.951  13.855  0.0452  0.1307  0.3149
33774OCT     C167547   6.578  12.854  12.683  0.1384 -0.3553 -0.4147
33774OCT     C267548   6.126  12.675  12.714  0.0083  0.0544  0.1258
33775OCT     C167549   4.718   2.747   7.209 -0.3682 -0.0610  0.0674
33775OCT     C267550   5.034   2.795   6.779 -0.0938 -0.0836 -0.1317
33776OCT     C167551  16.129  23.577   0.035 -0.2419  0.2360 -0.3576
33776OCT     C267552  16.110   0.168  23.468 -0.1729  0.0066  0.1311
33777OCT     C167553   2.005  17.052  18.104  0.2665  0.2668 -0.1348
33777OCT     C267554   2.084  17.426  18.355 -0.5066  0.3079  0.0574
33778OCT     C167555  15.243   0.129  23.089  0.0429  0.0173  0.0838
33778OCT     C267556  15.654   0.265  23.271  0.1919  0.1393  0.1009
33779OCT     C167557   1.276  18.233   3.559 -0.2604  0.0250  0.1407
33779OCT     C267558   1.595  18.513   3.757  0.1083  0.0480  0.0508
33780OCT     C167559  12.587   7.111  17.155  0.0576 -0.1544  0.1349
33780OCT     C267560  12.188   7.334  17.128 -0.0669 -0.0408 -0.0795
33781OCT     C167561   6.432   5.776  14.451  0.0795 -0.1023  0.0577
33781OCT     C267562   5.999   5.633  14.531  0.1532 -0.4125  0.2141
33782OCT     C167563  10.878  23.642   3.066  0.6066  0.3098  0.4761
33782OCT     C267564  10.921  23.433   2.609  0.1296 -0.0207  0.2427
33783OCT     C167565  19.706  14.388   3.031 -0.0307 -0.2861  0.2685
33783OCT     C267566  19.807  14.092   2.693  0.0016 -0.2733  0.1507
33784OCT     C167567  18.601   3.375  12.248 -0.0702 -0.1356  0.4159
33784OCT     C267568  18.599   2.966  12.091 -0.2613  0.2707 -0.0447
33785OCT     C167569  11.663  15.815   5.002  0.3028  0.2847 -0.1779
33785OCT     C267570  11.601  15.663   4.496 -0.2039  0.1655 -0.3435
33786OCT     C167571   1.927   3.935  23.288 -0.2191 -0.1401  0.1405
33786OCT     C267572   1.689   4.280  23.311  0.1098 -0.3364 -0.2001
33787OCT     C167573   0.551   1.907   7.621 -0.0129 -0.0206  0.0633
33787OCT     C267574   0.162   2.013   7.858  0.0030  0.1346 -0.0621
33788OCT     C167575   1.567  13.237  20.685 -0.3147  0.1534  0.1579
33788OCT     C267576   1.906  13.504  20.884  0.2352  0.0461 -0.0250
33789OCT     C167577  20.869  23.457  13.463  0.3176 -0.1323 -0.3855
33789OCT     C267578  20.955  23.279  13.039  0.0657  0.2845  0.1260
33790OCT     C167579   1.417  22.938  17.712  0.0407 -0.3627 -0.1101
33790OCT     C267580   1.313  23.454  17.631  0.1313  0.2195 -0.3946
33791OCT     C167581   3.776  16.659  19.587 -0.0170  0.0396  0.2767
33791OCT     C267582   3.762  16.351  19.910  0.1685  0.3026 -0.5657
33792OCT     C167583   3.568   8.479  23.660  0.2443  0.0150  0.2117
33792OCT     C267584   3.129   8.363  23.668 -0.0762  0.2437 -0.1275
33793OCT     C167585   4.317  10.235   7.149  0.2355  0.1352  0.3602
33793OCT     C267586   4.475   9.787   7.036 -0.0660 -0.0609 -0.2211
33794OCT     C167587   4.029   7.381  10.535 -0.0008 -0.1580 -0.3477
33794OCT     C267588   4.072   6.911  10.637  0.0275  0.0713  0.0216
33795OCT     C167589  19.010  19.689  21.337 -0.1307 -0.0622  0.0791
33795OCT     C267590  19.167  20.142  21.223  0.1373 -0.0986  0.2974
33796OCT     C167591  14.003   1.165  18.961  0.1320 -0.1335 -0.0897
33796OCT     C267592  14.175   0.996  18.554  0.2693 -0.0224 -0.0139
33797OCT     C167593  15.041   6.899  15.584  0.3299 -0.2965  0.2691
33797OCT     C267594  15.204   6.480  15.773  0.1140  0.0012 -0.0253
33798OCT     C167595  20.181  17.000  13.971 -0.2745 -0.0148  0.1711
33798OCT     C267596  19.755  16.771  13.996 -0.4376  0.0587 -0.2608
33799OCT     C167597   6.497   2.030   1.648 -0.4119  0.1005 -0.1218
33799OCT     C267598   6.729   2.134   2.072 -0.0726  0.1190 -0.1382
33800OCT     C167599  22.746   8.515  19.342  0.1816 -0.1077 -0.1264
33800OCT     C267600  23.061   8.215  19.497  0.3104  0.2575  0.0600
33801OCT     C167601   9.336  18.026  18.048  0.4277  0.2252 -0.1454
33801OCT     C267602   9.549  17.633  17.929  0.0018 -0.1599  0.0377
33802OCT     C167603   6.675  22.864  19.739  0.0741 -0.0472  0.2285
33802OCT     C267604   6.341  23.206  19.603 -0.1919 -0.2363  0.1018
33803OCT     C167605   2.471  20.269   7.774  0.0951  0.0081 -0.0113
33803OCT     C267606   2.326  20.172   8.217 -0.0171  0.2287  0.2049
33804OCT     C167607  17.266   8.654   8.651  0.0609  0.1364  0.3269
33804OCT     C267608  17.050   9.078   8.531 -0.2758  0.1404  0.1016
33805OCT     C167609  16.393   2.717  11.667 -0.4809 -0.3999 -0.3522
33805OCT     C267610  16.601   2.340  11.929  0.1150 -0.3560 -0.0593
33806OCT     C167611  21.725  20.878  10.938 -0.0729 -0.0264  0.0432
33806OCT     C267612  21.843  21.373  11.007  0.3290  0.0847  0.0436
33807OCT     C167613  22.713   5.547  19.401  0.3302 -0.2979 -0.0889
33807OCT     C267614  22.954   5.972  19.451  0.3087 -0.0938 -0.3731
33808OCT     C167615   5.093   2.166  11.490  0.1467 -0.0159  0.2345
33808OCT     C267616   5.334   2.539  11.408 -0.4416 -0.0941 -0.3532
33809OCT     C167617  18.477  13.257  11.217  0.3643  0.2205  0.1444
33809OCT     C267618  18.160  12.930  11.188 -0.0607  0.1202 -0.5892
33810OCT     C167619  15.472  18.003   0.221 -0.2204 -0.0273 -0.4787
33810OCT     C267620  15.012  18.095   0.269  0.1090  0.2627  0.3654
33811OCT     C167621  15.032  19.250   2.952  0.0800  0.0968  0.4999
33811OCT     C267622  14.647  19.551   2.888 -0.3728 -0.3324 -0.0481
33812OCT     C167623   1.184  13.901  22.651  0.0196  0.0296 -0.4082
33812OCT     C267624   0.885  14.083  22.385  0.0782 -0.2577  0.3361
33813OCT     C167625   5.464  14.864  21.142 -0.1368  0.2856  0.2097
33813OCT     C267626   5.710  14.522  21.382  0.1386 -0.5035 -0.1197
33814OCT     C167627   7.102  19.201  16.399  0.1621  0.1591 -0.0733
33814OCT     C267628   6.931  18.978  16.765  0.1264 -0.0828 -0.1036
33815OCT     C167629   2.433  19.855   0.592 -0.2585  0.3606 -0.1763
33815OCT     C267630   2.673  19.903   0.987 -0.0213 -0.0384  0.2704
33816OCT     C167631   3.587  11.902   5.855  0.0882  0.1361 -0.2727
33816OCT     C267632   3.221  11.935   5.595  0.2720 -0.3371  0.3327
33817OCT     C167633  20.564   5.573  23.627 -0.1031 -0.0599 -0.3100
33817OCT     C267634  20.349   5.819  23.282  0.3610 -0.4066  0.1255
33818OCT     C167635  20.072  13.114  10.189  0.2073 -0.0676 -0.1191
33818OCT     C267636  19.822  13.479  10.084  0.3461  0.2617  0.3750
33819OCT     C167637  20.894  23.349   2.910 -0.1212 -0.0939  0.0200
33819OCT     C267638  21.134  23.710   2.833 -0.0604  0.1373 -0.1712
33820OCT     C167639   7.529  11.098  17.201 -0.0875  0.0279 -0.1787
33820OCT     C267640   7.561  11.462  16.957 -0.4546  0.3360  0.1671
33821OCT     C167641  13.229   8.763  21.605  0.1005  0.1767  0.0049
33821OCT     C267642  13.670   8.798  21.822  0.2255 -0.0328 -0.0823
33822OCT     C167643   5.189  18.854   6.809  0.0667 -0.3128  0.5105
33822OCT     C267644   5.483  19.053   6.524 -0.2792  0.2904  0.2238
33823OCT     C167645  11.607   4.475  12.847 -0.1715 -0.0135 -0.0078
33823OCT     C267646  12.006   4.151  12.886  0.0971 -0.1799  0.0276
33824OCT     C167647  10.450  21.282  10.484  0.0650 -0.3916  0.1160
33824OCT     C267648  10.724  20.918  10.550  0.0287  0.0260  0.2210
33825OCT     C167649   4.102   7.390  12.208  0.0622 -0.0121  0.2874
33825OCT     C267650   3.936   7.156  11.830 -0.1644  0.1282 -0.0860
33826OCT     C167651   5.128  20.156  18.591 -0.0766  0.1536 -0.0066
33826OCT     C267652   5.141  20.546  18.824  0.2980 -0.2794  0.4230
33827OCT     C167653   4.795   3.819  18.893  0.5689  0.0926  0.2687
33827OCT     C267654   4.528   3.962  18.534  0.0556 -0.1783 -0.0725
33828OCT     C167655   6.975  18.263  17.166  0.1884 -0.2427 -0.0303
33828OCT     C267656   6.669  18.136  16.817 -0.1326 -0.3743 -0.0565
33829OCT     C167657  12.389   1.105   1.536 -0.1909 -0.4508 -0.4054
33829OCT     C267658  12.467   1.563   1.671 -0.2309 -0.0399  0.3878
33830OCT     C167659  20.247  11.286  19.844 -0.0759  0.1824  0.0520
33830OCT     C267660  19.835  11.433  19.694  0.0888 -0.2204 -0.5477
33831OCT     C167661   3.173  16.356  12.969  0.2581 -0.1236  0.0943
33831OCT     C267662   2.914  16.442  13.328 -0.0386  0.0691 -0.0025
33832OCT     C167663   1.997  16.180   5.222  0.1614  0.0935 -0.0236
33832OCT     C267664   2.289  16.164   4.806  0.1706  0.0797  0.1495
33833OCT     C167665  20.200  23.009  19.469 -0.2798  0.1305 -0.0704
33833OCT     C267666  20.321  23.419  19.372 -0.1762 -0.0679 -0.2210
33834OCT     C167667   5.073  11.483  20.561  0.0335 -0.0361  0.0754
33834OCT     C267668   4.775  11.819  20.450 -0.2010 -0.1982  0.4960
33835OCT     C167669   0.094  20.021   0.206 -0.0237 -0.1687 -0.0681
33835OCT     C267670  23.502  19.771   0.046 -0.2352  0.2499  0.4003
33836OCT     C167671  14.132  10.316   9.055 -0.5577  0.3324 -0.1116
33836OCT     C267672  14.227  10.704   9.301 -0.1651  0.1968  0.0838
33837OCT     C167673  18.076  18.625  18.809 -0.1227 -0.2192 -0.0392
33837OCT     C267674  18.019  18.320  18.388 -0.1399  0.0617  0.5080
33838OCT     C167675  22.906   1.864   5.367  0.1522  0.0078  0.0198
33838OCT     C267676  22.870   2.075   5.739  0.2681 -0.4833 -0.2874
33839OCT     C167677  10.069  18.164   7.654  0.6345  0.0455 -0.2725
33839OCT     C267678  10.432  18.420   7.753 -0.1437 -0.0439  0.2501
33840OCT     C167679  14.142  11.205   5.763 -0.0711  0.1494  0.1672
33840OCT     C267680  14.093  11.383   5.354 -0.2243 -0.1036 -0.1772
33841OCT     C167681   8.448  14.810  15.994 -0.0306 -0.1173  0.1373
33841OCT     C267682   8.240  14.428  15.795  0.2719 -0.0599 -0.2893
33842OCT     C167683   4.021  21.826  16.096  0.2621 -0.0132 -0.1839
33842OCT     C267684   4.460  21.687  15.970 -0.0747  0.4398  0.2255
33843OCT     C167685  10.550  18.013   9.654 -0.0293  0.0830 -0.1506
33843OCT     C267686  10.517  17.968   9.162  0.2991  0.1397 -0.1263
33844OCT     C167687  14.466  12.253  14.591  0.3069  0.0921 -0.2567
33844OCT     C267688  14.460  12.694  14.671 -0.4625 -0.1168 -0.3244
33845OCT     C167689  11.903  13.017   3.209 -0.0456 -0.3105 -0.2938
33845OCT     C267690  12.266  12.774   3.110 -0.1488  0.1571  0.2251
33846OCT     C167691   2.807  23.708  22.230  0.3201  0.0317  0.1984
33846OCT     C267692   2.469   0.114  21.966 -0.0948 -0.3399  0.0082
33847OCT     C167693   4.019   1.170  16.394 -0.0148  0.3127 -0.1369
33847OCT     C267694   4.027   0.761  16.682 -0.1133  0.1926  0.2760
33848OCT     C167695  14.581  14.043  22.561 -0.2631  0.0737  0.1357
33848OCT     C267696  14.931  14.295  22.635 -0.0472 -0.5972  0.1352
33849OCT     C167697   4.390  21.979   1.928  0.0702 -0.2941 -0.0653
33849OCT     C267698   4.779  22.205   1.920  0.0913 -0.1631 -0.1553
33850OCT     C167699   3.507   0.352   4.007 -0.2623 -0.0311 -0.2201
33850OCT     C267700   3.103   0.224   4.210 -0.2329  0.0265  0.2568
33851OCT     C167701   8.082  15.379  19.185 -0.2537  0.0700  0.1395
33851OCT     C267702   8.432  15.726  19.231 -0.2240 -0.0448 -0.3131
33852OCT     C167703  16.824  14.951  15.195 -0.0875 -0.1919 -0.2948
33852OCT     C267704  16.819  15.277  14.874  0.3918 -0.1221  0.2670
33853OCT     C167705  11.543   0.042  17.187  0.0855 -0.0725 -0.1417
33853OCT     C267706  11.403   0.429  17.494 -0.2784 -0.1698 -0.1274
33854OCT     C167707   7.181   9.642   3.042  0.0123  0.0377  0.2966
33854OCT     C267708   7.397   9.978   2.810 -0.1786  0.0619 -0.0697
33855OCT     C167709  21.650  12.473   5.265 -0.1309 -0.1541  0.1993
33855OCT     C267710  21.516  12.016   5.389 -0.2293 -0.0643 -0.1647
33856OCT     C167711  20.137   9.198   7.983  0.4790  0.0570  0.2707
33856OCT     C267712  20.573   9.323   7.851  0.4454 -0.1689  0.0991
33857OCT     C167713  15.369  20.382  20.478 -0.0969 -0.1053 -0.0539
33857OCT     C267714  15.102  20.788  20.450  0.0547  0.1491  0.1983
33858OCT     C167715  18.440  19.684   0.525 -0.0097 -0.1507 -0.5604
33858OCT     C267716  18.845  19.892   0.466  0.2788  0.0328 -0.3113
33859OCT     C167717   4.997   1.022   8.856  0.2703 -0.3165  0.0322
33859OCT     C267718   4.868   0.641   8.589 -0.3009 -0.0460 -0.3537
33860OCT     C167719  16.281   0.878   7.406 -0.2531 -0.0536 -0.1438
33860OCT     C267720  16.338   0.487   7.600  0.0738  0.4138 -0.0694
33861OCT     C167721  19.562  18.514  20.975  0.1594  0.1156  0.0107
33861OCT     C267722  19.615  18.809  20.606  0.0627 -0.4599 -0.3480
33862OCT     C167723  20.288  18.463   5.415 -0.3323  0.0375 -0.1295
33862OCT     C267724  20.641  18.759   5.564  0.2833  0.0819  0.0508
33863OCT     C167725  23.351  15.860  22.280 -0.0516  0.0691  0.1550
33863OCT     C267726  23.612  16.023  21.927  0.3587 -0.3008  0.0376
33864OCT     C167727   8.424   7.695   7.822 -0.2172  0.0613  0.1501
33864OCT     C267728   8.451   7.331   7.563  0.0768 -0.2467  0.0906
33865OCT     C167729  12.184   6.432   1.364 -0.0773 -0.2354 -0.1605
33865OCT     C267730  11.930   6.798   1.422 -0.2359  0.0229 -0.3026
33866OCT     C167731   9.580  22.422  19.088 -0.1609 -0.2138  0.1610
33866OCT     C267732   9.879  22.737  18.898  0.3711  0.0984  0.0188
33867OCT     C167733   2.530  22.470  11.700  0.1327 -0.1510 -0.1983
33867OCT     C267734   2.931  22.440  11.999  0.2039  0.1599 -0.0427
33868OCT     C167735  20.233   6.393  16.137 -0.1126  0.1654 -0.1099
33868OCT     C267736  19.794   6.418  16.279  0.1701  0.0211  0.0633
33869OCT     C167737   1.363  10.025   9.440 -0.0661  0.2413 -0.1258
33869OCT     C267738   1.657   9.828   9.072  0.0264  0.3858 -0.0342
33870OCT     C167739   8.826  13.834   4.877 -0.1456  0.1472  0.0126
33870OCT     C267740   8.755  14.292   4.801  0.3224 -0.1518 -0.1966
33871OCT     C167741   8.747  11.359   5.712  0.0261  0.1338 -0.0847
33871OCT     C267742   8.376  11.467   5.417 -0.0202  0.2693 -0.2162
33872OCT     C167743  22.761   8.905  14.652  0.0389 -0.1401 -0.0549
33872OCT     C267744  22.693   9.165  15.056  0.1678  0.1238  0.2111
33873OCT     C167745   2.916   2.134   7.099  0.2435  0.3661 -0.3599
33873OCT     C267746   2.679   2.321   6.746  0.3328 -0.0410 -0.0364
33874OCT     C167747   7.701   7.516  17.883 -0.0372  0.1334  0.0379
33874OCT     C267748   7.579   7.756  18.266 -0.1162 -0.7002 -0.2942
33875OCT     C167749  22.764  12.790   9.872  0.1008  0.1610 -0.4432
33875OCT     C267750  22.627  12.574   9.481 -0.0261  0.3446  0.1060
33876OCT     C167751  20.701   2.772  14.711  0.2490 -0.1635  0.3107
33876OCT     C267752  20.253   2.728  14.539  0.1927  0.3920 -0.3713
33877OCT     C167753  20.769  11.610  22.236  0.4005 -0.0116 -0.2018
33877OCT     C267754  21.109  11.796  22.439  0.3626 -0.2004  0.3013
33878OCT     C167755  19.671  10.989   5.974  0.1623  0.2725  0.0682
33878OCT     C267756  20.106  10.813   6.197  0.0027 -0.0936  0.1664
33879OCT     C167757  22.348   3.967   2.021  0.2020 -0.3916 -0.2963
33879OCT     C267758  21.929   4.166   1.813 -0.1627  0.1858 -0.1597
33880OCT     C167759   1.324  12.582   1.515 -0.1997 -0.0350 -0.1127
33880OCT     C267760   1.153  13.019   1.477 -0.2991  0.0397  0.0053
33881OCT     C167761   8.518   3.684   6.138 -0.0134  0.1404  0.0451
33881OCT     C267762   8.219   3.949   5.872 -0.0431 -0.2065 -0.1246
33882OCT     C167763  10.967   7.588  18.020 -0.2464 -0.1544 -0.1236
33882OCT     C267764  11.273   7.277  18.108 -0.0812 -0.3569 -0.2785
33883OCT     C167765  20.634  11.324   7.179  0.1750 -0.2603 -0.1434
33883OCT     C267766  20.633  11.126   7.603  0.2910 -0.0101  0.3760
33884OCT     C167767  18.724  19.192  23.725  0.3857 -0.5791  0.1372
33884OCT     C267768  18.351  19.400   0.107  0.1448 -0.2691 -0.0319
33885OCT     C167769  17.707  18.405  21.968 -0.0373 -0.3244  0.0141
33885OCT     C267770  17.697  17.910  21.870 -0.1577 -0.0026  0.2332
33886OCT     C167771  22.475   9.306   9.829 -0.2884  0.2397 -0.0674
33886OCT     C267772  22.582   9.358  10.305  0.0118  0.2414  0.1395
33887OCT     C167773   1.121  21.389  20.478 -0.3318 -0.0839  0.0608
33887OCT     C267774   1.326  21.739  20.654  0.1386  0.2381 -0.4542
33888OCT     C167775  19.535   1.557   6.463  0.1776  0.0320 -0.3113
33888OCT     C267776  19.338   1.562   6.939  0.1179 -0.0800  0.3176
33889OCT     C167777   8.362  13.361   6.448 -0.1255  0.0155 -0.0990
33889OCT     C267778   7.988  13.118   6.359 -0.1679  0.2706 -0.0209
33890OCT     C167779  23.527  20.609   7.190 -0.0175 -0.0591  0.1645
33890OCT     C267780   0.217  20.507   7.185  0.2464  0.1849  0.0784
33891OCT     C167781  10.656   5.005   2.322  0.1293  0.1134  0.1062
33891OCT     C267782  10.880   4.590   2.523 -0.0437 -0.0655 -0.3287
33892OCT     C167783   0.584  17.554   6.926 -0.0517 -0.0362  0.3942
33892OCT     C267784   1.013  17.823   6.758  0.1588  0.3532  0.1606
33893OCT     C167785  14.401  23.656   6.104 -0.2365 -0.2571  0.3363
33893OCT     C267786  13.978  23.705   5.878 -0.0450 -0.2064  0.0131
33894OCT     C167787  16.937   0.888   2.950 -0.0524  0.1452  0.0977
33894OCT     C267788  17.126   0.615   2.679  0.3539 -0.0136  0.1054
33895OCT     C167789  15.676  22.043   4.196  0.1986  0.4221  0.0831
33895OCT     C267790  15.673  21.541   4.167  0.1772  0.4255  0.2660
33896OCT     C167791   4.136  22.749  10.942 -0.0308  0.0872  0.0607
33896OCT     C267792   3.870  22.453  11.089 -0.1374 -0.0649  0.3944
33897OCT     C167793  19.260  19.958  10.930  0.4884 -0.0600 -0.0521
33897OCT     C267794  18.769  20.028  11.030 -0.1753 -0.0373  0.3399
33898OCT     C167795   6.826  22.159   4.188 -0.2732  0.2660 -0.4260
33898OCT     C267796   6.880  22.552   3.952  0.2987 -0.1450  0.0459
33899OCT     C167797  19.413   3.671   4.417 -0.1406  0.1676 -0.0604
33899OCT     C267798  19.633   3.833   4.040 -0.0729 -0.1142  0.1608
33900OCT     C167799   4.347  21.106  12.891 -0.2184 -0.2680  0.3665
33900OCT     C267800   4.306  21.168  13.365  0.3607 -0.0107  0.0925
33901OCT     C167801  23.137   5.875   6.875  0.0214 -0.0880 -0.3794
33901OCT     C267802  23.235   5.979   6.430 -0.4107  0.0917 -0.0390
33902OCT     C167803   7.634  12.019  18.743 -0.4604 -0.4657  0.2606
33902OCT     C267804   8.124  11.973  18.742 -0.3461 -0.2485  0.1953
33903OCT     C167805   5.507   1.038  14.946  0.2424  0.3678  0.0561
33903OCT     C267806   5.500   0.808  15.386 -0.0704  0.2152  0.1470
33904OCT     C167807   4.659  18.559   6.295  0.1861  0.1308  0.3383
33904OCT     C267808   4.804  18.186   6.215 -0.1277  0.0973  0.2452
33905OCT     C167809  12.768   5.607   9.493 -0.1671  0.0475 -0.1854
33905OCT     C267810  13.234   5.660   9.442 -0.1213  0.3741  0.0397
33906OCT     C167811   7.863   3.344   4.184 -0.0425 -0.0907  0.2984
33906OCT     C267812   8.301   3.398   3.992 -0.0339  0.2942  0.1445
33907OCT     C167813  20.907  19.489  22.898  0.0114  0.1834  0.0718
33907OCT     C267814  21.158  19.707  23.224 -0.2026  0.1628 -0.2977
33908OCT     C167815  16.228  17.818   2.314  0.0597  0.1730 -0.1296
33908OCT     C267816  16.576  17.927   2.047 -0.0191  0.0757  0.2322
33909OCT     C167817   6.290  20.104  22.128 -0.4770 -0.0714  0.1577
33909OCT     C267818   6.351  20.537  22.171 -0.1984  0.0813 -0.0326
33910OCT     C167819  17.882  21.891  22.950  0.2658 -0.3051  0.0009
33910OCT     C267820  18.062  22.213  22.757 -0.4084 -0.0494  0.1842
33911OCT     C167821  18.102   0.072   2.312  0.1848  0.1507  0.0976
33911OCT     C267822  18.008   0.312   2.751 -0.1428  0.1476  0.1537
33912OCT     C167823   1.165  20.926  13.341  0.1688 -0.2635 -0.1795
33912OCT     C267824   0.878  21.314  13.443  0.1870 -0.0334  0.2769
33913OCT     C167825  12.669   9.787  17.558  0.0064 -0.2232 -0.2857
33913OCT     C267826  12.610   9.745  17.120 -0.0694 -0.0340  0.1388
33914OCT     C167827   6.020   7.959   9.453 -0.0512  0.2285  0.1033
33914OCT     C267828   5.876   8.376   9.371 -0.0562  0.0473 -0.2913
33915OCT     C167829   6.696  12.024  20.787 -0.1070  0.1022 -0.1804
33915OCT     C267830   6.966  12.283  20.973 -0.3156  0.3415  0.1308
33916OCT     C167831   1.699  17.316  21.356  0.0860  0.2347  0.3090
33916OCT     C267832   1.764  17.454  20.921  0.0795 -0.2234 -0.2135
33917OCT     C167833   7.422   6.166  14.919 -0.1492 -0.2146  0.0865
33917OCT     C267834   7.036   6.379  14.809  0.0450 -0.0653 -0.3053
33918OCT     C167835  16.468   2.053  20.956  0.2264 -0.1314 -0.1351
33918OCT     C267836  16.801   2.209  21.299 -0.2269 -0.0022  0.2400
33919OCT     C167837   1.636  16.201   6.004  0.0875 -0.1143  0.2226
33919OCT     C267838   2.080  16.443   6.048  0.0012  0.1207  0.0070
33920OCT     C167839  20.856  16.528   9.709 -0.0064 -0.0653 -0.2200
33920OCT     C267840  21.212  16.509   9.386 -0.1167 -0.1969 -0.1896
33921OCT     C167841  15.405   9.901  10.662 -0.1338 -0.2123  0.3285
33921OCT     C267842  15.103   9.921  10.991 -0.0837 -0.0326 -0.0015
33922OCT     C167843   1.422  15.665  11.286 -0.1571 -0.2609 -0.1780
33922OCT     C267844   1.139  16.030  11.313  0.2339  0.5440  0.1279
33923OCT     C167845  23.330  10.592  15.715 -0.0187  0.2712 -0.2217
33923OCT     C267846  23.700  10.286  15.803  0.0274 -0.2653  0.1189
33924OCT     C167847   0.030   5.372   8.109 -0.3220 -0.2353 -0.0756
33924OCT     C267848  23.351   5.484   7.921  0.1347  0.3164  0.2408
33925OCT     C167849  23.270   9.880  10.335  0.2368  0.4184  0.0771
33925OCT     C267850  23.188   9.904   9.861  0.0930 -0.0239  0.2032
33926OCT     C167851  11.431  14.914   1.884 -0.0951 -0.2477  0.0706
33926OCT     C267852  11.514  14.538   2.154  0.2286 -0.0373  0.2139
33927OCT     C167853  21.006  16.499  12.184 -0.0751 -0.2197  0.1449
33927OCT     C267854  20.643  16.196  11.983  0.2408 -0.0539 -0.1966
33928OCT     C167855  15.642   6.681  17.474  0.0208 -0.0155  0.2942
33928OCT     C267856  15.428   6.248  17.569  0.0706 -0.5641 -0.0398
33929OCT     C167857   1.014   7.810  17.267  0.2156  0.0414  0.3080
33929OCT     C267858   0.791   7.419  17.180 -0.1965 -0.1659  0.2429
33930OCT     C167859  18.141  20.516  12.962  0.0164 -0.3421  0.0589
33930OCT     C267860  17.937  20.147  13.130 -0.2476 -0.3159 -0.1263
33931OCT     C167861   5.766   4.765   4.778  0.0750 -0.0556  0.1285
33931OCT     C267862   6.016   5.116   5.099  0.4530  0.3745  0.0983
33932OCT     C167863  19.698  18.783  23.512  0.0525 -0.1313 -0.0696
33932OCT     C267864  19.986  19.165  23.680 -0.1082 -0.0396  0.0206
33933OCT     C167865  11.894  23.469   1.378  0.3682 -0.4069  0.2002
33933OCT     C267866  12.253  23.582   1.661 -0.1572  0.0653 -0.0148
33934OCT     C167867  15.037  13.606   1.363 -0.1308 -0.3512  0.3055
33934OCT     C267868  15.446  13.401   1.394 -0.0425 -0.1428 -0.0913
33935OCT     C167869  19.541  21.371   5.368 -0.0280 -0.1275 -0.1994
33935OCT     C267870  19.577  21.470   4.927 -0.1265  0.0143 -0.0014
33936OCT     C167871   9.443  20.488   4.520  0.1363  0.2320 -0.1368
33936OCT     C267872   9.390  20.088   4.809 -0.1097 -0.2315 -0.1705
33937OCT     C167873   0.304  20.492  20.960  0.1084  0.0734  0.0553
33937OCT     C267874   0.748  20.663  21.045  0.1850  0.1420 -0.0763
33938OCT     C167875   2.772   1.731  22.093 -0.1974  0.2794  0.1190
33938OCT     C267876   3.026   2.065  22.309 -0.0189 -0.3124  0.2224
33939OCT     C167877  10.930  21.897  11.440 -0.0684 -0.2286  0.1469
33939OCT     C267878  10.531  21.734  11.570  0.0332  0.1520 -0.0272
33940OCT     C167879   3.214  17.042  19.314 -0.0187  0.2280 -0.2480
33940OCT     C267880   3.397  17.480  19.176 -0.0512  0.1885 -0.1128
33941OCT     C167881   7.633  11.567  11.614  0.0049 -0.0758  0.3059
33941OCT     C267882   7.988  11.836  11.650  0.0865 -0.1657  0.0739
33942OCT     C167883   2.005  20.425  23.630 -0.0162  0.0171  0.2377
33942OCT     C267884   2.325  20.695  23.422 -0.0958  0.3857  0.0706
33943OCT     C167885  17.191  23.183   6.283 -0.1483  0.0650  0.0133
33943OCT     C267886  17.251  23.018   6.708  0.5061  0.1043 -0.0147
33944OCT     C167887  22.810  10.556  19.880 -0.0489 -0.1864 -0.3518
33944OCT     C267888  23.008  10.816  19.548  0.2005  0.1076 -0.3252
33945OCT     C167889   0.518  23.121  16.263  0.2062 -0.0148 -0.1447
33945OCT     C267890   0.806  22.746  16.319  0.0535 -0.4265  0.1527
33946OCT     C167891  16.081  21.735   9.430  0.1630  0.0596  0.2578
33946OCT     C267892  15.676  21.933   9.582 -0.0717  0.0475  0.1034
33947OCT     C167893  23.605  20.254  15.759 -0.0882 -0.2752 -0.0135
33947OCT     C267894   0.248  20.013  15.570 -0.0111 -0.1864  0.1816
33948OCT     C167895  12.899   7.685  13.089 -0.1400  0.0435  0.1481
33948OCT     C267896  13.208   7.999  13.263 -0.1296  0.2053 -0.0580
33949OCT     C167897   5.986   0.663  16.009 -0.2470 -0.0107 -0.1025
33949OCT     C267898   6.250   0.548  15.684  0.0693  0.1213 -0.2451
33950OCT     C167899  17.700  15.942  15.995  0.2196 -0.2458  0.3050
33950OCT     C267900  17.878  16.300  15.774 -0.1819 -0.1873 -0.1598
33951OCT     C167901  11.075  18.755  22.417 -0.0007 -0.1293  0.3050
33951OCT     C267902  11.202  18.321  22.185  0.2083  0.1264  0.1191
33952OCT     C167903  13.352   5.258  16.373  0.2860 -0.0678 -0.2125
33952OCT     C267904  13.467   5.624  16.081  0.1240 -0.0354  0.0749
33953OCT     C167905   2.205   9.784  22.767  0.3276 -0.1232  0.1968
33953OCT     C267906   2.422  10.022  22.486  0.0441  0.4806 -0.0697
33954OCT     C167907  13.272   0.749  15.819 -0.0607 -0.3195  0.3031
33954OCT     C267908  13.693   0.903  15.617  0.3601 -0.1599  0.0345
33955OCT     C167909  11.633  22.998  14.969 -0.4590 -0.1227  0.0487
33955OCT     C267910  11.986  22.664  15.013  0.0851  0.3334  0.1637
33956OCT     C167911  18.217  17.689  13.590  0.3441  0.0997  0.2498
33956OCT     C267912  18.244  18.167  13.512  0.2139 -0.1966 -0.3663
33957OCT     C167913   3.934   3.613  17.714  0.4172 -0.2770  0.1415
33957OCT     C267914   4.129   3.262  17.654  0.0412  0.1382  0.0157
33958OCT     C167915   3.697  10.888  20.256  0.1520 -0.0612 -0.0462
33958OCT     C267916   3.790  11.061  19.831 -0.0301 -0.2362 -0.1891
33959OCT     C167917  14.833   6.009  16.651 -0.1953 -0.0473  0.1346
33959OCT     C267918  14.573   5.872  16.285 -0.1670  0.1102 -0.2622
33960OCT     C167919  20.368  22.353  10.319  0.2271  0.3069  0.2183
33960OCT     C267920  20.595  22.203  10.692 -0.1289 -0.2816 -0.0246
33961OCT     C167921  19.574  14.514  17.697 -0.3426  0.3442 -0.2710
33961OCT     C267922  19.921  14.379  17.431 -0.1085  0.1113 -0.3010
33962OCT     C167923   5.532   3.897  15.523  0.2375  0.0120  0.4324
33962OCT     C267924   5.151   3.921  15.820 -0.4676 -0.0709  0.1200
33963OCT     C167925  12.135   9.235  16.453  0.4158  0.0580 -0.0794
33963OCT     C267926  12.050   9.643  16.146 -0.4140 -0.0802 -0.0719
33964OCT     C167927   1.028   0.613  19.903 -0.2470 -0.2060  0.0526
33964OCT     C267928   1.281   0.941  19.633  0.0684 -0.0356 -0.1236
33965OCT     C167929  22.023   1.150  16.854 -0.1935  0.4944  0.1254
33965OCT     C267930  22.331   1.513  16.651 -0.1616 -0.4282 -0.0445
33966OCT     C167931   3.461  12.543   1.630  0.1332  0.2102 -0.1402
33966OCT     C267932   3.784  12.377   1.324  0.0058  0.0468 -0.4003
33967OCT     C167933  10.273  22.791  21.686 -0.0532 -0.1182  0.3359
33967OCT     C267934   9.910  22.560  21.537  0.0927  0.1161  0.2429
33968OCT     C167935   6.343  12.689  10.049 -0.0866  0.0937  0.1082
33968OCT     C267936   6.665  12.939  10.300 -0.0990 -0.0150 -0.2727
33969OCT     C167937   7.701  13.250  11.000  0.2608  0.3371 -0.0370
33969OCT     C267938   7.376  13.525  10.835 -0.0901  0.0176  0.0125
33970OCT     C167939  22.165  17.295   3.017  0.2804 -0.1322  0.2995
33970OCT     C267940  22.327  17.606   2.759  0.3525 -0.2819  0.0685
33971OCT     C167941   3.916  14.377  20.088  0.1546  0.3607 -0.2367
33971OCT     C267942   4.340  14.295  19.970 -0.2173 -0.2807 -0.4859
33972OCT     C167943   9.699  15.304  12.170  0.0273  0.0055  0.4873
33972OCT     C267944   9.292  15.386  12.335  0.1593  0.1097  0.1152
33973OCT     C167945  18.323   3.361   3.925 -0.2690 -0.3258 -0.0234
33973OCT     C267946  18.128   3.762   3.771  0.1972  0.1601  0.0427
33974OCT     C167947  19.436   7.413  23.413  0.1016  0.0558 -0.1104
33974OCT     C267948  19.677   7.455  23.025 -0.1533  0.1424 -0.1297
33975OCT     C167949   1.440   1.543  13.266  0.0534  0.0246 -0.3919
33975OCT     C267950   1.622   1.984  13.396  0.3683  0.1922 -0.4371
33976OCT     C167951  13.304   1.846  20.782  0.1298  0.4073  0.0919
33976OCT     C267952  12.955   1.557  20.745  0.1622  0.0891 -0.0112
33977OCT     C167953  18.502   8.683   4.679 -0.2220  0.0570  0.0403
33977OCT     C267954  18.550   8.933   5.110 -0.2644 -0.1028  0.2800
33978OCT     C167955  22.713   1.849   9.762 -0.3161  0.0216 -0.0117
33978OCT     C267956  23.125   2.100   9.774  0.2419 -0.2595  0.0916
33979OCT     C167957   9.747   4.844  20.848 -0.2420  0.6238 -0.1229
33979OCT     C267958   9.453   4.933  21.189 -0.3008  0.1774 -0.0914
33980OCT     C167959   5.789  21.488  17.128 -0.0282 -0.2424 -0.4109
33980OCT     C267960   6.114  21.766  16.952  0.3271  0.1829  0.1133
33981OCT     C167961  19.054   0.205  15.686  0.0069 -0.4994 -0.0127
33981OCT     C267962  19.339   0.590  15.709 -0.2990 -0.2325  0.1065
33982OCT     C167963  19.030  11.640   5.039  0.0306  0.0245 -0.1998
33982OCT     C267964  18.879  11.341   4.698 -0.2094 -0.0643  0.0298
33983OCT     C167965   7.127  18.603  22.737  0.1615  0.1346  0.0807
33983OCT     C267966   7.316  18.769  22.294 -0.1722  0.1878  0.0465
33984OCT     C167967  15.118  17.216   0.639 -0.3220 -0.0265 -0.0428
33984OCT     C267968  15.119  17.558   0.380 -0.2332 -0.0490  0.0204
33985OCT     C167969  11.417  14.998  19.429  0.0868 -0.0327 -0.2115
33985OCT     C267970  11.515  14.567  19.319  0.3366  0.0702  0.0262
33986OCT     C167971   4.419  20.877   3.480  0.1245 -0.1820  0.0165
33986OCT     C267972   4.078  20.879   3.787  0.1757  0.4385 -0.1945
33987OCT     C167973   2.657  16.339  12.899  0.0711  0.1231  0.1631
33987OCT     C267974   2.776  15.951  13.083  0.2248 -0.1700 -0.0994
33988OCT     C167975   1.797   1.453  10.525  0.1635  0.0977  0.2838
33988OCT     C267976   1.629   1.875  10.616  0.0865  0.0088  0.0251
33989OCT     C167977   3.928   0.137  20.113  0.1657 -0.0050 -0.0524
33989OCT     C267978   4.054   0.473  19.800 -0.4792  0.2105  0.3854
33990OCT     C167979   0.052  22.764   2.440 -0.0663  0.4362  0.0938
33990OCT     C267980   0.376  22.498   2.151 -0.3233  0.0364 -0.2624
33991OCT     C167981  12.897  21.654   1.205 -0.1963  0.2523  0.0593
33991OCT     C267982  13.334  21.479   1.050  0.1704 -0.0330  0.2877
33992OCT     C167983   2.900   6.442  14.094 -0.1039  0.1994 -0.4214
33992OCT     C267984   3.086   6.174  13.757 -0.5190 -0.0853  0.0420
33993OCT     C167985   0.169  13.578   4.326  0.2202 -0.0072 -0.1946
33993OCT     C267986   0.068  13.107   4.316  0.0230 -0.0256 -0.0301
33994OCT     C167987  10.848  18.480  22.798  0.1030  0.0691 -0.0109
33994OCT     C267988  10.775  18.902  22.950 -0.0005  0.0287  0.2839
33995OCT     C167989  22.929   1.415   7.297  0.3689 -0.2304 -0.2779
33995OCT     C267990  23.182   0.999   7.377  0.0842 -0.0076  0.1379
33996OCT     C167991   1.053  20.479  16.534 -0.2618  0.1491  0.1290
33996OCT     C267992   1.457  20.252  16.381 -0.1936  0.1466 -0.0162
33997OCT     C167993  12.027  15.964  17.670 -0.1008  0.2579  0.0935
33997OCT     C267994  12.533  16.054  17.614 -0.1428  0.1716  0.1566
33998OCT     C167995   0.971   8.394   7.613  0.2985 -0.3544  0.1114
33998OCT     C267996   1.069   7.957   7.742  0.1761  0.0010  0.1324
33999OCT     C167997  19.154  20.212  17.246  0.0619 -0.0553  0.1771
33999OCT     C267998  18.780  19.978  17.318  0.1319  0.1022  0.0888
34000OCT     C167999  12.403  13.001  15.879 -0.1009 -0.0132 -0.1089
34000OCT     C268000  12.193  12.818  16.339  0.0347  0.1376 -0.0197
34001OCT     C168001  19.163   5.630  16.259 -0.2554 -0.0897 -0.0166
34001OCT     C268002  19.619   5.539  16.102 -0.3035  0.4194  0.2465
34002OCT     C168003   5.187   2.348  12.478 -0.1665  0.1347  0.0592
34002OCT     C268004   4.880   2.195  12.788  0.2584 -0.5109 -0.2271
34003OCT     C168005  12.455  20.552  13.024 -0.0609  0.0761 -0.1049
34003OCT     C268006  12.397  20.258  13.390 -0.1532 -0.1673  0.0504
34004OCT     C168007   2.216   3.423  22.452 -0.1095  0.2437  0.1827
34004OCT     C268008   2.377   3.744  22.735 -0.4685  0.2337 -0.0706
34005OCT     C168009  10.293  16.977   1.111  0.1633  0.2254 -0.0793
34005OCT     C268010  10.655  16.629   1.177  0.0591 -0.1604  0.4443
34006OCT     C168011  18.033   2.806  17.671 -0.2944 -0.0034 -0.4071
34006OCT     C268012  18.327   2.800  17.286  0.0981  0.1093  0.5848
34007OCT     C168013  15.443   3.998  18.091  0.2030  0.1221  0.0055
34007OCT     C268014  15.138   4.390  18.159 -0.0311 -0.4196  0.1688
34008OCT     C168015   0.795   5.050  21.639 -0.2227 -0.3988  0.1629
34008OCT     C268016   1.204   5.116  21.391 -0.1910 -0.0518  0.0055
34009OCT     C168017   6.894   1.124  14.591 -0.3050  0.0823 -0.1542
34009OCT     C268018   7.296   1.322  14.379  0.2508 -0.1833  0.1230
34010OCT     C168019   6.125   7.832  14.080 -0.2060 -0.0323 -0.1765
34010OCT     C268020   5.797   7.995  14.341 -0.1105  0.3918 -0.0326
34011OCT     C168021  12.065  11.030  23.275 -0.1469  0.2644  0.0032
34011OCT     C268022  11.640  11.094  23.463  0.0872  0.2158  0.2919
34012OCT     C168023  17.754  21.863   6.694 -0.1486  0.2775 -0.0346
34012OCT     C268024  17.938  21.499   6.605  0.3379 -0.0433  0.4595
34013OCT     C168025  15.090  17.211   9.537  0.0839 -0.0155 -0.3585
34013OCT     C268026  14.734  17.428   9.271 -0.1844 -0.0583 -0.0254
34014OCT     C168027  23.543  12.052   3.226 -0.1646 -0.2906 -0.1087
34014OCT     C268028  23.413  11.618   3.302  0.0267 -0.4724  0.1678
34015OCT     C168029  17.603  14.697   2.658 -0.1207  0.1796 -0.2812
34015OCT     C268030  17.911  14.974   2.425 -0.0855  0.1717  0.2270
34016OCT     C168031   7.456  14.516   1.148  0.3606  0.0862 -0.0461
34016OCT     C268032   7.466  14.523   0.646 -0.0955 -0.0191  0.0858
34017OCT     C168033  16.112   8.389  22.905 -0.1354  0.0606  0.0943
34017OCT     C268034  16.425   8.071  23.134 -0.3592 -0.0631  0.0105
34018OCT     C168035   9.114  16.797   1.613 -0.1291 -0.3104 -0.3144
34018OCT     C268036   8.626  16.812   1.651 -0.0831  0.2114 -0.7227
34019OCT     C168037  14.242   7.877   5.448 -0.1973  0.1820 -0.1708
34019OCT     C268038  13.855   7.918   5.694 -0.4165 -0.1148 -0.1011
34020OCT     C168039   3.497  10.287   6.276 -0.1221 -0.1356  0.1661
34020OCT     C268040   3.111  10.525   6.185  0.3781 -0.0951 -0.2691
34021OCT     C168041   6.578  23.177   8.723 -0.0094  0.2012 -0.3153
34021OCT     C268042   6.222  22.896   8.897 -0.1315  0.0198  0.1762
34022OCT     C168043   0.196  12.805   0.303  0.1630  0.0550 -0.2955
34022OCT     C268044   0.084  12.452   0.618 -0.0185 -0.3659 -0.0957
34023OCT     C168045  12.536  22.434  14.265 -0.1727 -0.1629  0.1640
34023OCT     C268046  12.540  22.950  14.228  0.2306  0.1941 -0.1988
34024OCT     C168047  23.721   1.064  11.005  0.0101  0.0927 -0.2069
34024OCT     C268048   0.105   1.444  11.242 -0.0908 -0.0509  0.0358
34025OCT     C168049  21.163  19.175  11.636  0.5513 -0.0324  0.1428
34025OCT     C268050  21.399  19.102  12.043  0.4157 -0.4628  0.3239
34026OCT     C168051  14.985   2.945  10.808 -0.0862 -0.0408 -0.1310
34026OCT     C268052  15.042   3.064  11.270  0.4477  0.1230  0.1660
34027OCT     C168053   4.094  19.166   9.666  0.0900  0.0701 -0.0678
34027OCT     C268054   4.365  19.331   9.300 -0.0036 -0.0653 -0.0380
34028OCT     C168055  14.918   3.759  16.119  0.3583  0.0838 -0.0677
34028OCT     C268056  14.523   3.620  16.137 -0.0879 -0.4497 -0.1814
34029OCT     C168057   5.884   3.079   0.812  0.2187 -0.0026 -0.0846
34029OCT     C268058   5.983   3.308   0.434 -0.0798  0.2887  0.3905
34030OCT     C168059  14.755  21.928   4.448 -0.2718  0.4127 -0.1374
34030OCT     C268060  15.209  21.845   4.306  0.0687  0.0104  0.1814
34031OCT     C168061  17.585  16.720   8.348  0.3382  0.1996 -0.2701
34031OCT     C268062  17.168  16.556   8.477  0.0290 -0.0624 -0.3739
34032OCT     C168063  14.265   0.172  18.921 -0.0219  0.3592  0.3978
34032OCT     C268064  14.604   0.455  18.884  0.2136  0.0732 -0.1799
34033OCT     C168065  16.807  11.210  18.222 -0.3067  0.3628  0.6238
34033OCT     C268066  16.420  11.435  18.205 -0.1842  0.0057  0.1996
34034OCT     C168067  15.281   3.201  21.259 -0.1147  0.5205  0.1307
34034OCT     C268068  15.578   3.501  21.167 -0.4468  0.1685  0.1818
34035OCT     C168069  10.126  23.006  23.471 -0.2809 -0.2032 -0.0499
34035OCT     C268070  10.425  23.357  23.351  0.1396  0.1244 -0.1229
34036OCT     C168071  23.008  23.679   9.124  0.0107  0.0500 -0.3909
34036OCT     C268072  22.739  23.494   8.784  0.0447 -0.4050 -0.5065
34037OCT     C168073  12.119  22.911  17.545 -0.3063  0.0773  0.1572
34037OCT     C268074  12.472  23.040  17.821 -0.0437 -0.1397  0.1417
34038OCT     C168075   3.111   1.693  17.678 -0.1363 -0.2156 -0.2727
34038OCT     C268076   2.728   1.907  17.749  0.0166 -0.4372 -0.1765
34039OCT     C168077  13.837   8.203  11.455  0.3208  0.1537  0.2442
34039OCT     C268078  13.720   8.479  11.792 -0.5694 -0.0524 -0.1543
34040OCT     C168079  19.303  15.255  11.769  0.1602  0.0364  0.1805
34040OCT     C268080  19.105  15.015  12.120 -0.0838  0.0969  0.1643
34041OCT     C168081  17.158  23.249   4.104 -0.2154 -0.1091 -0.0033
34041OCT     C268082  17.091  23.565   3.768 -0.2526 -0.2737 -0.3070
34042OCT     C168083   7.317   6.239  19.633  0.0348 -0.2804 -0.1081
34042OCT     C268084   7.624   5.872  19.626  0.1585 -0.1845 -0.2903
34043OCT     C168085   2.273  15.797   7.276  0.1502  0.0579  0.1808
34043OCT     C268086   2.036  16.047   6.915  0.1548 -0.0568 -0.4835
34044OCT     C168087   3.830  15.586  15.977  0.2529  0.2667  0.0803
34044OCT     C268088   3.527  15.298  15.819 -0.2686  0.2030  0.2042
34045OCT     C168089  16.047  13.381   7.350  0.2429  0.3371 -0.1404
34045OCT     C268090  16.453  13.170   7.378 -0.0144  0.8702 -0.1467
34046OCT     C168091  11.769   7.287  20.526  0.0178 -0.2373  0.0883
34046OCT     C268092  11.332   7.341  20.346  0.1515  0.1588 -0.1416
34047OCT     C168093   9.188  14.685  18.268 -0.3125 -0.0525  0.0196
34047OCT     C268094   9.275  15.043  18.519 -0.2374 -0.0523  0.4133
34048OCT     C168095  22.715   2.513  18.598  0.2324 -0.2074  0.1418
34048OCT     C268096  22.537   2.918  18.697  0.0712  0.0633 -0.2184
34049OCT     C168097  12.776   0.376  16.125  0.1442  0.3289  0.4688
34049OCT     C268098  13.262   0.440  16.212 -0.0265  0.0872 -0.0651
34050OCT     C168099  11.985   4.714  15.324 -0.1885  0.2452 -0.1009
34050OCT     C268100  12.159   4.611  14.944 -0.1863 -0.0321  0.6706
34051OCT     C168101   7.448  15.466   8.391  0.1215 -0.1449  0.1815
34051OCT     C268102   7.198  15.367   8.795 -0.1514 -0.1346  0.0284
34052OCT     C168103  23.464   9.070   0.618  0.0484 -0.2839  0.1087
34052OCT     C268104  23.044   8.950   0.355  0.0522 -0.4035  0.0478
34053OCT     C168105  21.988   0.701   9.795 -0.3316 -0.2303 -0.1380
34053OCT     C268106  22.341   0.668   9.437  0.1892 -0.2355  0.1863
34054OCT     C168107  16.308  17.032  16.617  0.3711 -0.0281  0.1697
34054OCT     C268108  16.087  16.642  16.723 -0.0658  0.4601 -0.0946
34055OCT     C168109  23.622  16.244   7.074  0.1067  0.0924 -0.1502
34055OCT     C268110  23.443  15.994   6.753 -0.3160 -0.1262 -0.2201
34056OCT     C168111  13.742   0.882  20.799 -0.0704 -0.3281 -0.3559
34056OCT     C268112  13.759   0.891  21.295 -0.2973 -0.0975 -0.0151
34057OCT     C168113  13.642   5.455   3.196 -0.1682  0.2009  0.0512
34057OCT     C268114  13.759   4.963   3.081  0.0194  0.0124 -0.1145
34058OCT     C168115   4.744   1.749  16.290  0.0509 -0.0432 -0.1391
34058OCT     C268116   5.056   1.458  16.130 -0.2441 -0.1782  0.3717
34059OCT     C168117  18.290   4.311  19.221  0.2737  0.1951 -0.0444
34059OCT     C268118  18.770   4.108  19.178  0.0342 -0.4626 -0.2869
34060OCT     C168119   5.464   2.292   9.835  0.0089  0.0369 -0.1047
34060OCT     C268120   5.376   2.662  10.062  0.4121  0.1491 -0.3546
34061OCT     C168121  18.986  12.265   4.164 -0.2063  0.0378 -0.2280
34061OCT     C268122  18.589  12.431   3.983 -0.2291 -0.0349 -0.3588
34062OCT     C168123  22.198  13.716   4.623  0.3628  0.1092  0.2481
34062OCT     C268124  21.857  14.020   4.388  0.1533 -0.6725 -0.2889
34063OCT     C168125  15.884   8.982   9.990  0.1538 -0.1096 -0.2559
34063OCT     C268126  16.232   9.049  10.284 -0.1518  0.1434  0.2027
34064OCT     C168127  22.650  20.215  19.185  0.4168  0.0574 -0.1382
34064OCT     C268128  22.861  20.581  19.272  0.1888  0.0351  0.2411
34065OCT     C168129   7.429   3.543  12.459 -0.2171  0.0903  0.2940
34065OCT     C268130   7.462   3.837  12.115  0.2385 -0.0211  0.2162
34066OCT     C168131  10.980   6.978  11.545  0.4592 -0.1151 -0.0464
34066OCT     C268132  10.736   6.820  11.861 -0.0485  0.0100  0.6396
34067OCT     C168133   5.041   0.550  15.680  0.0971 -0.0583 -0.2379
34067OCT     C268134   4.681   0.562  15.495 -0.1794 -0.2567 -0.2200
34068OCT     C168135   5.805  16.848   3.232 -0.0605 -0.2132 -0.0211
34068OCT     C268136   6.107  16.497   3.179  0.3707  0.3980  0.1985
34069OCT     C168137   0.672  14.761   2.150 -0.1626  0.3685 -0.1492
34069OCT     C268138   0.426  14.497   1.894  0.3208  0.2391  0.0924
34070OCT     C168139   4.062  21.444   0.998  0.3020 -0.1836 -0.0152
34070OCT     C268140   4.002  21.937   0.993 -0.1446 -0.3415 -0.0975
34071OCT     C168141  12.170   1.900  14.190 -0.0390  0.1237  0.0870
34071OCT     C268142  12.124   1.549  14.492  0.0290 -0.0336  0.0779
34072OCT     C168143  18.312  14.138  23.171  0.0081 -0.3276  0.2743
34072OCT     C268144  18.503  14.548  23.247 -0.1463 -0.0160  0.3207
34073OCT     C168145  21.312  20.840  22.498 -0.5435  0.4261 -0.1547
34073OCT     C268146  21.348  20.343  22.513  0.2195  0.1894 -0.0921
34074OCT     C168147  23.725  12.533  12.165  0.0617  0.0735 -0.1815
34074OCT     C268148   0.174  12.854  12.385  0.0994 -0.0195 -0.0669
34075OCT     C168149  19.060  13.007  16.377  0.3193  0.1401  0.1396
34075OCT     C268150  18.702  13.275  16.178  0.0061 -0.1545 -0.1814
34076OCT     C168151   3.095  14.288   8.499 -0.0004  0.1811 -0.2765
34076OCT     C268152   2.800  14.208   8.777 -0.2331  0.0592  0.6326
34077OCT     C168153   4.141  21.574  18.372 -0.0174  0.1408 -0.0418
34077OCT     C268154   4.223  22.005  18.337 -0.5488 -0.0767 -0.2070
34078OCT     C168155  10.791   5.817  18.061  0.2073 -0.1693  0.0690
34078OCT     C268156  11.117   5.756  18.427  0.0925 -0.1448  0.0288
34079OCT     C168157  19.944   0.561   5.860  0.1262 -0.0290 -0.0397
34079OCT     C268158  19.994   0.300   6.209  0.0621  0.0903  0.0380
34080OCT     C168159  19.381  23.644  17.828 -0.0418 -0.2936 -0.1820
34080OCT     C268160  19.324  23.682  18.314 -0.0351 -0.1120  0.3380
34081OCT     C168161   0.226  12.754  16.102  0.0910 -0.0479  0.2008
34081OCT     C268162  23.735  12.935  16.457  0.0272  0.0555 -0.3185
34082OCT     C168163  16.540  20.688  22.751 -0.1065  0.0174  0.1016
34082OCT     C268164  16.214  20.454  22.972 -0.1307  0.1565  0.1759
34083OCT     C168165  10.732  14.805   7.122 -0.0233  0.1680 -0.2719
34083OCT     C268166  10.710  15.258   7.207 -0.2765 -0.2309 -0.0494
34084OCT     C168167  19.319  19.966   6.173  0.0014  0.1335 -0.3530
34084OCT     C268168  19.345  20.332   5.901 -0.0720 -0.0220 -0.0148
34085OCT     C168169   8.286   4.283   1.889  0.0157 -0.2119 -0.0104
34085OCT     C268170   8.454   3.932   1.548  0.0434  0.1709 -0.1721
34086OCT     C168171   8.634   5.752  12.764  0.3293  0.2462 -0.2469
34086OCT     C268172   8.837   6.062  12.452 -0.0659  0.2224  0.3604
34087OCT     C168173  14.115  12.350   6.854  0.3250  0.2302 -0.1442
34087OCT     C268174  14.480  12.052   6.988  0.0546 -0.0471 -0.2109
34088OCT     C168175  18.831  15.153   1.153  0.0580 -0.1389 -0.1079
34088OCT     C268176  18.846  15.500   1.471 -0.4179  0.3676  0.5525
34089OCT     C168177   3.494  14.845   3.938  0.3111  0.0565  0.0456
34089OCT     C268178   3.211  15.194   3.914 -0.2442  0.1578 -0.0911
34090OCT     C168179  12.028  22.374  20.399  0.1454  0.0353  0.0068
34090OCT     C268180  12.130  22.496  20.831 -0.0328  0.3272 -0.0019
34091OCT     C168181  12.407   8.472   5.548 -0.1086 -0.0046  0.2341
34091OCT     C268182  12.384   8.865   5.226 -0.0259 -0.1047  0.2965
34092OCT     C168183   2.788  16.648  17.784 -0.0296 -0.1031  0.4045
34092OCT     C268184   2.886  16.590  17.345 -0.0571 -0.2587 -0.0227
34093OCT     C168185   0.356   2.603  15.149 -0.0680  0.1328  0.0651
34093OCT     C268186   0.378   3.029  15.266 -0.2234  0.0383  0.1203
34094OCT     C168187   3.038  13.202  12.880  0.4229  0.1979  0.2033
34094OCT     C268188   3.014  12.875  12.636 -0.0760 -0.0249 -0.0392
34095OCT     C168189  14.794  10.669  10.549  0.1213 -0.1672 -0.1775
34095OCT     C268190  14.616  10.265  10.474  0.0998  0.2286  0.3590
34096OCT     C168191  14.072  13.271  16.654 -0.2121  0.2629 -0.0308
34096OCT     C268192  14.452  13.026  16.418  0.1640  0.1519  0.0882
34097OCT     C168193   4.695  12.957   4.413 -0.2888 -0.0518 -0.1495
34097OCT     C268194   4.441  13.128   4.119  0.1636  0.2940  0.3049
34098OCT     C168195   0.845  13.711  22.010  0.1553  0.2771  0.1787
34098OCT     C268196   0.554  14.055  21.908 -0.2191  0.1303 -0.2716
34099OCT     C168197  22.150  22.717  21.444 -0.0444 -0.3766  0.0941
34099OCT     C268198  22.245  22.833  21.874 -0.2498  0.2555 -0.0027
34100OCT     C168199  23.312  13.280   7.982  0.0869  0.3059 -0.1435
34100OCT     C268200  22.976  13.526   8.166  0.0346  0.1561 -0.2372
34101OCT     C168201   2.348  21.134  18.119  0.2280 -0.1192  0.0785
34101OCT     C268202   2.004  21.296  17.900  0.2386 -0.1018  0.1850
34102OCT     C168203   2.735  16.531  18.256  0.0769  0.2976 -0.1444
34102OCT     C268204   2.926  16.208  17.947  0.0992 -0.1365 -0.0900
34103OCT     C168205  22.856  18.135  20.932  0.1023  0.4068  0.4027
34103OCT     C268206  22.989  17.714  20.690  0.2086  0.1986 -0.1026
34104OCT     C168207   7.525   3.581   5.142 -0.4260 -0.2583 -0.1235
34104OCT     C268208   7.449   3.983   5.344 -0.1005 -0.1746  0.1754
34105OCT     C168209  17.927  22.043  14.248  0.0942  0.0110  0.0024
34105OCT     C268210  17.716  22.434  14.341  0.3138 -0.1606 -0.4360
34106OCT     C168211   1.620  20.217   6.401  0.0686  0.1011 -0.3058
34106OCT     C268212   1.714  20.118   6.834 -0.0449  0.0519 -0.3772
34107OCT     C168213  16.726  21.054   7.450  0.3622 -0.5391  0.2781
34107OCT     C268214  16.543  21.446   7.470 -0.0043  0.5351  0.0500
34108OCT     C168215  23.660   6.804  13.788 -0.3296 -0.0529 -0.3112
34108OCT     C268216   0.115   7.236  13.781  0.1312 -0.0546  0.0700
34109OCT     C168217  18.854  13.720  20.996  0.0560 -0.0134  0.0296
34109OCT     C268218  19.100  13.976  20.772 -0.2757 -0.0131  0.1244
34110OCT     C168219   0.861  19.161   3.618  0.0906 -0.1611  0.0127
34110OCT     C268220   0.930  19.480   3.329  0.3607 -0.0460  0.4650
34111OCT     C168221   0.139  12.381  17.749  0.2018 -0.0597  0.1250
34111OCT     C268222  23.495  12.142  17.927  0.0067 -0.0159 -0.2040
34112OCT     C168223  18.780   1.991  18.573 -0.0822 -0.0369  0.0527
34112OCT     C268224  18.959   1.973  18.173  0.1228 -0.0368  0.0378
34113OCT     C168225  19.222  13.256   3.882  0.1520  0.0460  0.0050
34113OCT     C268226  19.147  13.600   4.204  0.0418  0.1845 -0.0060
34114OCT     C168227  22.018  23.332   6.843  0.1319 -0.0915  0.3588
34114OCT     C268228  21.805   0.004   6.730 -0.2059 -0.1479  0.2611
34115OCT     C168229  23.335  22.537  13.517  0.0108  0.1491  0.0451
34115OCT     C268230  23.358  22.121  13.730 -0.0204 -0.1361 -0.1329
34116OCT     C168231   1.964  16.463  18.326 -0.1619 -0.1658 -0.2011
34116OCT     C268232   1.630  16.789  18.466  0.4598  0.2390 -0.2110
34117OCT     C168233  22.818  18.788   6.502 -0.0402  0.1315  0.2153
34117OCT     C268234  22.992  18.365   6.308  0.2163 -0.2720  0.1199
34118OCT     C168235  10.225  23.034   1.919  0.1374 -0.1177 -0.1431
34118OCT     C268236  10.660  23.156   1.765 -0.2834 -0.0155  0.0844
34119OCT     C168237   5.812  18.252   1.394  0.5053  0.1080  0.1051
34119OCT     C268238   6.189  18.568   1.443  0.2807 -0.1218 -0.0140
34120OCT     C168239   8.944   4.052  10.977 -0.1540 -0.3979 -0.0406
34120OCT     C268240   9.014   3.797  10.567  0.0538  0.2816 -0.2378
34121OCT     C168241  13.043  20.444   1.300  0.1102 -0.0871 -0.0492
34121OCT     C268242  13.401  20.660   1.440  0.2119 -0.1897 -0.2185
34122OCT     C168243   8.310   2.719   5.546 -0.0768 -0.1605 -0.0867
34122OCT     C268244   8.319   2.436   5.194  0.2579  0.0172 -0.0700
34123OCT     C168245  14.956   4.840   9.395  0.1894 -0.2997 -0.1871
34123OCT     C268246  14.721   4.502   9.609 -0.1614 -0.0479 -0.1141
34124OCT     C168247   5.891  23.515   8.241 -0.3922  0.1958  0.0076
34124OCT     C268248   5.596   0.193   8.251  0.2538 -0.1181 -0.0316
34125OCT     C168249  18.407  17.548   9.214 -0.4845 -0.0767 -0.5033
34125OCT     C268250  18.319  17.900   9.422 -0.0421  0.3056 -0.3335
34126OCT     C168251  18.152   8.167   7.689  0.1225 -0.1702  0.0212
34126OCT     C268252  18.306   8.604   7.577  0.1724 -0.2513 -0.0918
34127OCT     C168253   3.113  21.760  21.972 -0.0855 -0.0933 -0.2016
34127OCT     C268254   2.989  22.069  22.327 -0.0065 -0.1371  0.2654
34128OCT     C168255  12.043  17.694   3.187  0.1039  0.1750  0.0093
34128OCT     C268256  12.385  17.379   3.294 -0.0085  0.0576  0.1507
34129OCT     C168257  21.284  19.990   1.791 -0.2794 -0.1302 -0.3084
34129OCT     C268258  21.543  20.116   1.424 -0.1357 -0.0052 -0.3969
34130OCT     C168259  13.467  22.813  19.777  0.0223  0.2587 -0.1683
34130OCT     C268260  13.550  23.245  19.666  0.0001 -0.4378  0.6766
34131OCT     C168261   9.001   2.719  21.028  0.0300 -0.1892  0.1963
34131OCT     C268262   9.018   2.407  21.370  0.2059 -0.0035 -0.1521
34132OCT     C168263   0.187  19.816   9.624 -0.0331  0.1151  0.1620
34132OCT     C268264  23.521  19.973   9.405 -0.0999  0.0867 -0.3020
34133OCT     C168265  20.137   8.675  18.270 -0.1247  0.3027 -0.1720
34133OCT     C268266  20.270   8.916  18.700 -0.0632 -0.0542 -0.2871
34134OCT     C168267  11.400  13.624  11.348  0.1326 -0.0274 -0.0695
34134OCT     C268268  11.331  13.332  11.730  0.0323  0.4733  0.0808
34135OCT     C168269  23.040   7.123   9.388  0.0214 -0.0314 -0.1396
34135OCT     C268270  23.513   7.211   9.360  0.1451  0.1555  0.0408
34136OCT     C168271  22.259  16.405  10.788 -0.1780  0.0251  0.2802
34136OCT     C268272  22.434  15.971  10.813 -0.0941 -0.0603  0.3922
34137OCT     C168273  12.390  10.161  17.383 -0.3047 -0.2060 -0.1765
34137OCT     C268274  12.230  10.004  17.773  0.3014 -0.0127 -0.1764
34138OCT     C168275   3.000  23.050   7.423  0.3111  0.4187 -0.0870
34138OCT     C268276   2.612  23.011   7.160 -0.1286  0.1953  0.1005
34139OCT     C168277   8.884  21.366   5.874 -0.0216 -0.3102 -0.0845
34139OCT     C268278   8.822  21.805   6.131 -0.2970  0.0577 -0.0399
34140OCT     C168279  23.679   1.449   9.180  0.3329  0.3989  0.1717
34140OCT     C268280   0.332   1.195   8.988  0.6291 -0.1475  0.4239
34141OCT     C168281  13.317  16.317  12.339  0.1826 -0.1474  0.0731
34141OCT     C268282  13.190  16.098  12.729  0.2492  0.3259  0.2538
34142OCT     C168283   3.616  12.414   4.942  0.0820  0.0245 -0.3103
34142OCT     C268284   3.591  12.335   5.409  0.2589  0.3748 -0.1471
34143OCT     C168285   3.252   8.952  21.776  0.0837 -0.0397  0.0333
34143OCT     C268286   3.134   8.542  21.957 -0.1009  0.2942 -0.2477
34144OCT     C168287  19.819  16.341  11.849  0.3024  0.1952  0.1746
34144OCT     C268288  19.383  16.481  11.826 -0.4042 -0.5508 -0.5299
34145OCT     C168289  17.047   2.565   4.834  0.5983  0.1925 -0.2149
34145OCT     C268290  16.895   2.235   4.490  0.0612 -0.1332 -0.0917
34146OCT     C168291  14.708   6.240   3.954  0.1514 -0.1433  0.0104
34146OCT     C268292  14.643   6.669   3.835  0.5197  0.0192  0.0078
34147OCT     C168293   3.028   4.021  15.406  0.1652 -0.1217 -0.2165
34147OCT     C268294   3.184   3.704  15.741 -0.2408 -0.2413  0.0611
34148OCT     C168295  11.520   5.165  10.819  0.1888  0.0146  0.2416
34148OCT     C268296  11.752   4.713  10.669 -0.0107 -0.0348  0.1527
34149OCT     C168297  17.347   4.182   7.593  0.1655  0.0219 -0.1481
34149OCT     C268298  17.013   3.802   7.659  0.0856 -0.5971  0.2746
34150OCT     C168299   7.655  16.806   8.976  0.5239 -0.4682 -0.3206
34150OCT     C268300   7.862  16.625   9.415  0.0558  0.0800 -0.0102
34151OCT     C168301  23.357  18.341  19.586 -0.1996 -0.0833  0.5000
34151OCT     C268302  23.579  18.772  19.659 -0.1884  0.0509  0.1688
34152OCT     C168303  15.980  10.703   3.116  0.1281  0.2686 -0.0250
34152OCT     C268304  16.054  10.282   2.979  0.1737  0.0841  0.5208
34153OCT     C168305  10.821  16.240  16.248  0.0762 -0.1051 -0.0946
34153OCT     C268306  11.229  16.407  16.095 -0.3481 -0.0663  0.2248
34154OCT     C168307   9.123  11.205   4.233 -0.1160  0.0917  0.3005
34154OCT     C268308   8.830  10.863   4.239 -0.1131 -0.0101 -0.2905
34155OCT     C168309   2.503  17.208   9.302  0.0506 -0.1984 -0.1560
34155OCT     C268310   2.476  16.816   9.025 -0.0254  0.2674 -0.1256
34156OCT     C168311  13.083   0.903   3.090  0.1782 -0.2612 -0.0382
34156OCT     C268312  12.886   0.473   3.013  0.3517 -0.0526  0.0595
34157OCT     C168313   1.902  13.261  11.765  0.3407 -0.2893  0.1266
34157OCT     C268314   1.949  13.703  11.702 -0.3110 -0.2302  0.0870
34158OCT     C168315  13.849   5.045  20.644  0.3316 -0.0365 -0.0077
34158OCT     C268316  13.637   4.996  20.282 -0.0509 -0.0572  0.3989
34159OCT     C168317   7.975   8.668   6.293 -0.3004 -0.1148 -0.2906
34159OCT     C268318   8.101   8.835   6.744  0.1618  0.2658  0.1041
34160OCT     C168319  10.130   8.928   0.050 -0.0502  0.1836  0.1762
34160OCT     C268320  10.005   9.210   0.413 -0.0739  0.0020  0.0419
34161OCT     C168321   4.331  16.044   9.499 -0.1660  0.2086  0.2111
34161OCT     C268322   4.371  16.379   9.143  0.1882  0.1070 -0.0904
34162OCT     C168323  18.414   4.359   2.900 -0.1651 -0.0960 -0.4737
34162OCT     C268324  18.171   4.042   2.603 -0.4218  0.2870  0.1069
34163OCT     C168325   9.132   5.445  16.226  0.0765  0.0939 -0.1961
34163OCT     C268326   9.377   5.731  16.525 -0.1111 -0.0050 -0.1263
34164OCT     C168327  20.268  15.902  12.507 -0.1127 -0.1609  0.0192
34164OCT     C268328  20.099  15.494  12.404  0.0662 -0.2749  0.0813
34165OCT     C168329  11.906  15.818  14.114 -0.0920  0.1948 -0.1644
34165OCT     C268330  11.861  15.383  14.253 -0.2552 -0.1381  0.1659
34166OCT     C168331   1.802  19.322   9.997 -0.1203  0.0066 -0.0894
34166OCT     C268332   1.769  18.975   9.653  0.0896 -0.1881  0.0938
34167OCT     C168333   2.437  11.526   8.876 -0.0612 -0.4170  0.0209
34167OCT     C268334   2.775  11.208   8.825 -0.2993  0.1152 -0.0500
34168OCT     C168335  16.477  17.185  14.838 -0.1369 -0.2633  0.1013
34168OCT     C268336  16.238  17.468  15.118 -0.0740 -0.0442  0.2155
34169OCT     C168337   5.639   9.398  16.568  0.0017 -0.1528  0.0549
34169OCT     C268338   6.040   9.474  16.883  0.0299 -0.0683 -0.0928
34170OCT     C168339  16.336  23.473  10.751  0.5619  0.0817  0.2354
34170OCT     C268340  16.233  23.704  11.134  0.1575 -0.3665 -0.3253
34171OCT     C168341   6.599  22.799  21.737  0.4663  0.1639 -0.1725
34171OCT     C268342   6.334  23.026  22.076 -0.0383  0.2636 -0.1186
34172OCT     C168343   4.189  21.712   5.254 -0.0338 -0.0208 -0.0943
34172OCT     C268344   4.249  22.150   5.001 -0.1352  0.1631  0.2436
34173OCT     C168345   7.979  19.729  13.511  0.0350  0.1619 -0.0712
34173OCT     C268346   8.101  20.195  13.326 -0.3532 -0.0403 -0.0172
34174OCT     C168347  17.414  12.311   0.129 -0.1603  0.0972 -0.0918
34174OCT     C268348  17.185  12.348  23.443  0.1801  0.0173 -0.2399
34175OCT     C168349   4.118  11.122  20.331 -0.2889 -0.1662 -0.1537
34175OCT     C268350   4.073  10.802  20.686  0.1811  0.0602  0.0727
34176OCT     C168351  15.403  18.914   2.427 -0.2338  0.0312 -0.2750
34176OCT     C268352  15.721  18.697   2.128  0.4493  0.4136 -0.0473
34177OCT     C168353  10.628   7.429  16.767  0.3108 -0.3682 -0.1167
34177OCT     C268354  11.040   7.459  17.065  0.1339  0.1419 -0.0976
34178OCT     C168355  23.022   3.208  11.056  0.1342  0.1960 -0.2177
34178OCT     C268356  23.071   3.606  10.829 -0.0289  0.2525  0.1083
34179OCT     C168357  11.341   1.974   5.506  0.0313  0.0782 -0.2878
34179OCT     C268358  11.433   2.081   5.054  0.1924  0.2088 -0.1053
34180OCT     C168359  12.299   2.157  13.702 -0.1859  0.2623  0.0220
34180OCT     C268360  11.857   2.250  13.847 -0.2130 -0.0083  0.1585
34181OCT     C168361   1.014  15.712  17.576 -0.0546 -0.0568 -0.1915
34181OCT     C268362   1.343  15.989  17.830  0.3015  0.1855 -0.0245
34182OCT     C168363   6.225   3.915  14.710 -0.1979  0.0783 -0.1297
34182OCT     C268364   6.521   3.923  15.096 -0.1564 -0.5518  0.3537
34183OCT     C168365   3.143   9.431  19.647 -0.1903  0.0131 -0.2028
34183OCT     C268366   3.418   9.239  19.977  0.4749 -0.1371 -0.1328
34184OCT     C168367  23.701  10.219  21.706  0.1574  0.0893  0.0916
34184OCT     C268368  23.448   9.954  21.358 -0.0279 -0.2508  0.0659
34185OCT     C168369  18.208   8.322   0.506 -0.1505 -0.5103  0.1313
34185OCT     C268370  17.862   8.113   0.746 -0.1770 -0.0081  0.2355
34186OCT     C168371   5.087   2.514   8.040  0.1904  0.2428 -0.0167
34186OCT     C268372   4.943   2.571   7.652 -0.0153 -0.0428  0.0354
34187OCT     C168373   1.728  19.847   5.046 -0.0293  0.1249 -0.2481
34187OCT     C268374   1.361  20.034   5.277 -0.0017 -0.2491  0.2643
34188OCT     C168375  13.813  13.001   0.412 -0.1533  0.0792  0.0551
34188OCT     C268376  13.385  12.825   0.609  0.2135  0.1475 -0.3282
34189OCT     C168377   0.537  20.482  18.288 -0.2388 -0.1275 -0.1780
34189OCT     C268378   0.552  20.984  18.375  0.0777 -0.0634  0.3910
34190OCT     C168379   8.139   5.390   1.154  0.0099  0.0583  0.3021
34190OCT     C268380   8.622   5.337   1.164  0.0775 -0.0501 -0.1169
34191OCT     C168381  11.112   5.984   4.735  0.2025  0.0869  0.1179
34191OCT     C268382  10.656   6.053   4.658 -0.2654 -0.0937  0.0672
34192OCT     C168383   9.590   6.400  14.607  0.2926 -0.0252  0.1860
34192OCT     C268384   9.501   5.962  14.800 -0.1373 -0.0937  0.1207
34193OCT     C168385  12.226   6.592  12.797  0.1338 -0.0012 -0.0579
34193OCT     C268386  12.544   6.543  12.546 -0.0054  0.1355 -0.0547
34194OCT     C168387  10.920  21.103  11.720 -0.4321 -0.4908  0.0267
34194OCT     C268388  10.642  21.246  11.408 -0.2508  0.0759 -0.1148
34195OCT     C168389   3.121  15.952   9.796  0.3058 -0.2724 -0.3390
34195OCT     C268390   3.486  15.590   9.674  0.1867  0.2014 -0.0562
34196OCT     C168391  13.191  16.288   0.132  0.2974 -0.1162  0.3834
34196OCT     C268392  12.950  16.626   0.398 -0.0472 -0.0510 -0.3374
34197OCT     C168393  23.128   5.647  13.977  0.1158  0.0756  0.0854
34197OCT     C268394  23.532   5.798  13.754  0.0188  0.5074  0.1381
34198OCT     C168395   5.007  17.044   3.854 -0.0878 -0.0204 -0.0645
34198OCT     C268396   4.907  17.126   4.286 -0.3219 -0.2464  0.0055
34199OCT     C168397  20.582  15.314   2.580  0.1177  0.0320 -0.0805
34199OCT     C268398  20.097  15.371   2.611 -0.2464  0.0096 -0.3634
34200OCT     C168399   8.715  15.678   1.887  0.2579 -0.2990 -0.2977
34200OCT     C268400   8.884  15.699   2.288 -0.1940  0.1825 -0.0139
34201OCT     C168401   5.471  19.451  23.377 -0.1059 -0.2147  0.0197
34201OCT     C268402   5.286  19.009  23.428  0.0624  0.1765 -0.3446
34202OCT     C168403  11.661  11.025   2.230  0.2580  0.0640  0.0006
34202OCT     C268404  11.536  10.570   2.339 -0.3179  0.0674 -0.0573
34203OCT     C168405   2.856  23.018  16.713  0.0518  0.1617  0.4086
34203OCT     C268406   3.145  22.785  16.949 -0.2015 -0.4451  0.1859
34204OCT     C168407  21.209   7.016   6.450 -0.1062  0.0673  0.1695
34204OCT     C268408  20.914   7.083   6.775  0.0631 -0.2542 -0.1799
34205OCT     C168409   2.589   1.119  10.245  0.0804 -0.2337 -0.0196
34205OCT     C268410   2.703   1.263   9.834  0.0725  0.3312  0.0877
34206OCT     C168411   2.064  15.588  16.231 -0.1790 -0.0856 -0.4239
34206OCT     C268412   1.711  15.796  16.012  0.1451  0.2375  0.0080
34207OCT     C168413  19.904  16.671   6.788 -0.1222  0.0880 -0.0289
34207OCT     C268414  20.212  16.506   6.488 -0.2582  0.1929  0.0642
34208OCT     C168415   1.511  13.849  23.434 -0.0906  0.1474  0.1916
34208OCT     C268416   1.403  13.702   0.144  0.0843  0.4307 -0.1146
34209OCT     C168417  22.361  12.584   4.620 -0.2931 -0.1804 -0.0872
34209OCT     C268418  22.221  13.036   4.586 -0.0441 -0.1987  0.0706
34210OCT     C168419   5.135  10.618  13.245 -0.2138 -0.0433  0.0837
34210OCT     C268420   5.010  10.432  13.625 -0.0166 -0.2255  0.0163
34211OCT     C168421   1.430  12.076  20.947 -0.1416 -0.0356  0.0079
34211OCT     C268422   1.237  11.956  21.351  0.2967  0.0902  0.1762
34212OCT     C168423  17.461   9.333  19.399  0.2566 -0.0980  0.0767
34212OCT     C268424  17.273   9.792  19.321  0.2109  0.0596  0.1433
34213OCT     C168425  22.434  10.639  14.468 -0.3202  0.1156  0.0638
34213OCT     C268426  22.592  10.968  14.208 -0.1931  0.3116  0.1436
34214OCT     C168427  10.411  18.379  19.605  0.1298  0.0002 -0.2046
34214OCT     C268428  10.109  18.050  19.428  0.1067 -0.1009 -0.0904
34215OCT     C168429   9.637  21.280   5.063  0.1204  0.2687  0.0649
34215OCT     C268430   9.350  21.393   4.688  0.0916 -0.5155  0.0421
34216OCT     C168431  14.189   2.039  10.812 -0.1378 -0.0127  0.5150
34216OCT     C268432  14.007   1.625  10.886  0.1222 -0.2093  0.1525
34217OCT     C168433   3.821  20.194  23.140  0.1948  0.1191 -0.2029
34217OCT     C268434   3.363  20.291  23.043  0.2297 -0.0989 -0.0037
34218OCT     C168435   9.916   0.525  11.554 -0.2145  0.3012  0.2682
34218OCT     C268436  10.115   0.905  11.310  0.2543  0.1345  0.1418
34219OCT     C168437  22.425  18.480   8.090 -0.0451 -0.2653  0.1847
34219OCT     C268438  22.002  18.396   8.082 -0.0787  0.0800  0.5623
34220OCT     C168439  12.757   1.947   5.741 -0.2124 -0.2850  0.5819
34220OCT     C268440  12.569   1.674   6.020 -0.5120  0.2842  0.1179
34221OCT     C168441  17.487   9.407   7.113  0.1464 -0.2723  0.1401
34221OCT     C268442  17.286   9.109   6.799  0.0575  0.0507 -0.0786
34222OCT     C168443   6.935   8.787  15.634 -0.0300  0.2386 -0.1715
34222OCT     C268444   6.964   8.475  16.007 -0.0541  0.1686 -0.2365
34223OCT     C168445   1.440  18.369   1.142 -0.0987  0.1715  0.0522
34223OCT     C268446   1.216  17.928   1.180 -0.0182 -0.2041 -0.2020
34224OCT     C168447  23.424  22.452   8.090 -0.4372 -0.4114 -0.2315
34224OCT     C268448  23.012  22.269   8.079  0.2876  0.1580  0.6031
34225OCT     C168449   0.245  12.190  16.324 -0.0787  0.1669 -0.3824
34225OCT     C268450  23.604  12.475  16.284  0.1621 -0.1055  0.2340
34226OCT     C168451  23.233  17.078  12.381 -0.0999  0.3966  0.4695
34226OCT     C268452  23.583  16.741  12.447  0.4014  0.0345  0.1058
34227OCT     C168453   1.409   3.736   5.740 -0.2919  0.0113  0.1336
34227OCT     C268454   0.974   3.828   5.545  0.2021 -0.2541 -0.2288
34228OCT     C168455   6.422  19.736  15.186 -0.1935  0.2054 -0.2776
34228OCT     C268456   6.140  19.652  14.807 -0.0670  0.0400 -0.1925
34229OCT     C168457   0.902   1.759  20.751  0.4142 -0.0089  0.0584
34229OCT     C268458   1.215   1.425  20.893 -0.0611  0.1457 -0.3190
34230OCT     C168459  17.355   3.005  11.708  0.5306  0.0511  0.3712
34230OCT     C268460  17.430   2.680  11.946 -0.0587  0.2086  0.1404
34231OCT     C168461  11.638  20.316   8.354  0.3287  0.4384 -0.1432
34231OCT     C268462  11.243  20.374   8.077 -0.2158 -0.0384  0.2190
34232OCT     C168463   9.060  17.610   1.271 -0.0482 -0.2150  0.4394
34232OCT     C268464   8.586  17.676   1.211 -0.0932 -0.2856  0.2325
34233OCT     C168465   9.036   1.635  11.779 -0.1561  0.4287  0.2334
34233OCT     C268466   8.793   1.351  11.524 -0.0335 -0.1355 -0.2398
34234OCT     C168467   5.990   8.071   8.051  0.2182 -0.0517 -0.3265
34234OCT     C268468   6.158   7.736   8.332 -0.0491  0.2585 -0.0546
34235OCT     C168469   1.873  12.422  16.287 -0.1965  0.0332 -0.0662
34235OCT     C268470   2.243  12.500  16.039 -0.2307 -0.0466  0.0267
34236OCT     C168471  15.635  16.421  10.340 -0.1255  0.2527  0.1074
34236OCT     C268472  15.337  16.779  10.379 -0.4619 -0.2637  0.2641
34237OCT     C168473   2.624   5.189  20.000  0.0603 -0.1394  0.2042
34237OCT     C268474   2.737   4.826  20.271  0.3090  0.0625 -0.0613
34238OCT     C168475  21.192   8.097   3.171  0.1524 -0.0424 -0.2126
34238OCT     C268476  20.989   7.903   2.799  0.0775 -0.0855 -0.2980
34239OCT     C168477  14.395   4.948   0.827 -0.1283  0.0142 -0.1334
34239OCT     C268478  14.825   5.166   0.863 -0.0030 -0.2640  0.1157
34240OCT     C168479  23.235   8.159  17.488 -0.2137  0.0826  0.0270
34240OCT     C268480  23.625   7.885  17.555 -0.2191 -0.1296 -0.0836
34241OCT     C168481  18.369   1.347  23.425 -0.2636  0.0300  0.2353
34241OCT     C268482  18.434   1.238   0.116  0.0836  0.0777 -0.3098
34242OCT     C168483   7.554   5.211   1.764  0.4820 -0.0087  0.0831
34242OCT     C268484   7.798   4.829   1.806  0.1803  0.1987  0.1505
34243OCT     C168485   6.829   4.793   4.755 -0.5169  0.3605 -0.2801
34243OCT     C268486   7.016   5.174   4.615  0.3392 -0.0835  0.3477
34244OCT     C168487   1.655   0.500   9.790  0.1610 -0.1878 -0.1932
34244OCT     C268488   1.846   0.868   9.571  0.2612  0.0239 -0.0559
34245OCT     C168489   9.974   9.124   3.406 -0.1085  0.1689  0.1512
34245OCT     C268490   9.546   9.230   3.574 -0.1391  0.1706 -0.2307
34246OCT     C168491   6.916   0.423  22.142  0.0772  0.1777  0.0846
34246OCT     C268492   6.633   0.275  22.449 -0.0783 -0.2336 -0.1398
34247OCT     C168493   1.720  18.428  22.761  0.0499  0.3095 -0.0824
34247OCT     C268494   1.709  18.202  23.160 -0.2511  0.2286 -0.0771
34248OCT     C168495  10.234  13.141  13.951 -0.0110 -0.2416 -0.0137
34248OCT     C268496  10.299  13.224  13.504  0.0891 -0.3389  0.1257
34249OCT     C168497   6.044   4.571   5.217  0.1630  0.0551 -0.3633
34249OCT     C268498   5.800   4.286   4.885  0.0717 -0.0790 -0.0876
34250OCT     C168499   9.141  19.449  13.628  0.3471 -0.5193  0.0259
34250OCT     C268500   9.320  19.622  13.222  0.1601  0.1752  0.0088
34251OCT     C168501   5.561   3.381  14.762 -0.1206  0.1088 -0.3027
34251OCT     C268502   5.960   3.314  14.586  0.1373  0.1841 -0.0732
34252OCT     C168503   0.948  14.463  19.977  0.0216  0.2011  0.1107
34252OCT     C268504   0.919  13.957  19.986 -0.0961 -0.5576  0.0113
34253OCT     C168505  17.091   9.528  20.629  0.2810  0.1711 -0.1447
34253OCT     C268506  16.918  10.025  20.603 -0.2029 -0.3942  0.1740
34254OCT     C168507   3.994   1.112  14.525  0.0389  0.0694  0.1792
34254OCT     C268508   4.239   1.315  14.795  0.1367 -0.0537  0.1098
34255OCT     C168509   9.888  22.111  23.066  0.2539 -0.0063 -0.0726
34255OCT     C268510  10.168  22.379  22.810 -0.5370  0.0769 -0.2648
34256OCT     C168511   5.105  15.217   4.792 -0.1470 -0.3963 -0.0222
34256OCT     C268512   4.760  15.178   4.446 -0.2034 -0.1803 -0.0947
34257OCT     C168513  20.245  10.955   7.038 -0.0410  0.1864  0.0345
34257OCT     C268514  20.713  10.849   7.048 -0.4107  0.0162  0.3360
34258OCT     C168515  14.589  14.309   9.026  0.2559 -0.1931 -0.1258
34258OCT     C268516  14.907  14.551   9.308 -0.0060  0.0177  0.1084
34259OCT     C168517   6.003  19.877  18.431  0.2771 -0.1685  0.0257
34259OCT     C268518   6.022  20.139  18.042 -0.1294 -0.2864 -0.2270
34260OCT     C168519  23.644  22.557   1.725  0.2861 -0.1594 -0.0541
34260OCT     C268520  23.533  22.148   1.880 -0.1511 -0.0174  0.0812
34261OCT     C168521  16.490   3.223  12.905  0.1633 -0.1046  0.0745
34261OCT     C268522  16.033   3.166  13.097 -0.1522  0.1900  0.0658
34262OCT     C168523   4.112  14.301  10.446 -0.1621  0.0266 -0.1107
34262OCT     C268524   3.896  13.905  10.557  0.2452 -0.2449  0.0302
34263OCT     C168525  12.690   0.544  12.194  0.2166  0.4374  0.0163
34263OCT     C268526  12.988   0.184  12.174 -0.0238  0.3203 -0.3384
34264OCT     C168527   0.195  15.486  14.579 -0.3826  0.1359  0.3588
34264OCT     C268528   0.440  15.333  14.957 -0.1757  0.3294 -0.3324
34265OCT     C168529   7.796   8.735   2.194  0.1597 -0.1939  0.2759
34265OCT     C268530   7.469   8.568   1.922  0.0643  0.1654 -0.1548
34266OCT     C168531  19.509   4.728  20.123  0.0931  0.3025  0.1804
34266OCT     C268532  19.326   4.730  20.557 -0.1474 -0.2573 -0.0089
34267OCT     C168533  14.872   0.454  19.924  0.1925 -0.0026  0.0291
34267OCT     C268534  15.227   0.171  19.770  0.4425  0.0647  0.2045
34268OCT     C168535   4.017  15.240   6.726  0.1170  0.0050  0.2407
34268OCT     C268536   3.593  15.308   6.864  0.1223  0.0883  0.0136
34269OCT     C168537   9.507   5.282   1.710  0.5171 -0.0198 -0.0892
34269OCT     C268538   9.619   5.014   2.096  0.0389 -0.0699  0.1630
34270OCT     C168539  23.196  19.834   5.539 -0.1648  0.0077  0.4030
34270OCT     C268540  23.067  19.419   5.753  0.0946 -0.2690  0.1587
34271OCT     C168541  11.621   8.364   0.414 -0.3711 -0.2876 -0.0633
34271OCT     C268542  11.544   8.484   0.883  0.1573 -0.1363  0.0158
34272OCT     C168543   2.476   5.399  13.254 -0.0317  0.0032 -0.3529
34272OCT     C268544   2.878   5.620  13.438 -0.1636  0.4019 -0.2604
34273OCT     C168545  15.918  14.727   6.268 -0.1589  0.1680  0.1003
34273OCT     C268546  16.316  14.496   6.486  0.0523  0.0070 -0.0327
34274OCT     C168547   3.827   3.514  21.335  0.1278 -0.0763  0.1060
34274OCT     C268548   3.387   3.523  21.500  0.1001  0.0651 -0.4443
34275OCT     C168549  15.551  21.983   3.233 -0.1695  0.4015  0.1744
34275OCT     C268550  15.938  21.691   3.291 -0.0738 -0.0885  0.4329
34276OCT     C168551   4.570  18.881  15.229 -0.1594  0.0209 -0.3163
34276OCT     C268552   4.644  18.848  14.778 -0.4950  0.1394  0.0625
34277OCT     C168553   0.690  14.013   5.929 -0.0209 -0.0339 -0.3061
34277OCT     C268554   0.653  14.317   6.229  0.1258 -0.0581  0.1440
34278OCT     C168555   4.543  22.644  10.715 -0.3996  0.0275  0.5316
34278OCT     C268556   4.915  22.858  10.888  0.0428  0.4361 -0.1348
34279OCT     C168557  21.434  22.082   7.468 -0.0715  0.3316  0.2254
34279OCT     C268558  21.889  21.874   7.746  0.3474  0.0146  0.0915
34280OCT     C168559  22.659  19.945  23.370  0.3330  0.0487 -0.2541
34280OCT     C268560  22.693  20.346  23.671 -0.2970  0.1699  0.2721
34281OCT     C168561   0.572  22.372  17.725 -0.0118 -0.1518  0.1343
34281OCT     C268562   0.843  22.018  17.540  0.1260  0.0871  0.4714
34282OCT     C168563  16.583  11.224  15.456 -0.1153 -0.6168  0.1571
34282OCT     C268564  16.347  10.982  15.721  0.2260 -0.2260 -0.3587
34283OCT     C168565  13.898   2.415   9.669 -0.3221  0.1074  0.1154
34283OCT     C268566  13.442   2.320   9.529 -0.0267 -0.0569 -0.0256
34284OCT     C168567  18.126  23.076  20.398 -0.2207  0.1270 -0.0904
34284OCT     C268568  17.749  22.852  20.247  0.1081 -0.1528 -0.0197
34285OCT     C168569   8.911  14.354   7.150  0.1825  0.0556  0.1448
34285OCT     C268570   8.951  13.911   7.397  0.0062 -0.3081  0.0826
34286OCT     C168571  16.475   4.781  14.837  0.1826  0.0088  0.1519
34286OCT     C268572  16.823   5.091  14.689  0.0464 -0.0264  0.3715
34287OCT     C168573   9.821   9.289   7.262  0.1548  0.1570  0.1108
34287OCT     C268574  10.172   9.615   7.456 -0.1710  0.0513 -0.0812
34288OCT     C168575  14.958   7.254  22.849  0.2811  0.2491 -0.3234
34288OCT     C268576  14.868   6.838  22.648 -0.2368 -0.0426 -0.0569
34289OCT     C168577  10.495   2.061   4.649  0.0708  0.0943 -0.1701
34289OCT     C268578  10.406   2.155   5.090  0.3563 -0.1508 -0.0624
34290OCT     C168579  14.047  15.248  22.462 -0.0022 -0.0709 -0.4653
34290OCT     C268580  14.376  14.980  22.357  0.0813  0.0699 -0.2126
34291OCT     C168581  20.216   5.391  12.628  0.2111  0.1454  0.0073
34291OCT     C268582  20.003   5.069  12.844  0.1248 -0.1313 -0.1838
34292OCT     C168583  20.563  22.527  23.203  0.3109 -0.0225 -0.4007
34292OCT     C268584  20.324  22.165  23.077  0.2562  0.0311 -0.2158
34293OCT     C168585  10.309   8.860  18.389 -0.0671 -0.2135 -0.1212
34293OCT     C268586  10.056   9.015  18.030 -0.3402  0.0961  0.1809
34294OCT     C168587  23.036  20.765   7.109 -0.0740  0.3132 -0.1617
34294OCT     C268588  22.626  20.947   7.000 -0.0684  0.6057  0.0258
34295OCT     C168589   4.679  15.092  16.202 -0.3239  0.2733  0.2815
34295OCT     C268590   4.294  15.331  16.145 -0.1416  0.2479  0.1793
34296OCT     C168591   2.194  18.412  20.542  0.3391  0.2211  0.0734
34296OCT     C268592   2.534  18.339  20.245  0.4332  0.0843 -0.2432
34297OCT     C168593   2.719  13.174   9.005 -0.1742 -0.0234  0.0544
34297OCT     C268594   3.149  13.455   8.967 -0.2521  0.0185 -0.0348
34298OCT     C168595  22.158   5.241   5.847 -0.2004  0.0220  0.2433
34298OCT     C268596  21.874   4.919   5.720 -0.0541  0.1245 -0.4016
34299OCT     C168597   0.969  23.224   5.775  0.1395 -0.0057 -0.3212
34299OCT     C268598   1.007  23.695   5.787 -0.2446  0.0818 -0.0715
34300OCT     C168599  18.776   8.444   5.852 -0.2236  0.2896  0.1521
34300OCT     C268600  18.452   8.130   5.956  0.0707  0.2087  0.2097
34301OCT     C168601  14.578  15.895  15.146 -0.5491  0.0256 -0.1762
34301OCT     C268602  14.305  15.726  14.774 -0.2680  0.1158 -0.1075
34302OCT     C168603  21.388   0.466  11.336  0.2924  0.0355 -0.3280
34302OCT     C268604  21.494   0.717  10.952 -0.1670 -0.6279  0.4328
34303OCT     C168605  18.580   7.480   9.117  0.2137 -0.0709  0.1759
34303OCT     C268606  18.322   7.162   8.891  0.1953  0.0553  0.2830
34304OCT     C168607   3.463  19.830   8.665  0.1542  0.0232 -0.3011
34304OCT     C268608   3.079  19.872   8.377  0.0913 -0.1606  0.3289
34305OCT     C168609  15.272   9.883  21.296 -0.0583 -0.1587  0.0067
34305OCT     C268610  15.586   9.806  20.933 -0.0893  0.3331  0.1200
34306OCT     C168611   5.274   9.029   1.201 -0.1141 -0.1378  0.3060
34306OCT     C268612   4.851   8.948   0.928 -0.0546 -0.3086 -0.1616
34307OCT     C168613  12.039  14.603  19.083 -0.0119  0.0161 -0.1547
34307OCT     C268614  11.762  14.228  19.051 -0.0800  0.2000 -0.6422
34308OCT     C168615   2.244  19.318  20.889 -0.3918 -0.1307 -0.0301
34308OCT     C268616   2.000  19.664  20.880 -0.1507  0.0829 -0.1274
34309OCT     C168617   9.445  16.694   9.358  0.0783 -0.3029  0.1514
34309OCT     C268618   9.514  16.585   9.772  0.1876  0.5349  0.0322
34310OCT     C168619   4.901   0.163  19.486  0.0073 -0.4308 -0.3464
34310OCT     C268620   5.081   0.509  19.811 -0.3031 -0.0380 -0.2696
34311OCT     C168621  18.093  11.406  22.196  0.3037  0.0296  0.0792
34311OCT     C268622  18.339  11.012  22.007 -0.0709  0.3213  0.1262
34312OCT     C168623   1.690   5.651   3.393 -0.1395 -0.0622  0.0737
34312OCT     C268624   1.767   5.516   3.812 -0.0728  0.4621 -0.0249
34313OCT     C168625  23.025   9.493  16.723 -0.0446 -0.0120  0.4131
34313OCT     C268626  22.815   9.507  16.307  0.0170 -0.0598  0.0471
34314OCT     C168627   6.341  22.605   7.121 -0.0810  0.0694 -0.0246
34314OCT     C268628   6.346  22.714   6.651 -0.1835  0.1263 -0.3707
34315OCT     C168629  12.571   2.505   7.460  0.1108  0.2493 -0.0793
34315OCT     C268630  12.967   2.481   7.264  0.0416  0.1430  0.2381
34316OCT     C168631  18.336  17.779   4.842 -0.2589  0.0432  0.2492
34316OCT     C268632  18.792  17.929   4.848 -0.3829  0.1162  0.0224
34317OCT     C168633   4.426  19.271  11.530  0.0191  0.0458 -0.2725
34317OCT     C268634   4.253  18.972  11.225  0.0123  0.0967  0.0496
34318OCT     C168635   3.279  13.039  13.380 -0.2001 -0.0572  0.0215
34318OCT     C268636   2.807  13.090  13.462 -0.0088  0.1319 -0.1058
34319OCT     C168637  21.797   7.320  18.859 -0.3181  0.1597  0.0145
34319OCT     C268638  21.883   7.270  18.387  0.0695 -0.4568 -0.2772
34320OCT     C168639  12.952   8.756  16.675  0.1193 -0.1556 -0.3343
34320OCT     C268640  12.778   8.819  16.238  0.0841 -0.0898 -0.0956
34321OCT     C168641  16.628  20.874   1.841  0.0617 -0.1305  0.2005
34321OCT     C268642  16.872  21.090   1.497 -0.1118  0.0318 -0.2588
34322OCT     C168643  10.694   6.431   5.155 -0.2192  0.2921 -0.0473
34322OCT     C268644  10.266   6.622   5.224  0.1919 -0.0265  0.0231
34323OCT     C168645  14.928  23.086  23.234 -0.1256  0.1523 -0.1851
34323OCT     C268646  15.070  22.606  23.089 -0.0415 -0.0360  0.2855
34324OCT     C168647   4.437   2.020  18.476  0.1876 -0.2884 -0.0078
34324OCT     C268648   4.192   1.710  18.668 -0.2820  0.3378 -0.3457
34325OCT     C168649   5.176   5.299   1.752  0.0438 -0.1985 -0.3289
34325OCT     C268650   5.227   5.555   2.155 -0.0262  0.0071  0.5582
34326OCT     C168651   3.119  19.189  14.833  0.0720  0.4045  0.1742
34326OCT     C268652   3.623  19.076  14.826  0.1619 -0.0124  0.0772
34327OCT     C168653  22.787   2.124   2.463  0.1429  0.1580  0.2037
34327OCT     C268654  22.834   1.840   2.111 -0.1671 -0.3618 -0.2190
34328OCT     C168655  16.009  11.984   2.985  0.5678  0.0132 -0.1169
34328OCT     C268656  16.220  11.608   3.167  0.0929  0.0752 -0.0885
34329OCT     C168657  18.160   3.745   9.700  0.2065  0.2052 -0.1208
34329OCT     C268658  18.496   3.841   9.935  0.0199 -0.0964  0.2028
34330OCT     C168659  13.749   4.430  20.094  0.2073  0.0534 -0.1717
34330OCT     C268660  14.137   4.255  19.912 -0.2359 -0.1551 -0.0218
34331OCT     C168661  22.941   3.321  16.598 -0.0502  0.1706 -0.1629
34331OCT     C268662  23.049   3.253  16.157  0.1956 -0.2546  0.1166
34332OCT     C168663  14.770  20.210   6.837 -0.4291  0.4199 -0.0708
34332OCT     C268664  14.421  19.864   6.935 -0.0486 -0.0134 -0.0106
34333OCT     C168665   5.191  16.262   9.086  0.1106 -0.3742 -0.4854
34333OCT     C268666   5.471  16.389   9.438  0.0688  0.2286 -0.0066
34334OCT     C168667   3.585  18.392  16.843  0.1709 -0.0298 -0.2270
34334OCT     C268668   3.234  18.266  16.546 -0.2976  0.0115 -0.0165
34335OCT     C168669  14.837  16.818   4.524 -0.0329 -0.0632  0.1080
34335OCT     C268670  14.549  17.200   4.627  0.0137  0.2953  0.1962
34336OCT     C168671  13.054  23.195  11.162 -0.0378  0.0603  0.1721
34336OCT     C268672  13.349  22.851  11.241  0.3218 -0.1496 -0.2187
34337OCT     C168673  19.104   1.269  17.984 -0.0548  0.0440 -0.0091
34337OCT     C268674  19.305   1.658  17.800  0.3744  0.2105 -0.2710
34338OCT     C168675   0.455  13.255   5.219 -0.2462  0.4137  0.0043
34338OCT     C268676   0.878  13.066   5.391 -0.2153 -0.0995 -0.3727
34339OCT     C168677  11.330   4.751   5.180  0.2586 -0.0688 -0.0578
34339OCT     C268678  11.189   4.330   5.195 -0.0821  0.1009 -0.2818
34340OCT     C168679  17.274   3.312  14.353  0.1138  0.1414 -0.0594
34340OCT     C268680  17.157   3.102  14.810 -0.1080 -0.2529  0.0296
34341OCT     C168681   7.479   5.915  18.190 -0.0100 -0.5026 -0.0703
34341OCT     C268682   7.286   5.793  18.600  0.1417  0.0991 -0.0295
34342OCT     C168683   4.440  13.335  13.220 -0.0600  0.1369  0.3771
34342OCT     C268684   4.067  13.106  13.378  0.0560  0.1763  0.1219
34343OCT     C168685  17.286  14.115   6.288  0.0248  0.2027 -0.3171
34343OCT     C268686  17.002  14.122   5.940  0.3999  0.0037 -0.1503
34344OCT     C168687  21.048   2.763  22.394 -0.0014  0.2168  0.0997
34344OCT     C268688  21.508   2.709  22.238 -0.1134 -0.2577  0.1316
34345OCT     C168689  18.462  11.426   4.009 -0.0906  0.0364 -0.3033
34345OCT     C268690  18.125  11.552   4.322  0.0193  0.4095 -0.3225
34346OCT     C168691  22.345   8.684  18.472  0.1336  0.0390  0.1067
34346OCT     C268692  22.462   9.063  18.693 -0.1493  0.0653 -0.2770
34347OCT     C168693  23.426  15.552   7.619 -0.3625  0.2196  0.1938
34347OCT     C268694  23.124  15.295   7.732 -0.1890 -0.1701  0.0343
34348OCT     C168695  12.839   0.794   0.261  0.1964 -0.2587 -0.0578
34348OCT     C268696  12.924   1.182   0.051 -0.0288 -0.2627  0.0252
34349OCT     C168697  19.668  10.743  17.898 -0.2922 -0.0931 -0.3190
34349OCT     C268698  20.013  10.604  17.701  0.0362  0.2011  0.1413
34350OCT     C168699  15.425  18.651  13.739  0.2830  0.3016  0.2666
34350OCT     C268700  15.430  19.101  13.896  0.3291  0.0930  0.0395
34351OCT     C168701  22.736   9.617  22.773 -0.0395  0.0081  0.2329
34351OCT     C268702  22.967  10.034  22.702 -0.3509 -0.1942 -0.2460
34352OCT     C168703  20.127   9.727   4.191 -0.0815  0.6234  0.1008
34352OCT     C268704  19.867   9.517   4.497 -0.1803  0.1729 -0.0701
34353OCT     C168705   7.307  10.135  11.932  0.0444  0.2825  0.1873
34353OCT     C268706   7.226   9.692  12.002 -0.0333 -0.3955  0.0890
34354OCT     C168707  14.438   4.698  22.661  0.3193 -0.2952 -0.2264
34354OCT     C268708  14.600   4.864  22.266 -0.2934  0.0140 -0.0044
34355OCT     C168709   8.740   8.090   9.477 -0.0231  0.0747  0.2806
34355OCT     C268710   8.854   7.813   9.092  0.3813  0.0730 -0.0237
34356OCT     C168711   8.642  23.234   7.033 -0.0379 -0.4155  0.0911
34356OCT     C268712   9.057  23.099   6.932  0.2834 -0.1409  0.0848
34357OCT     C168713  10.057  18.726  14.967 -0.0281 -0.3448 -0.5146
34357OCT     C268714  10.169  19.000  14.645 -0.0700  0.1506 -0.3458
34358OCT     C168715   5.428  14.109   7.096 -0.2103  0.0269 -0.2138
34358OCT     C268716   5.011  14.282   6.937  0.2279  0.1990  0.0407
34359OCT     C168717  19.042  16.703  16.431  0.1827 -0.0629  0.3263
34359OCT     C268718  18.571  16.636  16.530  0.2198  0.0097  0.2187
34360OCT     C168719  16.616  20.697  17.621  0.0027 -0.0155  0.0189
34360OCT     C268720  16.727  21.138  17.404  0.0495  0.2061 -0.1275
34361OCT     C168721  18.085  16.076   1.612  0.3929  0.0164  0.1294
34361OCT     C268722  17.640  16.054   1.618  0.2312  0.1739  0.4009
34362OCT     C168723   7.174  19.063  23.235  0.1598  0.2549  0.0542
34362OCT     C268724   7.497  18.940  23.625  0.1621  0.3153  0.0349
34363OCT     C168725  12.994   4.449  19.552 -0.3275 -0.0728  0.0817
34363OCT     C268726  12.800   4.369  20.008 -0.1149 -0.0840 -0.3993
34364OCT     C168727  12.575   0.136  18.468  0.1515 -0.4192  0.0050
34364OCT     C268728  12.782  23.557  18.281  0.2568  0.0235  0.3305
34365OCT     C168729  11.163  14.873  10.687  0.2111 -0.2349  0.0508
34365OCT     C268730  10.837  15.158  10.882  0.1559 -0.1073 -0.0502
34366OCT     C168731   3.383  16.651   5.742  0.4467  0.0052 -0.0089
34366OCT     C268732   3.279  16.480   5.321  0.0852 -0.1811  0.1219
34367OCT     C168733  13.043  11.401  18.744 -0.3675 -0.1824 -0.1690
34367OCT     C268734  13.372  11.681  18.943  0.1241  0.2405  0.0067
34368OCT     C168735   1.638  12.977  21.143 -0.4994 -0.5137  0.0711
34368OCT     C268736   1.560  12.560  21.131  0.1959 -0.1776 -0.2744
34369OCT     C168737  16.573  16.543  13.791 -0.2510 -0.0510 -0.0270
34369OCT     C268738  16.822  16.443  14.206 -0.3203 -0.2884  0.0751
34370OCT     C168739   5.168  11.867  13.325  0.0162 -0.2839  0.0867
34370OCT     C268740   5.474  11.517  13.361 -0.1670  0.0640  0.1434
34371OCT     C168741   5.235  17.183   7.414 -0.2500  0.0186 -0.0903
34371OCT     C268742   5.051  16.992   7.760  0.4481 -0.1810 -0.0017
34372OCT     C168743  20.110   8.006  13.391  0.2521 -0.0081  0.0525
34372OCT     C268744  20.119   7.651  13.670  0.2500 -0.3152 -0.1782
34373OCT     C168745  12.876  10.616   9.688 -0.0798 -0.0341  0.2751
34373OCT     C268746  13.116  10.425   9.343  0.2242  0.0247  0.1732
34374OCT     C168747  14.345  21.332   9.428 -0.0790 -0.2712  0.0610
34374OCT     C268748  14.643  21.045   9.535 -0.0116  0.2425 -0.6284
34375OCT     C168749   6.072  16.984   5.764  0.1661 -0.0599 -0.1739
34375OCT     C268750   5.593  16.862   5.915 -0.1400  0.1890 -0.0521
34376OCT     C168751  14.801  13.382  10.470  0.0245 -0.2176  0.1337
34376OCT     C268752  14.934  13.314  10.931  0.1341 -0.1474 -0.0093
34377OCT     C168753   1.816  13.305  16.109 -0.0272  0.2284 -0.2154
34377OCT     C268754   2.251  13.314  15.898  0.1876 -0.2603 -0.0242
34378OCT     C168755   9.968   9.820  16.918 -0.3061  0.2505 -0.1454
34378OCT     C268756   9.823  10.034  17.324  0.1701 -0.0361 -0.0292
34379OCT     C168757   4.183  13.056   1.624 -0.0370  0.0058  0.1887
34379OCT     C268758   4.043  12.617   1.622 -0.5688 -0.0311  0.1134
34380OCT     C168759   6.027  17.667   7.197 -0.0977  0.1375  0.0742
34380OCT     C268760   5.749  18.012   6.980  0.0225 -0.1526  0.0512
34381OCT     C168761   8.142   9.331  17.204 -0.1198  0.2118 -0.4484
34381OCT     C268762   8.130   9.113  17.577 -0.4001  0.0896  0.2720
34382OCT     C168763  18.801  18.946  11.795  0.1519 -0.0412  0.0607
34382OCT     C268764  19.005  19.078  11.470  0.3880  0.0676  0.3320
34383OCT     C168765   8.261  10.933  19.271  0.0660  0.2132 -0.1225
34383OCT     C268766   8.291  10.499  19.076  0.2883 -0.3578 -0.1303
34384OCT     C168767  23.729  21.581   4.145  0.4055  0.0917  0.0289
34384OCT     C268768  23.680  21.328   4.524 -0.3858 -0.0018  0.2993
34385OCT     C168769  15.038   9.041  11.045  0.0132 -0.2047 -0.1052
34385OCT     C268770  15.260   8.797  10.718 -0.1161 -0.1090  0.1543
34386OCT     C168771   2.434  23.576   5.322 -0.2438  0.0059  0.1282
34386OCT     C268772   2.559   0.271   5.404  0.1419  0.1635  0.1470
34387OCT     C168773  14.308  15.042  20.197  0.4168  0.1131  0.0587
34387OCT     C268774  14.301  15.004  19.742  0.0029  0.2861  0.0668
34388OCT     C168775  13.993   1.021  20.296 -0.0256  0.1906  0.2744
34388OCT     C268776  13.531   0.905  20.355  0.0284  0.0218  0.0261
34389OCT     C168777  12.878   0.167  15.319 -0.0217  0.0065 -0.0126
34389OCT     C268778  12.756   0.108  14.823 -0.1124 -0.0018  0.0336
34390OCT     C168779   8.142  20.827  17.457 -0.0257 -0.0765 -0.0345
34390OCT     C268780   8.451  20.469  17.510 -0.2915 -0.3512 -0.4891
34391OCT     C168781  18.147  22.707  21.544 -0.1011 -0.1550  0.1962
34391OCT     C268782  18.128  22.294  21.747 -0.0709 -0.2257 -0.2211
34392OCT     C168783   8.837   8.212   2.947 -0.0626 -0.0790 -0.0298
34392OCT     C268784   9.319   8.200   3.060  0.3317 -0.2532  0.4591
34393OCT     C168785   6.602  19.976  12.600 -0.0626  0.0053 -0.0887
34393OCT     C268786   6.509  20.346  12.360  0.1788  0.1375 -0.2322
34394OCT     C168787  12.602   6.143   7.387 -0.1483  0.1647 -0.1906
34394OCT     C268788  12.878   5.829   7.536 -0.0784  0.1339  0.2818
34395OCT     C168789   7.514  22.003  10.711 -0.0234 -0.2092 -0.1403
34395OCT     C268790   7.954  22.220  10.632  0.2881  0.1417  0.1800
34396OCT     C168791  14.040   9.512   9.618  0.3248 -0.1989 -0.1032
34396OCT     C268792  14.366   9.784   9.731 -0.0805 -0.0982  0.0256
34397OCT     C168793  18.788   1.535  17.710  0.1644 -0.2035 -0.3727
34397OCT     C268794  18.832   1.090  17.524  0.0600  0.0547  0.3227
34398OCT     C168795  13.655   8.983  11.915 -0.0884 -0.1214  0.0052
34398OCT     C268796  13.940   8.949  12.293 -0.3844  0.3965 -0.1536
34399OCT     C168797   8.778   4.909   0.316 -0.0061  0.0748  0.2498
34399OCT     C268798   8.484   5.173   0.049 -0.2431  0.3141 -0.0012
34400OCT     C168799  12.731   9.145   9.592 -0.0513 -0.5558  0.2498
34400OCT     C268800  12.683   9.558   9.444  0.0102  0.0179  0.0238
34401OCT     C168801  11.442   4.579  17.900 -0.2776  0.1505  0.4653
34401OCT     C268802  11.420   4.877  18.264 -0.1164  0.1179  0.0073
34402OCT     C168803   0.529   3.859  21.226  0.1428  0.0980  0.0943
34402OCT     C268804   0.441   4.279  21.151 -0.2601 -0.0553  0.2257
34403OCT     C168805   0.131  23.220  20.305  0.0704  0.2390  0.1570
34403OCT     C268806   0.234  23.172  20.753 -0.2212  0.1338 -0.3875
34404OCT     C168807  17.162  17.249  13.457 -0.3432 -0.0079  0.0639
34404OCT     C268808  17.030  17.440  13.837  0.1325 -0.3688  0.1860
34405OCT     C168809  23.213  22.052  12.105  0.5903 -0.0712 -0.0047
34405OCT     C268810  23.508  22.406  12.165 -0.0484  0.2440 -0.0726
34406OCT     C168811  12.018  20.051   3.050 -0.4284 -0.2932 -0.1122
34406OCT     C268812  12.353  19.881   2.786  0.1511 -0.1565  0.0184
34407OCT     C168813  10.721   8.957  16.719  0.1496  0.1806  0.1009
34407OCT     C268814  10.973   9.222  16.428 -0.0314 -0.1045 -0.1051
34408OCT     C168815   4.822   9.974  16.326 -0.0232  0.0173 -0.0349
34408OCT     C268816   4.600  10.388  16.469  0.0373  0.3143 -0.2176
34409OCT     C168817  17.372  21.948  21.608  0.1266  0.0535 -0.0115
34409OCT     C268818  17.645  22.300  21.782  0.1042  0.2556 -0.1972
34410OCT     C168819  15.729   3.307   6.667  0.2638  0.1628 -0.2093
34410OCT     C268820  15.489   3.230   7.061  0.0516 -0.2216  0.0081
34411OCT     C168821   7.585  23.377  16.567  0.1561  0.2490  0.2132
34411OCT     C268822   7.345  23.549  16.192 -0.2001  0.1340  0.0012
34412OCT     C168823  16.044  22.472  16.339  0.1266  0.1977  0.4661
34412OCT     C268824  16.475  22.293  16.308  0.0955 -0.2580  0.3451
34413OCT     C168825   3.369   3.991  10.190 -0.0694  0.1803 -0.3239
34413OCT     C268826   2.960   4.119  10.322 -0.3100 -0.0028  0.0211
34414OCT     C168827  12.178  22.512  12.000 -0.3118 -0.0937  0.1416
34414OCT     C268828  12.545  22.473  11.730 -0.0074  0.4765 -0.1922
34415OCT     C168829   0.294  22.124  17.336 -0.2830  0.4037  0.2207
34415OCT     C268830   0.156  22.360  16.923 -0.1465 -0.2842  0.2066
34416OCT     C168831  21.920   0.726  22.201  0.1005  0.0648  0.0264
34416OCT     C268832  22.202   0.421  22.466  0.1362  0.0649 -0.0617
34417OCT     C168833  22.491  15.604  11.584  0.3066 -0.1623  0.2080
34417OCT     C268834  22.418  15.984  11.866  0.2159 -0.0522  0.1034
34418OCT     C168835  17.900   1.974   4.814  0.2277 -0.3721 -0.3372
34418OCT     C268836  17.699   2.268   5.175  0.4292 -0.2366 -0.0220
34419OCT     C168837  11.079  22.784  13.027  0.0428  0.1407  0.1043
34419OCT     C268838  11.252  22.599  12.680  0.3115 -0.2236  0.0371
34420OCT     C168839  12.815  17.874  21.118  0.1661 -0.0519  0.3376
34420OCT     C268840  12.593  17.640  20.773 -0.0746 -0.1443  0.0974
34421OCT     C168841  14.031   0.915  14.837 -0.3353 -0.2366  0.0078
34421OCT     C268842  14.328   0.733  14.522 -0.1030 -0.1078 -0.0909
34422OCT     C168843  23.573  18.719  22.668 -0.4049  0.3418  0.0919
34422OCT     C268844  23.169  18.587  22.682  0.3140  0.1476  0.0227
34423OCT     C168845  22.045  20.371  20.082 -0.0518  0.0370 -0.0331
34423OCT     C268846  22.512  20.419  20.242  0.2974  0.0891  0.3180
34424OCT     C168847   6.111  13.511   0.602  0.0786 -0.0630 -0.0323
34424OCT     C268848   6.038  13.912   0.338  0.3212 -0.3837  0.1435
34425OCT     C168849  18.206  10.559  18.479 -0.0810  0.4071 -0.1285
34425OCT     C268850  18.049  10.952  18.676 -0.1021  0.0676 -0.1723
34426OCT     C168851  12.442  14.723  20.562 -0.1650 -0.4076  0.1655
34426OCT     C268852  12.508  14.283  20.396  0.0968 -0.1519 -0.1811
34427OCT     C168853   6.821   0.923  13.065 -0.0765 -0.0687  0.1091
34427OCT     C268854   6.987   1.277  13.247  0.0757  0.2269  0.3628
34428OCT     C168855  21.755   3.465   9.736  0.0087 -0.2938  0.5006
34428OCT     C268856  22.199   3.532   9.816  0.2924  0.0364 -0.0419
34429OCT     C168857  17.318  22.694  22.610  0.1541 -0.1801 -0.1502
34429OCT     C268858  17.129  22.391  22.888  0.0468  0.2815  0.2780
34430OCT     C168859  13.922  15.273   2.550 -0.0383  0.1310 -0.3071
34430OCT     C268860  13.716  14.941   2.828  0.0219  0.1016 -0.0197
34431OCT     C168861  11.415  12.052  10.499  0.1919  0.1096  0.1267
34431OCT     C268862  11.876  11.830  10.462  0.1563  0.3380  0.1330
34432OCT     C168863   3.760  10.259  20.642  0.2232 -0.0367 -0.3346
34432OCT     C268864   3.605  10.538  20.877 -0.0257 -0.1400  0.1528
34433OCT     C168865   9.238   8.816  13.078  0.1579  0.2307  0.2572
34433OCT     C268866   9.003   8.431  13.006  0.1049 -0.1020  0.1525
34434OCT     C168867   6.036   4.797   9.978  0.0723 -0.0763 -0.0577
34434OCT     C268868   5.954   5.031  10.395 -0.1584  0.0746 -0.3596
34435OCT     C168869   9.084   1.482  13.516 -0.1380 -0.0327 -0.3348
34435OCT     C268870   8.890   1.718  13.896 -0.0032  0.0433 -0.0072
34436OCT     C168871   0.452  15.525  11.666  0.1622 -0.2712  0.5114
34436OCT     C268872   0.711  15.884  11.642  0.0046 -0.1342 -0.0301
34437OCT     C168873  16.855  11.477   9.228  0.1254  0.1873 -0.1732
34437OCT     C268874  16.535  11.819   9.379  0.0963  0.0977 -0.2052
34438OCT     C168875   6.745  20.784  17.471  0.0822 -0.0881 -0.0914
34438OCT     C268876   6.764  21.099  17.087 -0.3236 -0.1440 -0.0244
34439OCT     C168877   6.262   8.902   7.333 -0.1361 -0.3167  0.2552
34439OCT     C268878   6.227   8.917   6.863 -0.1169  0.3202 -0.0493
34440OCT     C168879  22.624  15.304  23.675  0.2504 -0.0621 -0.3319
34440OCT     C268880  22.679  15.227   0.372  0.2083 -0.5452 -0.1281
34441OCT     C168881   3.797   6.038  20.628 -0.1503 -0.2350 -0.2032
34441OCT     C268882   3.806   6.492  20.653 -0.0938  0.3508 -0.2339
34442OCT     C168883   3.240   7.807  10.090 -0.0324  0.0993  0.0450
34442OCT     C268884   3.113   8.107   9.754  0.1081 -0.1138 -0.0531
34443OCT     C168885   0.140   6.985  21.709 -0.0215 -0.1041 -0.0232
34443OCT     C268886   0.349   7.344  21.475 -0.1877  0.1485 -0.1535
34444OCT     C168887   1.968   2.154   1.339 -0.0106 -0.1361 -0.1311
34444OCT     C268888   2.178   2.091   0.901 -0.0032  0.3320 -0.2846
34445OCT     C168889   3.138  15.080  20.980  0.3314 -0.4715  0.2786
34445OCT     C268890   2.813  14.853  21.242  0.2618 -0.5451  0.0514
34446OCT     C168891   8.894  22.348  14.626 -0.3017 -0.1664 -0.0323
34446OCT     C268892   8.456  22.187  14.581  0.0177 -0.0261  0.0082
34447OCT     C168893  14.454  10.063  20.670  0.1512 -0.0488 -0.2229
34447OCT     C268894  14.390  10.332  20.277  0.1338  0.1666  0.0914
34448OCT     C168895   3.115  16.151   8.009 -0.1917  0.1471 -0.1931
34448OCT     C268896   2.826  15.773   8.045  0.0421 -0.0243 -0.0777
34449OCT     C168897  14.148   9.807  15.569  0.0475 -0.1679  0.0851
34449OCT     C268898  13.848   9.615  15.309  0.0147  0.2570  0.1205
34450OCT     C168899   9.853   4.326  14.622 -0.0362  0.3852  0.2855
34450OCT     C268900   9.871   3.905  14.651 -0.1526 -0.3778  0.3185
34451OCT     C168901   2.526  19.444  18.852  0.1344  0.0026 -0.0129
34451OCT     C268902   2.647  19.574  19.234  0.1426 -0.0107 -0.2751
34452OCT     C168903  18.079  22.237  18.304 -0.3919 -0.1464  0.3598
34452OCT     C268904  18.117  21.800  18.474  0.0681 -0.3197 -0.0696
34453OCT     C168905   1.655  17.992  12.506  0.2295 -0.2042  0.2537
34453OCT     C268906   1.255  18.257  12.680  0.1234  0.1943  0.3482
34454OCT     C168907   5.688  19.514  17.489 -0.0747 -0.0409  0.1827
34454OCT     C268908   5.250  19.643  17.430  0.0096  0.0249  0.2709
34455OCT     C168909  19.100   8.081   7.379 -0.1179  0.0098  0.4773
34455OCT     C268910  18.644   8.213   7.373  0.1834  0.1731  0.0357
34456OCT     C168911   1.712  10.256   6.379 -0.2977 -0.0539  0.2843
34456OCT     C268912   1.740  10.692   6.548  0.1935  0.2543 -0.1429
34457OCT     C168913  18.119   7.213   2.381  0.0707 -0.1070  0.0055
34457OCT     C268914  17.858   7.025   2.012 -0.0293 -0.0582  0.1142
34458OCT     C168915   5.917  17.290  12.523  0.1026  0.0611  0.1338
34458OCT     C268916   6.055  17.289  12.084 -0.0286  0.0019 -0.0045
34459OCT     C168917  11.604  10.913  17.629  0.0559  0.5635 -0.2225
34459OCT     C268918  11.353  11.045  17.343  0.4041 -0.1600  0.0396
34460OCT     C168919  12.917  19.188  21.131  0.2938  0.3575  0.3653
34460OCT     C268920  13.250  19.134  21.473 -0.3107  0.0207 -0.6363
34461OCT     C168921   4.134   1.345  11.862  0.4265 -0.0586 -0.2667
34461OCT     C268922   4.225   1.137  11.438  0.0481  0.1442  0.2669
34462OCT     C168923   2.865  13.883  14.904 -0.1981  0.2930  0.3033
34462OCT     C268924   2.745  13.958  15.385 -0.2273  0.1108 -0.0759
34463OCT     C168925  21.783  19.443   9.330  0.0345 -0.0398 -0.1894
34463OCT     C268926  21.957  19.763   9.621  0.1875  0.0179 -0.0059
34464OCT     C168927   8.607  14.253  17.559 -0.1438 -0.0193 -0.1271
34464OCT     C268928   8.668  13.847  17.347 -0.0873  0.5017  0.0539
34465OCT     C168929  19.464   5.523  20.029  0.1337  0.1281 -0.0989
34465OCT     C268930  19.444   5.184  20.360  0.4289  0.0314  0.1466
34466OCT     C168931   9.547   9.722   8.197 -0.1172  0.0295 -0.0797
34466OCT     C268932   9.262   9.717   8.572  0.2181 -0.2287  0.0322
34467OCT     C168933  11.245  17.533  15.805  0.1516 -0.1265  0.0466
34467OCT     C268934  11.301  17.595  15.343  0.2228  0.1496  0.0993
34468OCT     C168935  17.593  19.565   8.310  0.3274  0.1561 -0.2784
34468OCT     C268936  17.175  19.648   8.468 -0.3210  0.1443 -0.2269
34469OCT     C168937  19.526   8.170  22.758  0.3571 -0.0632  0.4760
34469OCT     C268938  19.166   8.440  22.632 -0.1757  0.1291 -0.0534
34470OCT     C168939  18.184  22.302   8.981 -0.0785 -0.2248 -0.0733
34470OCT     C268940  18.362  22.626   8.656 -0.0261 -0.0861 -0.1177
34471OCT     C168941  19.081  20.859  10.231  0.0984  0.3798 -0.0809
34471OCT     C268942  19.072  20.599   9.817  0.7127  0.1656  0.0537
34472OCT     C168943  23.218  20.705   5.574  0.1936 -0.5566 -0.1501
34472OCT     C268944  23.074  20.346   5.342  0.1111 -0.0967  0.1378
34473OCT     C168945   2.838   1.077  11.539  0.2527  0.2142 -0.1075
34473OCT     C268946   2.748   0.665  11.803 -0.0654  0.4421 -0.1354
34474OCT     C168947   6.126   7.929   9.993 -0.0077  0.3227 -0.0667
34474OCT     C268948   6.203   8.352   9.790  0.2193  0.1991 -0.0074
34475OCT     C168949  19.757  18.550  20.173  0.0215  0.0731  0.0522
34475OCT     C268950  19.534  18.161  20.025 -0.0246  0.2763 -0.1117
34476OCT     C168951  23.135  23.339   6.146 -0.1881  0.0844 -0.2824
34476OCT     C268952  23.488  23.622   6.005 -0.0086  0.0397 -0.0884
34477OCT     C168953   8.063  13.145   8.658  0.1308  0.0729  0.2395
34477OCT     C268954   7.817  13.030   9.026 -0.0086  0.0463  0.3316
34478OCT     C168955   6.627  10.932  10.421 -0.0624 -0.3292  0.3135
34478OCT     C268956   6.641  10.822  10.856 -0.4178  0.0579  0.0210
34479OCT     C168957  12.414  19.216  13.685  0.3360 -0.3744  0.1485
34479OCT     C268958  12.086  19.446  13.960  0.2293 -0.0690  0.1096
34480OCT     C168959  14.469  20.994  22.883 -0.0477  0.0876 -0.2981
34480OCT     C268960  14.181  21.175  23.215 -0.0380  0.5386  0.2882
34481OCT     C168961  20.338   7.108  14.273 -0.0265 -0.0731  0.2355
34481OCT     C268962  20.172   6.814  13.979 -0.2886  0.1966  0.2817
34482OCT     C168963  12.304   1.014  13.435 -0.1333 -0.0246  0.2605
34482OCT     C268964  12.359   0.658  13.103 -0.0840  0.3263  0.0684
34483OCT     C168965   5.867  14.124   2.622 -0.0449 -0.0134 -0.1928
34483OCT     C268966   5.628  14.247   2.237  0.1123  0.0833 -0.0316
34484OCT     C168967   5.701  17.764  18.693 -0.0460  0.2888 -0.5062
34484OCT     C268968   5.775  17.512  18.257 -0.2117 -0.2909  0.2621
34485OCT     C168969  15.467  13.915   6.224 -0.0043  0.0677 -0.1466
34485OCT     C268970  15.314  13.689   5.831  0.3834  0.1185  0.2199
34486OCT     C168971  17.662  15.266  21.688  0.4661 -0.1051  0.1322
34486OCT     C268972  17.592  15.288  22.132 -0.0704 -0.0502  0.1136
34487OCT     C168973   3.233   3.500  23.614  0.3087 -0.0647  0.1335
34487OCT     C268974   3.270   3.030   0.037  0.2284  0.0119 -0.4472
34488OCT     C168975  16.463  17.462   1.897  0.0277  0.4310 -0.3455
34488OCT     C268976  16.024  17.386   2.116  0.2147  0.2345 -0.3859
34489OCT     C168977  23.186   8.302   7.996 -0.0674  0.1832  0.0558
34489OCT     C268978  23.578   8.309   8.280 -0.2438  0.0408 -0.0033
34490OCT     C168979   2.078  12.327  13.213  0.5815 -0.2689  0.0119
34490OCT     C268980   2.238  12.422  13.638 -0.0573 -0.8357 -0.1387
34491OCT     C168981  21.161   3.837   2.355  0.1538 -0.1606  0.2535
34491OCT     C268982  21.064   4.027   2.753 -0.0515 -0.1379 -0.0661
34492OCT     C168983   4.426   7.242  10.870  0.1229 -0.0070  0.0984
34492OCT     C268984   4.621   7.531  10.568 -0.3420 -0.1534  0.0692
34493OCT     C168985   6.603  20.496  19.143 -0.0343 -0.1402  0.0909
34493OCT     C268986   6.751  20.889  18.953 -0.0045 -0.2324 -0.3042
34494OCT     C168987   3.148   1.133  21.129  0.0892 -0.0455  0.0892
34494OCT     C268988   3.134   0.982  20.733  0.0303  0.0273  0.3459
34495OCT     C168989  13.870  23.342   6.304 -0.5456 -0.1012 -0.1550
34495OCT     C268990  14.001  22.874   6.465  0.0321  0.3320 -0.1080
34496OCT     C168991   6.853  19.753  18.678  0.0514  0.2383  0.0246
34496OCT     C268992   7.180  19.697  18.975  0.3364 -0.2034 -0.0972
34497OCT     C168993  19.639   8.555   3.936  0.3957 -0.4520  0.0972
34497OCT     C268994  19.857   8.946   4.128  0.1484 -0.0086  0.1667
34498OCT     C168995  21.311  15.320  11.537  0.2500 -0.0977 -0.0280
34498OCT     C268996  21.524  15.065  11.781 -0.1190 -0.0347 -0.3465
34499OCT     C168997  22.407  23.496  19.521 -0.4725 -0.0818  0.3528
34499OCT     C268998  22.294  23.633  19.092 -0.0475  0.0159  0.2512
34500OCT     C168999   7.699  10.120   9.212  0.4602 -0.0147 -0.0771
34500OCT     C269000   7.339  10.395   9.234 -0.0009  0.0336  0.3362
34501OCT     C169001   2.224  10.137   0.308  0.4594 -0.0704 -0.1139
34501OCT     C269002   1.891  10.427   0.249  0.1212  0.1379  0.0324
34502OCT     C169003   8.180  16.211  18.050 -0.0747  0.2163  0.3052
34502OCT     C269004   8.308  16.201  18.501  0.3980 -0.2753 -0.2135
34503OCT     C169005   1.577  10.714   9.953 -0.1247 -0.2033 -0.0626
34503OCT     C269006   1.671  10.516   9.538 -0.2823  0.0750 -0.3007
34504OCT     C169007   4.042   0.865   1.693 -0.0149 -0.3275 -0.0671
34504OCT     C269008   3.939   0.915   2.143  0.0244  0.0802 -0.0021
34505OCT     C169009  13.947   3.377   3.210  0.0036 -0.2715  0.5487
34505OCT     C269010  14.288   3.620   3.446 -0.0173 -0.1281 -0.3548
34506OCT     C169011   7.719  10.192  18.001 -0.1691 -0.0261  0.2650
34506OCT     C269012   7.837  10.628  18.153  0.0566 -0.1476 -0.0726
34507OCT     C169013  23.303   0.307   9.077 -0.1463 -0.2269  0.2400
34507OCT     C269014  23.668   0.631   9.049 -0.2044  0.1513 -0.1193
34508OCT     C169015  23.047  10.892   9.508 -0.0354  0.0597  0.0767
34508OCT     C269016  23.177  10.403   9.453 -0.3339  0.1855  0.2441
34509OCT     C169017  11.769  11.829  18.484 -0.0171  0.1156  0.2137
34509OCT     C269018  11.581  11.840  18.037 -0.2325 -0.0148  0.0416
34510OCT     C169019   3.446   4.331   7.883  0.1742  0.1172  0.1759
34510OCT     C269020   3.503   4.590   7.484  0.0338  0.1386 -0.2018
34511OCT     C169021   4.687   5.925  18.741 -0.0881 -0.3002 -0.1782
34511OCT     C269022   4.478   6.184  19.065  0.0819 -0.1232 -0.0265
34512OCT     C169023  16.011   8.404  19.082 -0.3272 -0.2861  0.3609
34512OCT     C269024  16.301   8.511  18.670 -0.0130  0.2051  0.0001
34513OCT     C169025  21.699   1.876   5.490  0.1502  0.1257  0.2489
34513OCT     C269026  21.263   1.812   5.578 -0.0505 -0.2011  0.1177
34514OCT     C169027   4.253   3.341   7.138 -0.0909  0.0337 -0.2189
34514OCT     C269028   4.120   2.898   7.017  0.4628 -0.0934 -0.1589
34515OCT     C169029  18.111  11.754  17.347  0.2422  0.4355  0.0941
34515OCT     C269030  17.774  11.895  17.648 -0.0230  0.0550 -0.0559
34516OCT     C169031   3.884   5.874   5.672  0.0468 -0.0532 -0.1458
34516OCT     C269032   3.955   5.440   5.742  0.0948 -0.2734 -0.0630
34517OCT     C169033   6.591  12.410  13.618  0.2668 -0.0504 -0.2464
34517OCT     C269034   6.512  11.959  13.694  0.1293 -0.3981 -0.1313
34518OCT     C169035  18.140  16.383  16.261 -0.0064  0.0283 -0.0772
34518OCT     C269036  18.219  16.864  16.307  0.0928 -0.0938 -0.0695
34519OCT     C169037   6.178  14.375  22.534 -0.1845  0.0375 -0.0527
34519OCT     C269038   6.396  13.936  22.625  0.4872  0.2566  0.1515
34520OCT     C169039   5.090   3.238   6.579  0.0790  0.1729 -0.2703
34520OCT     C269040   5.554   3.328   6.516 -0.2543 -0.0627  0.1436
34521OCT     C169041  10.575  10.601   7.699  0.0207  0.1105  0.1362
34521OCT     C269042  10.429  10.920   8.025  0.2646 -0.1678 -0.1132
34522OCT     C169043   2.041  16.228  14.222  0.2622  0.2551  0.1136
34522OCT     C269044   1.888  16.206  14.684  0.3180  0.2545  0.0926
34523OCT     C169045  18.418  11.868   1.668  0.0581 -0.2667  0.0195
34523OCT     C269046  18.215  12.298   1.499  0.0955  0.1901 -0.2208
34524OCT     C169047  12.792  14.538   9.934  0.3396 -0.0878  0.0952
34524OCT     C269048  12.811  14.703  10.374  0.5604 -0.1026  0.1880
34525OCT     C169049  10.801  16.635  15.797  0.0487 -0.3438  0.3171
34525OCT     C269050  10.983  16.651  15.335  0.2255  0.2090  0.3759
34526OCT     C169051   5.069  17.727  20.809  0.0741  0.4019  0.2146
34526OCT     C269052   4.959  17.394  20.500 -0.5376  0.1641  0.1302
34527OCT     C169053   2.754   2.388  12.714  0.2393 -0.0163 -0.1039
34527OCT     C269054   3.013   2.689  12.968 -0.0118 -0.2563 -0.1326
34528OCT     C169055  12.303  10.316  10.783  0.1864  0.1031  0.5819
34528OCT     C269056  11.939  10.092  10.583 -0.4052 -0.2216  0.0046
34529OCT     C169057  20.008  14.800  20.170  0.3918  0.0129  0.0422
34529OCT     C269058  20.413  14.845  19.924  0.1168  0.1073 -0.2597
34530OCT     C169059   0.949   4.973  13.638  0.1154  0.0143  0.2954
34530OCT     C269060   1.055   5.326  13.430 -0.2505  0.2073 -0.1657
34531OCT     C169061   5.794  20.120   1.131  0.4808 -0.2531  0.1498
34531OCT     C269062   5.745  20.511   1.345  0.1834 -0.3270 -0.1086
34532OCT     C169063  17.734  13.452  21.398  0.0981  0.1896  0.3473
34532OCT     C269064  17.515  13.858  21.496 -0.1251 -0.0953 -0.3616
34533OCT     C169065  10.149   8.231  14.881 -0.4631  0.2133 -0.2610
34533OCT     C269066  10.573   8.087  15.013  0.1827  0.0098 -0.0167
34534OCT     C169067  21.190   3.290   6.552  0.1823  0.2231 -0.1824
34534OCT     C269068  21.022   2.836   6.588 -0.1573 -0.3811  0.2313
34535OCT     C169069  11.164  16.069   5.437 -0.2088 -0.3533 -0.0033
34535OCT     C269070  11.241  16.515   5.537 -0.0675 -0.2534 -0.3842
34536OCT     C169071  19.364  14.396  11.272 -0.0459 -0.0247  0.1580
34536OCT     C269072  19.502  14.166  11.629  0.1077 -0.0279 -0.3385
34537OCT     C169073  19.331  15.458   0.191 -0.2652 -0.0783  0.3005
34537OCT     C269074  19.670  15.794   0.092  0.0045 -0.0159 -0.1138
34538OCT     C169075  15.397   6.775   3.060  0.1981 -0.2419  0.0514
34538OCT     C269076  15.537   6.781   3.538 -0.0045  0.2186 -0.2284
34539OCT     C169077  23.369   1.243  13.688 -0.1503  0.0692 -0.2312
34539OCT     C269078  23.284   1.716  13.611 -0.2725 -0.4213 -0.1130
34540OCT     C169079  23.421  16.567  15.319 -0.0338  0.1100 -0.0287
34540OCT     C269080   0.153  16.425  15.267  0.3556  0.2920  0.4233
34541OCT     C169081  19.315   7.334   6.611 -0.0366 -0.0651  0.0807
34541OCT     C269082  19.493   7.629   6.920 -0.2025 -0.1389 -0.2721
34542OCT     C169083  18.679  21.985  20.192 -0.4578  0.1963 -0.2679
34542OCT     C269084  18.383  21.657  20.236  0.4538 -0.1214  0.0027
34543OCT     C169085   3.900  17.567   8.889 -0.3515  0.0416  0.1912
34543OCT     C269086   3.845  17.121   8.890  0.1028  0.0696  0.0846
34544OCT     C169087   1.817  22.172   3.379  0.0432 -0.2936 -0.0210
34544OCT     C269088   1.411  22.375   3.441  0.1946  0.0705  0.0659
34545OCT     C169089   9.417  17.221  20.840  0.2002  0.1103 -0.3021
34545OCT     C269090   9.774  17.484  20.658  0.5136 -0.1171  0.0597
34546OCT     C169091   2.825   9.547   0.488 -0.1239 -0.0230  0.1086
34546OCT     C269092   2.603   9.901   0.627  0.1253  0.1128 -0.2419
34547OCT     C169093  22.436  22.140   0.018  0.0730 -0.2565  0.1431
34547OCT     C269094  22.327  21.757   0.221 -0.0644 -0.1132 -0.2474
34548OCT     C169095  16.596   4.435  13.523  0.0121  0.0780  0.4369
34548OCT     C269096  16.556   4.113  13.861  0.0933 -0.2528  0.1261
34549OCT     C169097   8.818   1.893   2.758  0.4919  0.2410 -0.1682
34549OCT     C269098   9.090   2.247   2.662 -0.0787  0.4115  0.0092
34550OCT     C169099   6.284  17.643  23.052  0.1502 -0.4680 -0.0644
34550OCT     C269100   6.719  17.700  22.843  0.1806  0.1189  0.2507
34551OCT     C169101   4.323   2.148   2.804  0.0868 -0.0259  0.1146
34551OCT     C269102   4.723   2.232   2.888 -0.0935  0.2013  0.2378
34552OCT     C169103   9.723   0.464  13.437  0.0402 -0.1103 -0.1124
34552OCT     C269104   9.536   0.186  13.725  0.0599  0.0067  0.0746
34553OCT     C169105  17.476  11.227  20.799 -0.1407 -0.1410 -0.0866
34553OCT     C269106  17.617  11.358  20.388 -0.0087 -0.2130  0.1982
34554OCT     C169107  16.054  22.385  22.510  0.0916  0.4653 -0.0927
34554OCT     C269108  15.668  22.512  22.255 -0.0034 -0.0936  0.5106
34555OCT     C169109  14.089   4.324   2.867  0.3187 -0.2092  0.0896
34555OCT     C269110  13.677   4.497   2.592  0.1257 -0.1149 -0.4602
34556OCT     C169111  20.567   6.516  16.547 -0.2719  0.1516  0.0551
34556OCT     C269112  20.450   6.775  16.913 -0.1519  0.2600  0.1319
34557OCT     C169113  10.142  22.274  10.338 -0.1316  0.1518 -0.2636
34557OCT     C269114  10.387  22.552  10.586 -0.0579 -0.2661 -0.1626
34558OCT     C169115  13.734  11.009   1.519 -0.0258  0.1448  0.3648
34558OCT     C269116  13.511  11.372   1.497  0.1186  0.1194 -0.1555
34559OCT     C169117  18.863  23.451  20.517  0.1292  0.0894  0.2390
34559OCT     C269118  19.054  23.451  20.969 -0.0855 -0.1951 -0.3492
34560OCT     C169119  23.480   0.150   2.775  0.2520 -0.2151  0.2244
34560OCT     C269120   0.095  23.634   2.954 -0.0727  0.4922 -0.0963
34561OCT     C169121   7.805   7.691  16.795  0.1381 -0.1225  0.0226
34561OCT     C269122   7.429   7.416  16.724 -0.1863 -0.3290  0.2393
34562OCT     C169123   0.382   2.960  20.618 -0.1799  0.0515  0.1647
34562OCT     C269124   0.683   2.918  20.908 -0.1964 -0.3817 -0.0711
34563OCT     C169125   0.298  15.526  18.032  0.1165  0.2022 -0.1898
34563OCT     C269126   0.527  15.635  18.414 -0.2910 -0.0959  0.0544
34564OCT     C169127   4.357   9.424  16.750 -0.1511  0.0100  0.5180
34564OCT     C269128   3.879   9.531  16.802 -0.2740 -0.1590 -0.3727
34565OCT     C169129  11.155   9.039  22.737  0.1724 -0.2629 -0.0268
34565OCT     C269130  11.406   8.827  22.379  0.0419  0.2658 -0.1095
34566OCT     C169131   6.560  21.534   2.824  0.1141  0.2530 -0.0263
34566OCT     C269132   6.714  21.113   2.839 -0.1359  0.0846 -0.0714
34567OCT     C169133  18.255   4.070  21.150 -0.0991 -0.0694 -0.7769
34567OCT     C269134  18.203   4.462  20.901 -0.1310  0.0620  0.0084
34568OCT     C169135  23.037  22.656   8.993  0.1393  0.1086  0.0689
34568OCT     C269136  23.213  22.212   9.038 -0.0303 -0.1233 -0.0585
34569OCT     C169137   6.019   5.876  22.120  0.1700 -0.0226  0.2696
34569OCT     C269138   5.684   5.618  22.029  0.0820 -0.0894  0.0290
34570OCT     C169139   8.325  21.182   3.820  0.1879  0.1855 -0.2661
34570OCT     C269140   8.044  20.870   3.869  0.2854  0.1811 -0.0612
34571OCT     C169141   9.164  12.843   7.271  0.2342  0.1237 -0.4125
34571OCT     C269142   9.512  12.972   6.961  0.1792  0.3643  0.0478
34572OCT     C169143   5.125  21.262  22.826 -0.1533  0.2033 -0.2625
34572OCT     C269144   5.527  21.183  22.581  0.0716  0.1707 -0.2436
34573OCT     C169145  12.480  11.864  10.357 -0.0581 -0.2183  0.1982
34573OCT     C269146  12.678  11.567  10.700 -0.1719  0.1686  0.1865
34574OCT     C169147  10.620   1.396  12.233  0.2525 -0.0572 -0.0114
34574OCT     C269148  10.323   1.714  12.067  0.2659  0.2173 -0.0764
34575OCT     C169149  12.529  18.810  21.368 -0.1029 -0.0372  0.2573
34575OCT     C269150  12.234  18.647  21.729 -0.0146  0.0951 -0.1015
34576OCT     C169151  20.869  13.197  14.446  0.0171  0.2153  0.1108
34576OCT     C269152  21.300  13.178  14.218 -0.2223 -0.2993 -0.0953
34577OCT     C169153   7.079  15.845  14.035  0.0509  0.1285 -0.1767
34577OCT     C269154   7.125  16.251  13.860  0.0401 -0.2041 -0.2611
34578OCT     C169155  19.488  20.867   2.039  0.0698  0.6051  0.1107
34578OCT     C269156  19.369  20.915   1.624 -0.2135 -0.1471 -0.2759
34579OCT     C169157  22.185   7.164  20.816 -0.0596  0.2004 -0.2037
34579OCT     C269158  21.927   6.815  20.904  0.2851 -0.4281  0.0579
34580OCT     C169159  19.302   3.928  20.885 -0.1369 -0.2944  0.2227
34580OCT     C269160  19.728   3.914  20.833 -0.1425  0.2792  0.1948
34581OCT     C169161   6.915  18.158  12.637  0.2985  0.1877  0.1640
34581OCT     C269162   7.199  18.554  12.525  0.0314 -0.1588  0.1235
34582OCT     C169163   0.582  22.408   6.138  0.0483 -0.2701 -0.4716
34582OCT     C269164   0.627  21.965   6.209 -0.0650 -0.1210  0.1602
34583OCT     C169165  19.282   5.048  13.482 -0.0568 -0.4746  0.0968
34583OCT     C269166  19.590   4.921  13.128  0.0243 -0.1728  0.1033
34584OCT     C169167  19.382  18.428   2.955  0.1365 -0.1704  0.1668
34584OCT     C269168  19.151  18.647   3.297 -0.1028 -0.1402 -0.4545
34585OCT     C169169  23.063  15.500   4.701 -0.1936  0.1770  0.1258
34585OCT     C269170  22.788  15.785   4.715  0.1388  0.2779  0.4679
34586OCT     C169171   2.733  20.554   5.066  0.1004  0.0007 -0.0225
34586OCT     C269172   2.906  20.735   4.691 -0.0861 -0.0814 -0.2668
34587OCT     C169173  11.187   5.915  16.458 -0.1253 -0.0004  0.0017
34587OCT     C269174  10.872   6.167  16.204  0.0330  0.1570  0.3247
34588OCT     C169175  20.188  18.625  16.290 -0.0886  0.1804 -0.0011
34588OCT     C269176  20.579  18.565  16.538 -0.3287  0.0885  0.0784
34589OCT     C169177  11.319   5.608   7.879 -0.1889  0.1109  0.1725
34589OCT     C269178  11.493   5.462   7.499 -0.3053  0.1454  0.1585
34590OCT     C169179   9.573   9.796   9.612 -0.2312 -0.0050  0.3452
34590OCT     C269180   9.966   9.786   9.363  0.0558  0.2559  0.0796
34591OCT     C169181  22.970  19.096  15.807 -0.0148 -0.2497 -0.2875
34591OCT     C269182  23.165  19.483  15.614 -0.0033 -0.1057  0.1832
34592OCT     C169183  12.221   5.584   1.658 -0.2847 -0.0268 -0.1912
34592OCT     C269184  12.379   5.996   1.547 -0.0494  0.0643 -0.1128
34593OCT     C169185  18.555   1.057  19.040 -0.3928  0.0718  0.0750
34593OCT     C269186  18.778   1.431  19.257  0.0991  0.1804  0.0603
34594OCT     C169187  12.457   2.229   8.204  0.7136 -0.4960  0.0081
34594OCT     C269188  12.381   2.584   7.964 -0.3198 -0.2068 -0.0053
34595OCT     C169189   7.296  12.065   7.012 -0.3694  0.2973 -0.0680
34595OCT     C269190   7.206  12.216   7.458 -0.0074  0.2414 -0.2524
34596OCT     C169191  16.747  14.428  11.901 -0.3221 -0.1808  0.2693
34596OCT     C269192  17.146  14.279  11.999 -0.0440  0.2258  0.1864
34597OCT     C169193   0.308   8.370   8.255  0.2465  0.0471  0.0914
34597OCT     C269194   0.729   8.403   8.455  0.4612 -0.2772 -0.0103
34598OCT     C169195   2.204  23.542   6.852  0.2581  0.0416  0.0105
34598OCT     C269196   2.258  23.362   7.308 -0.1909 -0.4200 -0.1205
34599OCT     C169197  12.983   6.427  16.786  0.0054 -0.2326 -0.2070
34599OCT     C269198  12.664   6.371  16.438 -0.0875 -0.3431 -0.1193
34600OCT     C169199  17.513   2.523   6.310  0.0416  0.3247 -0.0141
34600OCT     C269200  17.127   2.279   6.477 -0.1739 -0.2820 -0.1697
34601OCT     C169201   0.806  11.190   3.272  0.1256  0.0673 -0.5479
34601OCT     C269202   1.171  10.953   3.149 -0.0698 -0.3364  0.0053
34602OCT     C169203   5.677  16.405   1.181  0.4326 -0.2295  0.2516
34602OCT     C269204   5.751  15.968   1.111  0.0632  0.0891 -0.3075
34603OCT     C169205   8.277   6.209  23.500 -0.2763  0.0608 -0.2031
34603OCT     C269206   8.663   5.987  23.518 -0.0096 -0.0896 -0.0312
34604OCT     C169207  19.443  16.382  14.093  0.2186  0.2537 -0.1333
34604OCT     C269208  19.718  16.390  13.726 -0.1538  0.2501 -0.3160
34605OCT     C169209  17.402  10.971  19.878  0.1509  0.2146 -0.4818
34605OCT     C269210  17.480  10.680  19.502  0.2403 -0.0205  0.5357
34606OCT     C169211   3.419   4.647  18.083  0.3182  0.0730  0.3038
34606OCT     C269212   3.672   5.040  18.196  0.2567  0.4402 -0.5318
34607OCT     C169213  19.556   9.202  13.668 -0.3998  0.1136  0.0274
34607OCT     C269214  19.826   8.948  13.445 -0.3477  0.0813 -0.0023
34608OCT     C169215  10.067   2.598   5.912  0.2387  0.1336 -0.0058
34608OCT     C269216  10.535   2.549   5.956 -0.1225 -0.1257 -0.0490
34609OCT     C169217   3.488  14.870  21.319  0.0819  0.1251 -0.0156
34609OCT     C269218   3.555  14.784  21.755 -0.2899 -0.2055 -0.2560
34610OCT     C169219  18.416  12.642   8.236  0.0278  0.1049 -0.0665
34610OCT     C269220  18.242  12.945   7.968 -0.3830 -0.0268  0.2602
34611OCT     C169221   2.589  19.353  13.390 -0.0639  0.2566 -0.0461
34611OCT     C269222   2.507  19.787  13.371 -0.0085 -0.1379  0.1108
34612OCT     C169223  14.597   3.722   1.434  0.1359  0.2459  0.0578
34612OCT     C269224  14.860   3.934   1.759  0.0407  0.0874  0.2442
34613OCT     C169225  16.156  11.969  14.204  0.0878 -0.1681  0.2469
34613OCT     C269226  16.624  11.800  14.239 -0.2912  0.3185 -0.0087
34614OCT     C169227  22.927   2.272  12.714 -0.4579 -0.0841 -0.1646
34614OCT     C269228  22.870   1.817  12.749 -0.3751 -0.3827  0.2455
34615OCT     C169229  20.304  22.869   4.924  0.1136 -0.2771 -0.2496
34615OCT     C269230  19.892  22.859   4.770 -0.0923 -0.0445  0.1735
34616OCT     C169231  20.527   3.108   1.247 -0.1040 -0.1518  0.2009
34616OCT     C269232  20.393   2.697   1.076 -0.1231  0.0483  0.3866
34617OCT     C169233  15.222   6.292  19.985  0.0475  0.0453 -0.1297
34617OCT     C269234  15.440   6.617  19.792 -0.3702  0.2375 -0.1078
34618OCT     C169235  20.908   4.457   0.174  0.0260 -0.0942 -0.2986
34618OCT     C269236  20.572   4.565   0.509  0.0925 -0.2079  0.2034
34619OCT     C169237   4.128  21.939  16.645 -0.1745 -0.2564 -0.0323
34619OCT     C269238   4.306  22.195  17.003 -0.0275  0.1354 -0.1830
34620OCT     C169239  21.769  13.412  23.196  0.1466 -0.1119  0.1941
34620OCT     C269240  21.317  13.211  23.160  0.1574  0.0579  0.5003
34621OCT     C169241   1.633   5.246   0.150 -0.1311  0.1219 -0.0861
34621OCT     C269242   1.483   4.945   0.493  0.0593 -0.1151  0.1233
34622OCT     C169243  20.505   0.747   5.450 -0.0920 -0.2998 -0.0552
34622OCT     C269244  20.435   0.641   5.904 -0.2920  0.0470  0.1378
34623OCT     C169245  10.276  18.976  21.784  0.0055 -0.0676 -0.2853
34623OCT     C269246  10.080  18.762  22.135 -0.1642 -0.1298 -0.1441
34624OCT     C169247   4.119   9.146  17.654 -0.2404  0.0618 -0.1520
34624OCT     C269248   4.465   8.955  17.855 -0.1683  0.1223 -0.0957
34625OCT     C169249   1.249   5.230  16.075 -0.2673  0.0053 -0.0637
34625OCT     C269250   1.345   4.976  15.698  0.2853  0.0737 -0.4958
34626OCT     C169251  19.327  17.468  17.643 -0.0260 -0.0445 -0.1534
34626OCT     C269252  19.623  17.228  17.871  0.0196  0.0287  0.0163
34627OCT     C169253  12.960   9.913  13.146  0.0441  0.2599 -0.4351
34627OCT     C269254  12.743  10.374  13.175 -0.2934 -0.2049  0.3444
34628OCT     C169255  12.988   2.292   3.072  0.2369  0.2721 -0.1067
34628OCT     C269256  13.150   2.651   2.879 -0.4055 -0.3893 -0.0660
34629OCT     C169257  11.583   3.294   6.910 -0.4418  0.0355  0.0682
34629OCT     C269258  11.974   3.485   7.071 -0.3043  0.0177  0.1356
34630OCT     C169259   3.261   8.088  21.820 -0.0950 -0.1009 -0.0074
34630OCT     C269260   3.468   7.764  21.553 -0.0258  0.0247 -0.0320
34631OCT     C169261   3.775  12.901   1.318  0.3766 -0.0621 -0.1228
34631OCT     C269262   3.586  13.242   1.537 -0.3400 -0.2109  0.1692
34632OCT     C169263  18.648   7.737  19.959  0.0635  0.1861  0.4165
34632OCT     C269264  18.308   7.562  20.254  0.2591  0.0580 -0.3299
34633OCT     C169265  19.069  12.605  15.386 -0.1951  0.0027  0.0089
34633OCT     C269266  18.674  12.475  15.564 -0.1096 -0.0126 -0.1602
34634OCT     C169267   4.308  16.535  20.516 -0.0681  0.0707 -0.0657
34634OCT     C269268   4.765  16.346  20.627  0.1111 -0.0014 -0.1172
34635OCT     C169269  11.601  12.733   9.155  0.1398 -0.0980 -0.0372
34635OCT     C269270  11.909  12.901   9.454 -0.1635 -0.1575  0.1963
34636OCT     C169271   5.596  19.500   7.366 -0.0491 -0.0835  0.2798
34636OCT     C269272   5.780  19.574   6.964  0.1346  0.1648  0.1697
34637OCT     C169273   9.335   1.873  22.533  0.0136 -0.1534  0.0721
34637OCT     C269274   9.550   2.304  22.602 -0.0380 -0.2077 -0.0393
34638OCT     C169275   8.054   9.574  11.428 -0.1093 -0.0486 -0.1702
34638OCT     C269276   8.101   9.831  11.795 -0.0165 -0.0439  0.1389
34639OCT     C169277  18.153  10.555  21.726 -0.1526 -0.2518  0.2095
34639OCT     C269278  18.213  10.938  21.437  0.2172  0.3064  0.1297
34640OCT     C169279   1.205  21.971   3.618 -0.1702 -0.0625 -0.0611
34640OCT     C269280   1.064  22.122   4.053 -0.0283 -0.0631  0.6059
34641OCT     C169281  20.040  22.264  13.350 -0.5264 -0.1749 -0.5094
34641OCT     C269282  20.056  22.353  12.886  0.0159  0.1928 -0.4396
34642OCT     C169283  13.034  10.716   6.897 -0.0968  0.3897 -0.2944
34642OCT     C269284  13.359  10.418   6.718  0.1430  0.1818 -0.1286
34643OCT     C169285   9.090  21.977   0.905  0.0385  0.0570  0.1407
34643OCT     C269286   9.018  22.450   0.897  0.6192  0.0590 -0.2276
34644OCT     C169287  17.250  21.575   1.563  0.3961 -0.2326 -0.6238
34644OCT     C269288  17.487  21.208   1.553 -0.2614  0.0356 -0.1409
34645OCT     C169289  20.292   4.344  14.203 -0.0250 -0.0707  0.0691
34645OCT     C269290  20.031   4.342  14.579  0.0876  0.0940  0.1131
34646OCT     C169291  17.837  22.081   4.357 -0.1344  0.2853 -0.0122
34646OCT     C269292  17.425  22.257   4.131  0.0123  0.2627  0.0155
34647OCT     C169293  13.889   3.929   1.942 -0.4691 -0.1898  0.4057
34647OCT     C269294  14.009   3.538   1.679 -0.2329  0.0243 -0.3018
34648OCT     C169295  17.739   6.905  13.367 -0.1645  0.1124  0.4229
34648OCT     C269296  17.460   7.228  13.132  0.0072 -0.1052  0.4000
34649OCT     C169297   6.236  12.320   8.885 -0.0738  0.0709 -0.0603
34649OCT     C269298   6.245  12.807   8.944  0.3377  0.5098 -0.3093
34650OCT     C169299  10.140   1.212  10.335  0.0171 -0.1281  0.2148
34650OCT     C269300  10.128   0.885  10.681  0.0011  0.4723  0.2242
34651OCT     C169301   0.251   4.130   0.162 -0.0643  0.0332 -0.1703
34651OCT     C269302  23.667   4.414  23.725  0.1352  0.0415 -0.3314
34652OCT     C169303   2.324  22.988  19.623  0.0962  0.4357 -0.5641
34652OCT     C269304   2.676  23.235  19.367 -0.4004 -0.0525  0.5089
34653OCT     C169305   4.624   7.097  14.705 -0.1115 -0.1249 -0.1338
34653OCT     C269306   4.539   7.362  15.055  0.0677  0.0335 -0.0351
34654OCT     C169307  12.548  20.584  10.221  0.2078 -0.0358 -0.2725
34654OCT     C269308  12.965  20.426  10.402  0.2212  0.1544  0.0899
34655OCT     C169309  22.549  11.419   2.018 -0.0509 -0.1393  0.4142
34655OCT     C269310  22.292  11.299   1.577 -0.1021 -0.0001  0.0369
34656OCT     C169311  20.335   5.856  20.980  0.0747  0.1029 -0.1180
34656OCT     C269312  20.581   5.423  20.954 -0.0128 -0.0847  0.1326
34657OCT     C169313   0.389   5.647  11.488 -0.1431 -0.3569 -0.0730
34657OCT     C269314   0.666   5.942  11.709  0.2319  0.3357 -0.1502
34658OCT     C169315   2.588   2.313  22.126 -0.2717  0.2086  0.0638
34658OCT     C269316   2.919   2.373  21.833 -0.0152 -0.5286 -0.1378
34659OCT     C169317  16.482  11.822   1.344  0.0235  0.0332 -0.0220
34659OCT     C269318  16.006  11.839   1.399 -0.1701  0.0517  0.0751
34660OCT     C169319   8.786  21.013  20.891 -0.2118 -0.4129  0.2365
34660OCT     C269320   8.540  20.608  20.906  0.0402 -0.1434  0.0077
34661OCT     C169321  10.857  12.376  17.978  0.0076 -0.2077  0.1377
34661OCT     C269322  10.898  12.827  18.133 -0.3661  0.1216  0.4892
34662OCT     C169323  11.706  11.934  22.919 -0.0764  0.1636 -0.1956
34662OCT     C269324  11.465  11.558  22.961  0.0210  0.0138  0.1499
34663OCT     C169325   5.806   2.551  22.207 -0.0007  0.3418  0.2015
34663OCT     C269326   6.303   2.675  22.278  0.3499  0.0703  0.0748
34664OCT     C169327  12.709  20.742  11.801 -0.2076  0.3284  0.1089
34664OCT     C269328  12.326  20.564  12.041  0.3260 -0.0052  0.0459
34665OCT     C169329   7.959  15.119   6.488  0.1903  0.1488 -0.0385
34665OCT     C269330   7.948  15.282   6.033  0.0410  0.1347  0.0215
34666OCT     C169331  20.359  22.061   8.982  0.4300  0.1635  0.4625
34666OCT     C269332  20.010  22.070   9.317 -0.0514  0.3483  0.1285
34667OCT     C169333  16.764   5.484   0.542  0.2971 -0.2494  0.0625
34667OCT     C269334  16.937   5.208   0.868 -0.2229  0.2818 -0.4115
34668OCT     C169335  20.369  20.365   0.793  0.0299  0.1265  0.3496
34668OCT     C269336  20.036  20.659   0.929  0.1115  0.2116  0.1978
34669OCT     C169337   4.044   0.699  11.570 -0.3460  0.2624  0.1052
34669OCT     C269338   3.710   1.065  11.541  0.0084 -0.1812  0.3557
34670OCT     C169339  14.683  10.434  16.995 -0.0050  0.3772  0.1502
34670OCT     C269340  14.643  10.113  17.340 -0.5065 -0.3779 -0.1143
34671OCT     C169341   9.295   9.484  11.674  0.1977 -0.0350 -0.0846
34671OCT     C269342   8.883   9.306  11.623 -0.0409 -0.0846 -0.2588
34672OCT     C169343   4.006   7.565   9.093  0.3307 -0.0619  0.2789
34672OCT     C269344   4.305   7.905   9.230  0.0404 -0.0196  0.0570
34673OCT     C169345   8.311   4.001  11.885  0.1670  0.0130  0.0426
34673OCT     C269346   8.675   4.262  12.106  0.3430  0.1295 -0.0229
34674OCT     C169347   2.644  19.293  23.376  0.1376  0.4840 -0.1289
34674OCT     C269348   2.710  19.701  23.530  0.1465  0.4420  0.1404
34675OCT     C169349   4.188   2.342   8.565 -0.1240  0.1794 -0.1567
34675OCT     C269350   4.053   2.219   8.154  0.0422  0.1380  0.0151
34676OCT     C169351   0.745  18.918  19.332 -0.3117 -0.0134 -0.2221
34676OCT     C269352   0.439  18.785  19.036 -0.0320 -0.1616 -0.1777
34677OCT     C169353  23.474   4.869  12.782  0.2951 -0.0834 -0.2535
34677OCT     C269354  23.489   4.412  12.925 -0.1466 -0.0830 -0.0298
34678OCT     C169355  18.624   7.194   8.280  0.2384 -0.1068 -0.0318
34678OCT     C269356  18.335   7.198   7.980  0.1864  0.0368  0.5516
34679OCT     C169357   7.455  12.684   2.465  0.1310 -0.2481  0.0827
34679OCT     C269358   7.625  12.754   2.026 -0.0700  0.0152  0.2847
34680OCT     C169359   4.239  23.600   8.045 -0.0380  0.1826 -0.2282
34680OCT     C269360   3.971  23.593   8.412 -0.1440 -0.1904 -0.1151
34681OCT     C169361   9.265   0.956  15.759 -0.4722  0.2795 -0.1195
34681OCT     C269362   9.448   1.366  15.861  0.0280  0.2028 -0.2111
34682OCT     C169363   6.778  20.971   4.909 -0.0586 -0.3058  0.1170
34682OCT     C269364   7.174  20.774   4.805  0.1845 -0.0734  0.1134
34683OCT     C169365   5.261  20.974   5.626 -0.1453  0.1982 -0.1472
34683OCT     C269366   4.831  21.066   5.719  0.0167  0.0887 -0.1558
34684OCT     C169367  10.328  14.508  15.069 -0.1336 -0.2127 -0.4361
34684OCT     C269368  10.032  14.221  15.313 -0.3301  0.2171 -0.2188
34685OCT     C169369  22.210  21.069  22.621  0.2014 -0.2103  0.4040
34685OCT     C269370  22.603  21.341  22.639  0.0396  0.0324  0.5777
34686OCT     C169371   9.196   5.365   6.667 -0.1543 -0.0606 -0.2967
34686OCT     C269372   9.157   5.736   6.408 -0.0645 -0.1995 -0.1623
34687OCT     C169373  11.910  13.412  14.288  0.0944 -0.1462  0.0790
34687OCT     C269374  11.449  13.566  14.429  0.2034  0.0636  0.3038
34688OCT     C169375   5.794  23.401  19.688 -0.4999  0.3848  0.0911
34688OCT     C269376   5.746  23.428  19.176  0.0307 -0.1662 -0.2093
34689OCT     C169377   4.307   9.779   6.451 -0.1454  0.5461 -0.0254
34689OCT     C269378   4.608   9.473   6.183 -0.0126 -0.0021 -0.3515
34690OCT     C169379  15.040   6.556   8.428 -0.1299  0.0463  0.1803
34690OCT     C269380  15.125   6.565   8.903  0.1126  0.1771 -0.1314
34691OCT     C169381  15.783  18.269  11.653 -0.2461 -0.1231  0.0124
34691OCT     C269382  16.100  18.004  11.540 -0.2478 -0.0715  0.2681
34692OCT     C169383   7.093   8.439  11.694  0.3390 -0.0054  0.3935
34692OCT     C269384   7.459   8.605  11.975 -0.0223 -0.2055  0.0511
34693OCT     C169385  17.244  14.799   1.768  0.1537 -0.0477  0.0047
34693OCT     C269386  16.763  14.728   1.798 -0.2245 -0.1159 -0.3184
34694OCT     C169387   6.092   6.235  13.054  0.0634 -0.0333  0.2666
34694OCT     C269388   5.788   6.637  12.913  0.3396 -0.0127  0.0096
34695OCT     C169389  22.607   5.146  22.374 -0.0612 -0.1610 -0.2998
34695OCT     C269390  22.512   4.723  22.388  0.2234 -0.1919  0.0426
34696OCT     C169391  16.834  22.338   4.342  0.1601 -0.0389  0.2065
34696OCT     C269392  16.839  22.785   4.178  0.1973 -0.1354  0.3998
34697OCT     C169393  11.942   4.843  18.936 -0.3983 -0.0021 -0.1412
34697OCT     C269394  12.129   4.582  19.325  0.1901 -0.0845  0.1656
34698OCT     C169395   7.489  17.682  21.748 -0.1229  0.1568 -0.6160
34698OCT     C269396   7.650  17.655  22.252 -0.2295  0.3194 -0.0465
34699OCT     C169397  19.753   2.230   6.180 -0.0060 -0.1043  0.2093
34699OCT     C269398  19.360   1.957   6.253  0.0410  0.0640 -0.1068
34700OCT     C169399  17.279   6.148   8.876  0.1294  0.1173 -0.2624
34700OCT     C269400  17.635   6.441   9.039 -0.1398  0.0039  0.1838
34701OCT     C169401  21.034  11.456  12.108 -0.2116  0.0333  0.2335
34701OCT     C269402  21.336  11.729  12.307 -0.1786  0.0186 -0.1217
34702OCT     C169403   8.143  20.240  15.169 -0.0252 -0.2109 -0.0329
34702OCT     C269404   8.298  20.384  14.728 -0.3079 -0.0189 -0.3783
34703OCT     C169405  10.587  16.453  23.408  0.0933  0.0692  0.0566
34703OCT     C269406  10.188  16.582  23.230 -0.0231  0.0942  0.4680
34704OCT     C169407  16.178  13.454   9.791 -0.2879 -0.2702 -0.3796
34704OCT     C269408  16.237  13.571  10.238 -0.4085 -0.1338  0.0915
34705OCT     C169409  19.022   1.561   1.602  0.1182  0.2968 -0.1173
34705OCT     C269410  19.120   1.928   1.908 -0.2199 -0.0960  0.1679
34706OCT     C169411  14.443   8.347  14.522  0.1796 -0.3433  0.0056
34706OCT     C269412  14.173   8.720  14.333 -0.0171  0.0778 -0.4722
34707OCT     C169413   4.632  14.792  16.602  0.2645  0.1486 -0.0845
34707OCT     C269414   4.412  14.383  16.476 -0.1289 -0.2846  0.0929
34708OCT     C169415  14.029  11.497   6.275  0.0230  0.3084  0.1250
34708OCT     C269416  13.619  11.352   6.034 -0.1328  0.2066  0.1026
34709OCT     C169417   5.621   1.028  17.601  0.0254 -0.2251 -0.4128
34709OCT     C269418   5.293   1.127  17.277 -0.2324 -0.1832  0.0644
34710OCT     C169419  21.257   3.769   1.311  0.2219  0.0843  0.4726
34710OCT     C269420  21.624   3.512   1.253  0.1854  0.0894 -0.0292
34711OCT     C169421  13.977  16.629  15.903  0.0965 -0.2478  0.0725
34711OCT     C269422  13.857  16.263  15.989  0.1632 -0.0634 -0.1341
34712OCT     C169423   3.372   8.271  20.362 -0.3088  0.2858 -0.1272
34712OCT     C269424   3.799   8.375  20.202 -0.0970 -0.1488  0.1581
34713OCT     C169425  15.688  12.434  18.865  0.4891  0.0868  0.1695
34713OCT     C269426  15.946  12.254  19.231 -0.0034 -0.1976 -0.0361
34714OCT     C169427  16.333   0.991  15.575  0.2471  0.0130 -0.0986
34714OCT     C269428  16.513   1.091  15.996  0.0970  0.1999 -0.1520
34715OCT     C169429   9.941   3.194  13.255 -0.2521  0.0155 -0.0860
34715OCT     C269430   9.605   3.278  13.578  0.0232  0.1530 -0.1573
34716OCT     C169431   7.691  16.691  20.853  0.2223  0.0504 -0.2229
34716OCT     C269432   7.464  16.268  20.739 -0.0126 -0.1272 -0.1032
34717OCT     C169433   5.575   8.361  12.961 -0.2949  0.1495 -0.2013
34717OCT     C269434   5.524   8.113  13.329  0.0993 -0.0825  0.3418
34718OCT     C169435  23.640  10.168  11.571  0.2206 -0.0424  0.0505
34718OCT     C269436   0.231  10.308  11.953  0.3245  0.2878  0.2920
34719OCT     C169437   9.706  16.826   8.757  0.0565 -0.1001 -0.2216
34719OCT     C269438   9.991  16.575   9.037  0.0395 -0.2419 -0.2545
34720OCT     C169439  22.013  23.697  21.055 -0.0585 -0.4076  0.2385
34720OCT     C269440  21.643  23.625  21.297 -0.2169  0.4210  0.1122
34721OCT     C169441  18.118  23.515  11.184 -0.2145 -0.1243 -0.0991
34721OCT     C269442  18.259  23.412  11.644  0.2236 -0.0525  0.0067
34722OCT     C169443  16.166  21.614   2.754 -0.1515  0.1341 -0.0601
34722OCT     C269444  16.282  22.101   2.657  0.0550  0.0411 -0.2997
34723OCT     C169445  12.923  21.580   9.030  0.5340 -0.3099  0.0165
34723OCT     C269446  13.143  21.385   9.407 -0.1374 -0.4533  0.1422
34724OCT     C169447   3.391   4.473  16.683  0.2684  0.2365 -0.2827
34724OCT     C269448   2.938   4.574  16.666  0.0536 -0.4109 -0.0090
34725OCT     C169449   7.109   4.416  14.239 -0.0570  0.0623 -0.1521
34725OCT     C269450   6.878   4.027  14.109  0.0988  0.2611  0.0189
34726OCT     C169451  22.687  11.587   4.440 -0.2730 -0.3201 -0.3061
34726OCT     C269452  23.145  11.701   4.238  0.1411  0.2524 -0.2362
34727OCT     C169453  17.466  23.298   9.181  0.0678  0.2937 -0.0204
34727OCT     C269454  17.331  23.686   9.398 -0.1072 -0.2007 -0.2120
34728OCT     C169455   8.513  19.434  13.543 -0.2567 -0.0573 -0.2153
34728OCT     C269456   8.501  19.257  13.123  0.0674 -0.0922  0.0234
34729OCT     C169457  20.642  20.876   4.666  0.3651  0.1106 -0.1873
34729OCT     C269458  20.951  20.616   4.843  0.1636  0.5070 -0.0624
34730OCT     C169459   2.418  16.523  19.679 -0.1559 -0.0486  0.3646
34730OCT     C269460   2.648  16.858  19.439  0.0874  0.0102 -0.3153
34731OCT     C169461  11.536  18.713  22.398 -0.2962  0.5237 -0.0885
34731OCT     C269462  11.666  18.500  22.016 -0.1732  0.1826 -0.2693
34732OCT     C169463   4.920   5.538  12.649  0.1983 -0.2411  0.3109
34732OCT     C269464   5.172   5.249  12.937 -0.0416 -0.1468 -0.0451
34733OCT     C169465   2.652  15.457   7.150 -0.2629  0.1567  0.3040
34733OCT     C269466   3.003  15.432   6.834 -0.1103 -0.1972 -0.1009
34734OCT     C169467   9.262  11.844   8.676 -0.1465 -0.2378  0.0249
34734OCT     C269468   9.443  11.943   9.048 -0.2570 -0.0161  0.0819
34735OCT     C169469   8.575  22.314  22.983 -0.2033 -0.3339  0.0076
34735OCT     C269470   8.564  21.831  23.035  0.1810 -0.2981  0.1887
34736OCT     C169471  18.663  15.935  14.848 -0.1581 -0.0861  0.0639
34736OCT     C269472  18.713  15.625  14.440  0.3384  0.2063 -0.0639
34737OCT     C169473   0.456   6.682  18.167  0.2517  0.0170 -0.0433
34737OCT     C269474   0.413   6.630  18.638  0.0157 -0.0448  0.0847
34738OCT     C169475  21.337  14.516  20.894 -0.1748 -0.0992 -0.3374
34738OCT     C269476  21.365  14.909  20.826 -0.0454 -0.2370  0.0017
34739OCT     C169477  16.629   5.744  10.165 -0.1488  0.2846 -0.0683
34739OCT     C269478  16.830   5.289  10.178  0.0520  0.0012 -0.0109
34740OCT     C169479  16.441  14.854   8.659 -0.0525 -0.0855 -0.2783
34740OCT     C269480  16.446  14.612   9.093  0.1790  0.0920 -0.0084
34741OCT     C169481   4.850   7.858  21.945  0.2312  0.2268 -0.1637
34741OCT     C269482   4.878   7.688  22.395 -0.1937 -0.0495  0.0198
34742OCT     C169483  17.862   3.668   8.027  0.5509 -0.3820 -0.2751
34742OCT     C269484  17.368   3.671   8.015  0.1363 -0.2183  0.0527
34743OCT     C169485  10.322  14.082  15.838  0.0560 -0.1677 -0.4507
34743OCT     C269486  10.264  14.532  15.633  0.2267 -0.1616  0.1849
34744OCT     C169487  21.237   5.878   2.129 -0.1656  0.1452  0.0739
34744OCT     C269488  21.229   5.426   2.251  0.0438 -0.2871 -0.1541
34745OCT     C169489  13.793  19.525  13.239 -0.3484 -0.2468 -0.0820
34745OCT     C269490  14.201  19.336  13.392 -0.2421 -0.2824 -0.1194
34746OCT     C169491  14.911   8.942  18.296 -0.0858 -0.4127  0.0951
34746OCT     C269492  15.149   9.002  17.895 -0.6520  0.3142 -0.2078
34747OCT     C169493  21.682   7.750   4.272  0.0142 -0.1949 -0.3551
34747OCT     C269494  21.952   7.524   3.945  0.2466 -0.3553  0.0114
34748OCT     C169495  16.193   7.390   2.551  0.0975  0.0758 -0.1103
34748OCT     C269496  16.399   7.429   2.129 -0.3241 -0.2706 -0.3967
34749OCT     C169497   5.989  15.122   5.647 -0.0674  0.0241 -0.3141
34749OCT     C269498   6.397  15.120   5.442 -0.2333  0.3100  0.0657
34750OCT     C169499   1.534   9.284  12.526 -0.5231  0.1924  0.1727
34750OCT     C269500   1.565   8.845  12.592 -0.1015  0.2700 -0.2128
34751OCT     C169501   1.792  12.939   3.866 -0.1359  0.1108  0.1099
34751OCT     C269502   2.211  12.881   4.104 -0.1098  0.0669 -0.4608
34752OCT     C169503  19.817  22.345  17.021  0.1152  0.0685  0.1249
34752OCT     C269504  20.181  22.111  16.902  0.4959 -0.1754  0.1643
34753OCT     C169505  22.528  20.047  15.700 -0.0698  0.6802  0.1018
34753OCT     C269506  22.468  20.450  15.939 -0.1087 -0.0874 -0.0131
34754OCT     C169507  23.367  10.518  18.703 -0.2921  0.0173 -0.0529
34754OCT     C269508  23.188  10.520  19.099 -0.2558 -0.2234  0.2863
34755OCT     C169509   4.721  16.202  10.803  0.6136  0.2078 -0.0638
34755OCT     C269510   5.113  16.362  10.748  0.0054 -0.2972 -0.1989
34756OCT     C169511  14.568  16.345  11.445 -0.1673 -0.2771 -0.0849
34756OCT     C269512  14.992  16.230  11.245 -0.0991  0.0558  0.1475
34757OCT     C169513   2.040  16.910  22.139  0.0347 -0.0645  0.0344
34757OCT     C269514   2.161  17.129  21.742  0.1115  0.2495 -0.2665
34758OCT     C169515  10.220   8.117  14.413 -0.2195 -0.3162  0.0239
34758OCT     C269516  10.511   7.778  14.387  0.0762 -0.0950 -0.1107
34759OCT     C169517  18.470  16.144  16.484  0.1640  0.2902  0.1100
34759OCT     C269518  18.263  16.295  16.890  0.1225 -0.0688  0.6567
34760OCT     C169519  17.189   5.107   7.285 -0.1549 -0.4118 -0.1690
34760OCT     C269520  17.631   4.918   7.161  0.3538 -0.1067  0.4234
34761OCT     C169521  17.369  20.160   0.696  0.1189 -0.0169 -0.0144
34761OCT     C269522  17.246  20.338   1.122 -0.0838  0.1666  0.5111
34762OCT     C169523   6.946  11.730  15.867  0.1956 -0.0901  0.2582
34762OCT     C269524   7.424  11.638  15.928  0.2213 -0.1844 -0.1911
34763OCT     C169525  13.068   1.714   9.571  0.0278 -0.0956 -0.1083
34763OCT     C269526  12.734   2.076   9.708 -0.1108 -0.0038  0.0890
34764OCT     C169527  17.425  13.694  15.786  0.1609 -0.1166  0.3438
34764OCT     C269528  17.621  13.368  15.516  0.0060 -0.1619  0.0552
34765OCT     C169529  22.829   0.871   4.879  0.0198 -0.0052  0.3265
34765OCT     C269530  22.942   0.904   4.432  0.0931  0.0106  0.1282
34766OCT     C169531  15.866  18.611   3.199  0.0450 -0.1987 -0.3783
34766OCT     C269532  15.467  18.695   2.960 -0.1576  0.1818 -0.1658
34767OCT     C169533   7.159  21.112   1.651 -0.2452 -0.0525  0.0950
34767OCT     C269534   7.479  20.747   1.592 -0.3575 -0.4244 -0.0415
34768OCT     C169535   5.024  20.410   4.987  0.0833 -0.4213  0.1003
34768OCT     C269536   5.337  20.101   5.229 -0.0098 -0.3543 -0.3075
34769OCT     C169537   2.685  18.913   4.733 -0.0498 -0.2544 -0.0613
34769OCT     C269538   3.041  19.156   4.551  0.3307 -0.0627 -0.0070
34770OCT     C169539   4.735  15.304   6.818  0.1844  0.0044 -0.2031
34770OCT     C269540   4.990  15.110   7.153 -0.0164  0.1458 -0.1367
34771OCT     C169541  22.505  17.727  21.416 -0.2769 -0.1199 -0.0282
34771OCT     C269542  22.813  17.687  21.140 -0.0891 -0.2947  0.0567
34772OCT     C169543   7.499  13.451   9.931 -0.0282  0.2079  0.0113
34772OCT     C269544   7.099  13.546   9.787  0.0947  0.1622 -0.0840
34773OCT     C169545   5.163   5.590   2.704 -0.2802 -0.0463  0.4878
34773OCT     C269546   5.506   5.446   3.056 -0.2853 -0.0653 -0.4085
34774OCT     C169547   2.866   7.463   3.390 -0.2868 -0.3704  0.3092
34774OCT     C269548   3.021   7.823   3.146  0.2830  0.0248  0.0681
34775OCT     C169549  19.506  14.035  13.722 -0.0533  0.0272  0.1871
34775OCT     C269550  19.608  14.482  13.883  0.0033  0.0763 -0.1177
34776OCT     C169551   2.801   7.896  13.309 -0.1001  0.1111 -0.2560
34776OCT     C269552   2.851   8.118  12.852 -0.0058 -0.2792 -0.1026
34777OCT     C169553  13.982  16.069  23.545  0.0460 -0.1663  0.2532
34777OCT     C269554  13.709  15.803  23.168  0.0275  0.3911 -0.2374
34778OCT     C169555  14.256  14.894  15.129  0.0875  0.0423 -0.1956
34778OCT     C269556  13.971  14.760  15.527 -0.0733 -0.1182  0.1413
34779OCT     C169557   9.880  23.040  12.774  0.0939 -0.1412 -0.2191
34779OCT     C269558   9.534  22.979  12.432  0.2042  0.0548 -0.0419
34780OCT     C169559  10.257  10.298  19.715 -0.1841  0.1566 -0.0066
34780OCT     C269560   9.936  10.087  19.472 -0.2062 -0.3223  0.5105
34781OCT     C169561  16.935   8.804   9.084 -0.2634  0.4437 -0.1824
34781OCT     C269562  17.088   9.032   9.495  0.4337 -0.2520  0.2611
34782OCT     C169563  12.102  16.022  22.724  0.0171 -0.0082 -0.2730
34782OCT     C269564  12.102  15.566  22.839  0.1962 -0.0832 -0.0691
34783OCT     C169565  15.658   6.281   6.365  0.1570 -0.1948 -0.6495
34783OCT     C269566  15.905   6.591   6.322 -0.0487 -0.0129 -0.2047
34784OCT     C169567   5.981  23.579   6.618 -0.3952 -0.1633 -0.2159
34784OCT     C269568   5.818  23.686   7.076 -0.0159  0.7631  0.0112
34785OCT     C169569  16.519   2.795  19.612  0.0722  0.2421 -0.0167
34785OCT     C269570  16.698   2.324  19.641 -0.4024  0.4148  0.2440
34786OCT     C169571  14.901  11.774  11.200 -0.2176  0.3555 -0.2648
34786OCT     C269572  15.369  11.745  11.306 -0.1299 -0.0346  0.1843
34787OCT     C169573  21.356  10.673  15.917 -0.0565 -0.0243  0.1232
34787OCT     C269574  21.032  10.314  15.820  0.1109 -0.2156  0.1496
34788OCT     C169575   5.064   3.816   4.006  0.1466  0.1955 -0.1629
34788OCT     C269576   5.427   3.701   3.811 -0.4697  0.5577  0.1622
34789OCT     C169577  21.182  23.382  23.421  0.0380  0.2640  0.0794
34789OCT     C269578  21.365  23.348   0.117 -0.0795  0.0147  0.0126
34790OCT     C169579  17.938   1.215  23.204  0.0630 -0.3333 -0.5692
34790OCT     C269580  18.057   1.393  22.837  0.1073  0.1772  0.2714
34791OCT     C169581  12.014   5.222   2.823  0.0057 -0.1200 -0.1028
34791OCT     C269582  11.712   4.875   2.896 -0.0484 -0.2237 -0.0508
34792OCT     C169583  21.806  17.404   8.272 -0.3246 -0.0007  0.0520
34792OCT     C269584  21.599  17.621   8.572 -0.0764 -0.4978  0.2309
34793OCT     C169585  17.476   8.027  21.848 -0.0302  0.1357 -0.1343
34793OCT     C269586  17.891   8.249  21.920  0.0136 -0.1513  0.1565
34794OCT     C169587  17.735   2.518  17.348  0.2234 -0.3534 -0.4180
34794OCT     C269588  17.372   2.285  17.335 -0.4309 -0.3869  0.0599
34795OCT     C169589  12.230  10.374  10.239 -0.0459  0.2164  0.2380
34795OCT     C269590  12.619  10.679  10.311  0.4270 -0.3210  0.0399
34796OCT     C169591   5.181  17.310  10.224 -0.1712 -0.0845 -0.1604
34796OCT     C269592   5.597  17.051  10.350 -0.0237 -0.1786 -0.2945
34797OCT     C169593  19.509   2.957  19.367 -0.2932  0.0813 -0.2635
34797OCT     C269594  19.759   2.573  19.226  0.1878 -0.0569 -0.0419
34798OCT     C169595   2.462  19.228  17.798  0.2209  0.0315  0.2141
34798OCT     C269596   2.560  19.662  17.764  0.0825 -0.1071  0.0928
34799OCT     C169597   1.379  14.055   9.327  0.0576  0.0148 -0.0996
34799OCT     C269598   1.073  14.409   9.297  0.0820  0.2409 -0.0605
34800OCT     C169599   8.609   6.491  21.570 -0.3418  0.1130 -0.1572
34800OCT     C269600   8.206   6.244  21.481  0.3259  0.1881  0.0741
34801OCT     C169601   1.290   4.538   3.243 -0.1518  0.1678 -0.0536
34801OCT     C269602   0.924   4.280   3.336 -0.2819  0.0322 -0.1988
34802OCT     C169603  17.023   7.411   7.318  0.1674 -0.6083  0.0814
34802OCT     C269604  17.122   6.922   7.284  0.1450 -0.3807 -0.3368
34803OCT     C169605  17.452  14.351  11.119  0.1015  0.2579  0.1931
34803OCT     C269606  17.108  14.284  10.881 -0.1190 -0.0459  0.1000
34804OCT     C169607  23.188   4.144   9.201  0.0434 -0.0961 -0.0403
34804OCT     C269608  23.499   4.474   9.372 -0.2968 -0.1095  0.2719
34805OCT     C169609   6.039   7.265   1.494  0.2253 -0.0901  0.1666
34805OCT     C269610   5.998   6.997   1.857  0.4112  0.0142  0.1126
34806OCT     C169611  11.104   7.690  14.347 -0.3796 -0.0892  0.2001
34806OCT     C269612  10.885   7.622  14.716 -0.1895 -0.0451  0.1897
34807OCT     C169613  17.022  23.628  18.836 -0.2933  0.1230 -0.0629
34807OCT     C269614  16.770  23.319  18.604 -0.0490 -0.2738 -0.1784
34808OCT     C169615  22.090  13.712  14.265  0.1632 -0.0059  0.4121
34808OCT     C269616  22.524  13.883  14.207  0.4449 -0.2293  0.0432
34809OCT     C169617  22.791  17.169  21.651  0.3124  0.1839  0.0003
34809OCT     C269618  22.646  17.231  21.227 -0.1417  0.1279 -0.1857
34810OCT     C169619  13.532  17.831  11.598 -0.3815  0.0677 -0.1987
34810OCT     C269620  13.194  17.497  11.578  0.3451 -0.0771  0.0745
34811OCT     C169621  19.190   4.180  11.065  0.1374 -0.1331 -0.2076
34811OCT     C269622  18.827   4.455  11.169 -0.1747  0.0542 -0.0863
34812OCT     C169623  17.297  13.412   7.395  0.1355 -0.0870  0.2078
34812OCT     C269624  17.445  13.488   6.933 -0.2276  0.2539  0.0565
34813OCT     C169625   6.170   8.817   8.034  0.1940 -0.1007 -0.1652
34813OCT     C269626   6.128   9.265   8.268  0.1906  0.6589  0.1489
34814OCT     C169627   6.649   4.119  12.376 -0.0733  0.0803  0.1440
34814OCT     C269628   7.027   3.879  12.339 -0.0511 -0.0469  0.4465
34815OCT     C169629  10.536  11.594  12.634  0.1011  0.0428 -0.1607
34815OCT     C269630  10.319  11.192  12.676  0.0013 -0.1141  0.0912
34816OCT     C169631   8.292  18.544   4.176 -0.2133  0.1874  0.0198
34816OCT     C269632   7.956  18.701   4.483  0.0784  0.0329 -0.1947
34817OCT     C169633   4.398   9.622  20.251 -0.1660  0.2523 -0.2403
34817OCT     C269634   4.324   9.296  20.557  0.2206 -0.1045  0.1632
34818OCT     C169635  16.083   6.199  14.815 -0.1931  0.0119  0.0474
34818OCT     C269636  16.489   6.350  14.850  0.1261 -0.1501  0.2675
34819OCT     C169637   5.597   2.899  14.999 -0.0596  0.1628 -0.1681
34819OCT     C269638   6.067   2.836  14.785  0.3006 -0.2188 -0.3748
34820OCT     C169639   6.091  23.731  23.135  0.0491 -0.1540  0.1100
34820OCT     C269640   5.631  23.520  23.128 -0.0860  0.0242  0.3254
34821OCT     C169641  11.685  23.123   8.596  0.0751 -0.0807  0.1938
34821OCT     C269642  11.580  23.588   8.594 -0.3698  0.1604  0.2496
34822OCT     C169643   8.139  14.798  19.086 -0.0951 -0.2085  0.1075
34822OCT     C269644   8.354  14.450  18.895 -0.3110 -0.0133 -0.0563
34823OCT     C169645  18.839  15.682   9.297  0.2078  0.4115 -0.3149
34823OCT     C269646  18.752  15.316   9.101 -0.2732 -0.1575  0.0283
34824OCT     C169647  18.135  10.380   8.216  0.1943 -0.0654 -0.2400
34824OCT     C269648  18.135   9.959   8.100 -0.0070 -0.0625  0.4676
34825OCT     C169649  23.500   3.495   3.158  0.0613  0.1275 -0.0049
34825OCT     C269650  23.451   3.564   3.552 -0.4163  0.4914  0.0357
34826OCT     C169651  18.319   1.474  14.965  0.0307 -0.1221  0.3024
34826OCT     C269652  18.689   1.602  14.699 -0.1588  0.0340  0.0691
34827OCT     C169653  20.822   1.216  19.574  0.1465 -0.3489 -0.1295
34827OCT     C269654  20.853   1.673  19.738  0.0542 -0.0074  0.1707
34828OCT     C169655   6.067  12.817  11.687 -0.0049 -0.0636 -0.0457
34828OCT     C269656   6.360  13.203  11.668 -0.3999  0.3351 -0.2551
34829OCT     C169657   8.268  23.276   9.347 -0.0006  0.1372 -0.1176
34829OCT     C269658   8.553  23.101   9.625  0.0601  0.0529 -0.0508
34830OCT     C169659   7.819  16.038  16.570 -0.4987 -0.0080  0.1185
34830OCT     C269660   7.456  16.018  16.297  0.3408 -0.2250 -0.3043
34831OCT     C169661  16.729   9.693  21.077 -0.1164 -0.1865  0.1534
34831OCT     C269662  16.689  10.112  21.355  0.1114  0.1743  0.0642
34832OCT     C169663  17.445  18.631   4.116  0.4482  0.3891 -0.3909
34832OCT     C269664  17.616  18.798   3.762 -0.0847  0.0842  0.0281
34833OCT     C169665  11.099  10.687  16.546 -0.1536 -0.0932 -0.1470
34833OCT     C269666  11.536  10.777  16.692  0.0236  0.1140  0.1759
34834OCT     C169667  18.439   6.819   1.974 -0.2054  0.0983  0.0506
34834OCT     C269668  18.573   6.941   2.385  0.2060 -0.0867 -0.1445
34835OCT     C169669  11.463  10.253   8.201 -0.0542  0.1639 -0.5580
34835OCT     C269670  11.346  10.164   7.815  0.3268  0.1334  0.1081
34836OCT     C169671  10.316  18.905   2.370 -0.1190  0.1185 -0.0790
34836OCT     C269672  10.663  19.190   2.500 -0.0850 -0.0090  0.0640
34837OCT     C169673  19.306  19.802  17.084  0.1102 -0.1473 -0.1142
34837OCT     C269674  19.094  20.047  16.682 -0.1476  0.0669 -0.0034
34838OCT     C169675  12.145  10.752  20.711  0.2915 -0.0736  0.3002
34838OCT     C269676  12.066  11.144  20.481  0.1579  0.2642 -0.1552
34839OCT     C169677  21.619   4.146   0.317  0.0776 -0.2289 -0.1298
34839OCT     C269678  21.232   3.957   0.315 -0.0210 -0.1133  0.1862
34840OCT     C169679   3.139  20.059  11.588  0.0020  0.4702  0.2080
34840OCT     C269680   3.070  19.883  11.984 -0.0828  0.1659 -0.1361
34841OCT     C169681  18.438   4.513   1.899 -0.4988  0.1399 -0.0298
34841OCT     C269682  18.125   4.113   1.887  0.1063 -0.2087  0.1044
34842OCT     C169683  11.949  18.142  22.783  0.1460  0.2095  0.1710
34842OCT     C269684  12.249  17.987  22.455 -0.2459  0.0388  0.2888
34843OCT     C169685   3.219   9.283   7.259 -0.0571 -0.1277  0.3402
34843OCT     C269686   2.900   9.511   7.445  0.4188 -0.0547  0.1799
34844OCT     C169687   5.241  10.504  20.732  0.3568 -0.1833 -0.1704
34844OCT     C269688   5.557  10.134  20.698  0.0221  0.0599  0.1285
34845OCT     C169689  14.270  15.121  18.073 -0.1263 -0.1132 -0.2235
34845OCT     C269690  14.302  14.844  17.699  0.1592  0.2050 -0.1692
34846OCT     C169691  16.743   4.928   0.530 -0.3314  0.2595  0.2118
34846OCT     C269692  16.895   4.459   0.468  0.3815 -0.4271 -0.0306
34847OCT     C169693  21.914  22.046   2.624 -0.2713  0.1513 -0.0653
34847OCT     C269694  21.744  21.625   2.818 -0.2367  0.1486 -0.1187
34848OCT     C169695  14.101  13.277  23.531 -0.0529 -0.1028  0.2677
34848OCT     C269696  14.436  13.564  23.362  0.1805  0.2373 -0.1193
34849OCT     C169697  11.785   3.065   9.551  0.0856 -0.3806  0.0928
34849OCT     C269698  11.703   2.638   9.774 -0.2554  0.4114 -0.1346
34850OCT     C169699   6.485  14.559   6.883 -0.2353  0.0293 -0.2152
34850OCT     C269700   6.611  14.867   7.191 -0.0327 -0.1654  0.1570
34851OCT     C169701  20.705   6.110  12.293  0.0455  0.3479 -0.1470
34851OCT     C269702  20.738   5.682  12.532  0.2347  0.0532  0.1386
34852OCT     C169703   2.775   6.571  23.520 -0.1992 -0.0692  0.1486
34852OCT     C269704   3.036   6.969  23.642 -0.0095 -0.2598  0.1281
34853OCT     C169705   4.038   1.437   7.475  0.0727 -0.0528 -0.7357
34853OCT     C269706   3.777   1.498   7.087  0.0600 -0.0885 -0.0291
34854OCT     C169707  17.837   0.708  20.550 -0.0557  0.1580 -0.4290
34854OCT     C269708  17.830   0.457  20.201  0.0095  0.0198  0.1648
34855OCT     C169709  11.452  17.679  13.231 -0.0494 -0.1487  0.2460
34855OCT     C269710  11.111  17.653  12.931  0.3739  0.3971  0.2421
34856OCT     C169711  11.699  10.976  12.844  0.1359 -0.0040  0.1570
34856OCT     C269712  11.911  10.586  12.521 -0.1756 -0.1613 -0.0942
34857OCT     C169713   7.979   2.778  19.595  0.2653 -0.0218 -0.3563
34857OCT     C269714   8.397   2.836  19.745  0.2284  0.0994 -0.0298
34858OCT     C169715  11.859  17.807  23.148  0.2343 -0.0641  0.5475
34858OCT     C269716  11.914  17.604  22.706 -0.0905  0.0891  0.1523
34859OCT     C169717   5.590  13.781   5.316 -0.0954 -0.1474  0.2492
34859OCT     C269718   5.299  13.432   5.361 -0.2675 -0.1945  0.2089
34860OCT     C169719   4.618   8.245  23.223  0.2089 -0.1091  0.2020
34860OCT     C269720   4.241   8.050  23.086 -0.2161 -0.1960  0.2169
34861OCT     C169721  22.248  23.436   8.355 -0.1603 -0.3129 -0.1631
34861OCT     C269722  22.083  23.428   7.931 -0.0670 -0.2384 -0.0630
34862OCT     C169723   2.421  16.448  22.844 -0.0249 -0.0154  0.3660
34862OCT     C269724   2.414  16.064  22.517 -0.0795 -0.0568 -0.2139
34863OCT     C169725   2.601  10.788  14.027 -0.0344 -0.0259 -0.0086
34863OCT     C269726   2.979  10.889  14.275 -0.1061 -0.0518 -0.0905
34864OCT     C169727  10.010   2.377  13.816  0.3037 -0.1427 -0.2719
34864OCT     C269728   9.750   2.748  13.700  0.2683  0.0110  0.3619
34865OCT     C169729   0.990  10.337   9.554  0.0178 -0.1372 -0.3021
34865OCT     C269730   1.068  10.649   9.895  0.2050  0.2321  0.3706
34866OCT     C169731   2.523   0.927  12.186 -0.0330 -0.3106  0.3334
34866OCT     C269732   2.766   1.213  12.424 -0.2203  0.2352  0.0926
34867OCT     C169733   7.964  19.126   0.114  0.2585 -0.0158  0.1154
34867OCT     C269734   7.985  18.750   0.334 -0.1691  0.1625 -0.1555
34868OCT     C169735  10.586  23.022   4.586  0.1278  0.0249 -0.0428
34868OCT     C269736  10.606  23.191   4.148 -0.1872  0.2887  0.0617
34869OCT     C169737   7.140   6.966  12.526  0.3675  0.2201  0.2347
34869OCT     C269738   7.607   6.928  12.489  0.0536  0.0586  0.0392
34870OCT     C169739  16.522  13.131   3.813 -0.0584  0.1913  0.2322
34870OCT     C269740  16.384  13.329   4.222  0.1684  0.1152  0.4937
34871OCT     C169741   1.123  18.931  20.336 -0.4515  0.0791  0.2280
34871OCT     C269742   1.272  18.560  20.521  0.1936 -0.2970  0.2029
34872OCT     C169743   7.842  13.275  13.916 -0.0905  0.0468  0.1282
34872OCT     C269744   8.287  13.411  13.726 -0.0275 -0.0766 -0.2075
34873OCT     C169745  23.459   7.657  16.955  0.0029 -0.0628  0.5479
34873OCT     C269746   0.155   7.732  17.093 -0.0323  0.1146 -0.1678
34874OCT     C169747   8.428  10.777   3.264 -0.3236  0.0855 -0.1414
34874OCT     C269748   8.394  10.365   3.448  0.1349 -0.2096  0.0991
34875OCT     C169749   3.006  14.771  17.787 -0.5506 -0.1964  0.1864
34875OCT     C269750   3.374  14.979  17.486 -0.1549 -0.0616  0.1708
34876OCT     C169751  15.379   8.291   1.815  0.0135 -0.0835  0.0867
34876OCT     C269752  15.758   7.982   1.986  0.0354 -0.0070 -0.0157
34877OCT     C169753   2.746  11.905  13.632  0.3283 -0.3779  0.1192
34877OCT     C269754   2.571  12.150  13.290 -0.1688  0.5252  0.1472
34878OCT     C169755  18.166  22.225  13.743  0.2642 -0.1593 -0.1276
34878OCT     C269756  17.857  21.881  13.780  0.1929 -0.0488 -0.1865
34879OCT     C169757  14.354  15.698  10.574  0.2012 -0.1490  0.2473
34879OCT     C269758  14.675  15.929  10.303 -0.0500  0.1739 -0.0320
34880OCT     C169759  17.007   8.262  13.831 -0.1262  0.0222  0.0284
34880OCT     C269760  16.695   8.044  14.049  0.2539  0.0682 -0.4096
34881OCT     C169761  20.335  20.415   4.948  0.3022 -0.1172 -0.0405
34881OCT     C269762  20.795  20.252   5.056  0.2337  0.0633 -0.2071
34882OCT     C169763  10.955  19.291  19.325  0.1743  0.0357  0.2154
34882OCT     C269764  10.797  19.670  19.118  0.0841  0.0275 -0.0663
34883OCT     C169765   0.825  13.815   4.249 -0.0331  0.0309 -0.0677
34883OCT     C269766   0.656  14.206   4.089  0.4517  0.2759 -0.0009
34884OCT     C169767  10.266  18.961  22.827 -0.2454  0.0208 -0.0944
34884OCT     C269768  10.224  19.130  22.400  0.0165 -0.0186  0.2769
34885OCT     C169769   9.014   4.945  20.656 -0.1877  0.4131 -0.0112
34885OCT     C269770   8.827   5.118  21.028  0.2871 -0.1626 -0.0330
34886OCT     C169771   9.927  23.739  11.130 -0.0640  0.1973  0.0995
34886OCT     C269772   9.495  23.509  11.056  0.0477 -0.0112  0.1501
34887OCT     C169773  14.047  21.882  23.482 -0.0071 -0.1630  0.1053
34887OCT     C269774  13.667  21.563  23.455 -0.3357  0.1365 -0.0005
34888OCT     C169775   9.075   3.472  14.525  0.0855 -0.1929 -0.0480
34888OCT     C269776   8.721   3.618  14.227  0.0309 -0.0719 -0.2661
34889OCT     C169777   9.138   7.292  13.552 -0.1372 -0.1082  0.0287
34889OCT     C269778   9.096   6.853  13.328 -0.3463 -0.0885 -0.0921
34890OCT     C169779  23.470   8.507  13.541  0.1018 -0.1012  0.0127
34890OCT     C269780  23.477   8.790  13.161 -0.2818  0.0325  0.0203
34891OCT     C169781  18.726  16.852  15.983 -0.0724  0.0361  0.4941
34891OCT     C269782  18.690  16.415  16.149 -0.1891  0.0478  0.1237
34892OCT     C169783   1.200  13.719  15.941  0.1576  0.2730 -0.2049
34892OCT     C269784   1.320  13.276  15.786 -0.0024 -0.1261  0.0163
34893OCT     C169785   0.476   2.572  16.537  0.3435 -0.3925  0.0386
34893OCT     C269786   0.368   2.695  16.101  0.2158 -0.1146 -0.0273
34894OCT     C169787  22.464  19.569  19.943 -0.2584  0.1814 -0.1208
34894OCT     C269788  22.287  19.939  20.104  0.0317  0.0621 -0.1772
34895OCT     C169789   6.846  14.159  23.736  0.0748 -0.0761  0.0807
34895OCT     C269790   6.999  13.770   0.203  0.1228 -0.2495  0.1521
34896OCT     C169791   3.456  12.123   7.478 -0.0452 -0.2655 -0.3721
34896OCT     C269792   3.064  12.188   7.199  0.1865 -0.0980 -0.0576
34897OCT     C169793   3.630   4.221  19.646  0.1625  0.3455  0.3251
34897OCT     C269794   3.253   4.078  19.460 -0.0035  0.1773 -0.2702
34898OCT     C169795   8.001   5.393  15.784  0.2842 -0.0439  0.0554
34898OCT     C269796   7.980   5.889  15.647  0.1353  0.0753  0.1707
34899OCT     C169797  23.496   5.116  14.793 -0.0254  0.1729  0.0319
34899OCT     C269798  23.133   5.379  14.974  0.0314 -0.2013  0.0353
34900OCT     C169799  19.117   6.365   8.018  0.1459  0.1012  0.1298
34900OCT     C269800  19.303   6.201   7.616 -0.0110 -0.1924  0.1341
34901OCT     C169801  21.406  15.714  16.609 -0.0311  0.0508  0.1295
34901OCT     C269802  21.071  15.649  16.241 -0.3102 -0.0500 -0.0951
34902OCT     C169803  21.107  14.343   3.688  0.1762 -0.0923  0.1796
34902OCT     C269804  21.128  14.670   3.345 -0.1329 -0.0414 -0.0822
34903OCT     C169805  18.127  19.565   5.035 -0.0418 -0.0202 -0.3093
34903OCT     C269806  17.760  19.711   5.352  0.1514  0.0946  0.1367
34904OCT     C169807   2.922  19.489  11.572 -0.2566  0.1213  0.4812
34904OCT     C269808   2.594  19.852  11.588 -0.1126 -0.1559  0.0247
34905OCT     C169809  10.299   9.585  13.851  0.4516  0.0135 -0.1030
34905OCT     C269810   9.994   9.164  13.831 -0.4725 -0.2297  0.0132
34906OCT     C169811   1.637  23.612  21.450  0.1240  0.0947 -0.1694
34906OCT     C269812   1.423   0.289  21.524  0.0698  0.1929  0.0997
34907OCT     C169813  17.083   8.639   4.557 -0.1283  0.1284 -0.2243
34907OCT     C269814  16.872   8.205   4.417  0.0101  0.1561  0.3386
34908OCT     C169815  14.889  20.444   1.388  0.2480  0.2167 -0.2268
34908OCT     C269816  15.308  20.482   1.481  0.2483 -0.0700 -0.0711
34909OCT     C169817  11.997   9.211   8.862 -0.1023 -0.3151 -0.0223
34909OCT     C269818  11.765   8.785   8.970 -0.0318  0.2114  0.1281
34910OCT     C169819  15.833   4.290   1.831  0.0402  0.0659  0.0566
34910OCT     C269820  15.745   4.221   2.307  0.4506  0.5530  0.1536
34911OCT     C169821   0.591   1.770  23.439 -0.3914  0.1163 -0.4016
34911OCT     C269822   0.167   1.931  23.263 -0.1009 -0.3066  0.0991
34912OCT     C169823  17.473  20.447  21.173  0.3997 -0.2411 -0.2937
34912OCT     C269824  17.862  20.696  21.283 -0.1714  0.3311 -0.5630
34913OCT     C169825  21.474   2.004   3.885  0.0868 -0.3010 -0.0878
34913OCT     C269826  21.959   2.203   3.930  0.3417  0.0045  0.0593
34914OCT     C169827   3.801  21.671   0.093  0.0088 -0.3339 -0.1901
34914OCT     C269828   3.393  21.860   0.274 -0.2661  0.2556  0.0799
34915OCT     C169829   5.293   1.009  12.189  0.0107  0.0605 -0.0159
34915OCT     C269830   5.390   1.295  11.808  0.0941 -0.0191 -0.1448
34916OCT     C169831   4.419  18.338  20.462  0.3059  0.0508 -0.3383
34916OCT     C269832   4.664  18.098  20.244 -0.0418 -0.0764  0.2372
34917OCT     C169833   3.228  17.352  14.324  0.3925  0.0287  0.1042
34917OCT     C269834   2.733  17.431  14.278 -0.2675 -0.0434 -0.2218
34918OCT     C169835  14.192  22.344  23.296  0.0853 -0.2101 -0.1694
34918OCT     C269836  13.754  22.324  23.495  0.0290  0.0023  0.2186
34919OCT     C169837   4.927   1.381  10.809 -0.0736  0.0255  0.0436
34919OCT     C269838   4.872   0.958  10.831  0.2566  0.3470  0.2965
34920OCT     C169839   6.764   0.392   9.689 -0.1951  0.2183 -0.2063
34920OCT     C269840   6.475   0.533  10.021 -0.2032 -0.0465 -0.1087
34921OCT     C169841  13.824   4.090   9.793  0.1546 -0.2147 -0.1795
34921OCT     C269842  13.513   4.234   9.547 -0.1494  0.2560  0.0117
34922OCT     C169843  12.126  14.728  22.607  0.2160  0.1348  0.0072
34922OCT     C269844  12.276  14.575  22.178 -0.1766 -0.0702 -0.0994
34923OCT     C169845  10.859   2.208  11.596 -0.2554 -0.1649  0.0852
34923OCT     C269846  10.931   1.808  11.858 -0.0253  0.2162  0.1246
34924OCT     C169847  11.895  16.084  11.639  0.1678 -0.2408 -0.4899
34924OCT     C269848  11.825  16.046  12.070 -0.1911  0.0350 -0.1712
34925OCT     C169849  16.913  16.204   8.766  0.0481  0.0616 -0.0317
34925OCT     C269850  17.003  16.077   8.299  0.1222 -0.0164 -0.1664
34926OCT     C169851   0.669  16.690   8.610  0.0213  0.1992  0.3966
34926OCT     C269852   0.817  16.387   8.299 -0.2010 -0.1880  0.2506
34927OCT     C169853  13.341  17.612  23.351 -0.0297 -0.1874  0.0402
34927OCT     C269854  13.143  17.904  22.974  0.3343 -0.2015 -0.1916
34928OCT     C169855  17.993  16.642  13.089  0.0855 -0.5434 -0.1923
34928OCT     C269856  17.798  16.661  12.742  0.1605  0.2964  0.0502
34929OCT     C169857  10.910   5.904  10.248  0.1880 -0.2497  0.1374
34929OCT     C269858  10.792   6.321  10.190 -0.0441 -0.1238 -0.1068
34930OCT     C169859  15.646  13.366  18.960 -0.2883 -0.0340 -0.2284
34930OCT     C269860  15.747  13.260  19.420  0.2378 -0.1624 -0.2780
34931OCT     C169861  19.681  23.399  15.905  0.3122  0.2826 -0.1004
34931OCT     C269862  19.959  23.050  15.859  0.1395  0.3471  0.4866
34932OCT     C169863  23.536  10.429   6.889 -0.2153  0.0419  0.0457
34932OCT     C269864  23.605  10.156   6.501  0.2321  0.2083  0.2427
34933OCT     C169865  23.076  15.306   3.196  0.0070 -0.0568 -0.1127
34933OCT     C269866  23.509  15.301   3.386 -0.0491  0.0573 -0.2181
34934OCT     C169867   5.627   2.853  17.698 -0.0850  0.3104  0.0796
34934OCT     C269868   5.915   2.537  17.709 -0.2008 -0.0807 -0.1804
34935OCT     C169869  15.757   2.821  14.524  0.3724  0.0541 -0.1136
34935OCT     C269870  15.494   2.708  14.134  0.0196  0.2744 -0.1587
34936OCT     C169871   0.673   3.741  18.795 -0.0955  0.3736 -0.4914
34936OCT     C269872   0.290   3.771  19.031 -0.0190 -0.1970 -0.1813
34937OCT     C169873   3.038  15.978  14.144  0.0420  0.0510  0.0524
34937OCT     C269874   3.052  16.422  14.306  0.0962  0.4244  0.0137
34938OCT     C169875   2.337   4.529  14.333 -0.0148 -0.1206 -0.3447
34938OCT     C269876   1.898   4.603  14.454  0.0250  0.1156  0.0346
34939OCT     C169877   9.570   6.943  20.175  0.4141  0.0152  0.0866
34939OCT     C269878   9.258   7.239  19.994  0.2311  0.0088  0.2545
34940OCT     C169879   0.539  19.721   0.311 -0.0649 -0.3922  0.0059
34940OCT     C269880   0.887  19.502   0.584  0.1981 -0.0361 -0.0819
34941OCT     C169881   0.216   9.861   0.934  0.1546 -0.0146  0.2490
34941OCT     C269882  23.563  10.017   0.723  0.1996 -0.2307 -0.1410
34942OCT     C169883  21.292  16.458  22.397  0.3520  0.1285  0.1429
34942OCT     C269884  21.604  16.204  22.366 -0.1468 -0.1302  0.2957
34943OCT     C169885  16.582   7.939  13.112  0.0148  0.0585 -0.2110
34943OCT     C269886  16.977   8.059  12.831  0.1931  0.0104 -0.0330
34944OCT     C169887   4.944  15.946  12.890  0.1065 -0.2026  0.0687
34944OCT     C269888   5.322  16.121  12.626  0.1659  0.1218 -0.0668
34945OCT     C169889   2.280   2.318   5.007  0.2457  0.0183  0.3611
34945OCT     C269890   2.724   2.216   4.948  0.1402 -0.1308  0.5114
34946OCT     C169891  21.090   7.175   4.243  0.0456 -0.0729 -0.0920
34946OCT     C269892  21.237   7.297   4.688  0.0251 -0.2451 -0.0387
34947OCT     C169893  16.992  21.525   9.253 -0.2375 -0.3091  0.0756
34947OCT     C269894  17.227  21.155   9.208  0.3272  0.2142 -0.2228
34948OCT     C169895   7.437   9.322  18.062 -0.0686 -0.2524 -0.1290
34948OCT     C269896   7.769   9.690  17.985  0.2800 -0.5210  0.0961
34949OCT     C169897  13.745  18.487   1.678  0.1899  0.1523  0.1336
34949OCT     C269898  13.484  18.593   1.256 -0.1548  0.2105  0.0623
34950OCT     C169899  17.839  18.352   3.941 -0.0749  0.3383 -0.2005
34950OCT     C269900  17.848  17.970   3.744 -0.0067 -0.2038 -0.2215
34951OCT     C169901   8.365   2.970  11.732  0.0169  0.5448 -0.4937
34951OCT     C269902   8.589   2.642  11.527  0.0298 -0.1595 -0.0811
34952OCT     C169903  12.425  13.017  16.713  0.0716  0.0377  0.0538
34952OCT     C269904  12.015  13.258  16.636  0.1054 -0.1285  0.3028
34953OCT     C169905   6.300   1.945  22.790 -0.1266 -0.0738  0.1027
34953OCT     C269906   6.072   1.943  23.158  0.0111  0.0576 -0.0291
34954OCT     C169907   2.027  10.639  21.287  0.1577  0.2031  0.0930
34954OCT     C269908   2.366  10.337  21.376  0.1016  0.0364  0.3322
34955OCT     C169909   4.426   0.185  11.244 -0.0165 -0.1224  0.1623
34955OCT     C269910   4.583   0.363  10.825 -0.1077  0.1745 -0.1581
34956OCT     C169911   4.678  17.940   9.155  0.0502  0.0759  0.1772
34956OCT     C269912   4.765  17.924   9.627  0.2911  0.0174 -0.1146
34957OCT     C169913   8.109  12.390  13.763  0.0172 -0.0069 -0.0577
34957OCT     C269914   7.713  12.150  13.815  0.0428 -0.0911 -0.2031
34958OCT     C169915  15.144   3.071  13.966 -0.0447  0.1791  0.3450
34958OCT     C269916  14.784   3.173  13.780  0.2905 -0.0200  0.1479
34959OCT     C169917   0.455   5.683   5.588  0.0926  0.1642  0.1891
34959OCT     C269918   0.335   5.964   5.977 -0.1745 -0.1512  0.0171
34960OCT     C169919  18.461   5.896   3.538  0.0447 -0.4115 -0.0806
34960OCT     C269920  18.315   6.339   3.456 -0.0731  0.0082 -0.1672
34961OCT     C169921  18.186  12.931   6.741  0.0970  0.0355 -0.0677
34961OCT     C269922  18.046  12.827   7.178  0.2646 -0.0954 -0.2971
34962OCT     C169923  11.634  18.950   4.676 -0.2904 -0.1890  0.1035
34962OCT     C269924  12.019  19.134   4.893  0.2432  0.0301  0.3541
34963OCT     C169925   1.944   4.819  15.024 -0.1153 -0.1642  0.3477
34963OCT     C269926   2.386   4.815  14.833  0.2113  0.1568  0.2247
34964OCT     C169927  16.639  12.701  18.524 -0.1178 -0.1666  0.1224
34964OCT     C269928  16.755  12.627  18.090 -0.0287  0.2005  0.4281
34965OCT     C169929  15.881  13.612  11.050  0.0375  0.1404 -0.3687
34965OCT     C269930  15.568  13.431  11.349 -0.5056 -0.4112 -0.0133
34966OCT     C169931  15.520  17.645  10.854 -0.1310  0.1302  0.0104
34966OCT     C269932  15.432  18.096  10.921  0.1728  0.1510 -0.1313
34967OCT     C169933   0.695   2.885   8.634 -0.0225  0.1918 -0.0754
34967OCT     C269934   0.591   2.772   8.187  0.0613  0.1500 -0.0197
34968OCT     C169935   3.200  19.337   5.440  0.1713  0.2131 -0.5117
34968OCT     C269936   2.938  19.213   5.068 -0.0171  0.0791 -0.2229
34969OCT     C169937  12.696  21.853   6.748 -0.4757 -0.4384 -0.1970
34969OCT     C269938  12.369  22.167   6.715 -0.0437 -0.1453 -0.2359
34970OCT     C169939   8.700  10.441  21.644  0.4257  0.1995  0.0038
34970OCT     C269940   8.331  10.179  21.525 -0.0142  0.1810  0.4396
34971OCT     C169941   6.273  11.835   0.245  0.2257  0.1505 -0.0239
34971OCT     C269942   6.625  11.911   0.563  0.1538 -0.3354 -0.0112
34972OCT     C169943  12.453   2.485  19.304 -0.1286 -0.1675 -0.4762
34972OCT     C269944  12.861   2.653  19.175 -0.0531  0.0467  0.2987
34973OCT     C169945   5.575  11.346  14.277 -0.1099 -0.3052 -0.0136
34973OCT     C269946   5.169  11.590  14.245 -0.2798 -0.1990 -0.3021
34974OCT     C169947  16.272  13.502  11.937  0.0310 -0.0560 -0.1616
34974OCT     C269948  16.112  13.296  12.326 -0.0630 -0.0017  0.2955
34975OCT     C169949   9.593   9.576   6.917 -0.0085  0.0933  0.3865
34975OCT     C269950   9.129   9.495   6.742  0.1169 -0.0023 -0.3309
34976OCT     C169951  10.951   1.777  19.990  0.3874 -0.0016  0.2520
34976OCT     C269952  11.329   1.932  19.720  0.3506 -0.0010  0.1546
34977OCT     C169953   0.534  18.873  21.006 -0.1243  0.5482 -0.1493
34977OCT     C269954   0.721  18.547  21.261 -0.0263  0.0938  0.0869
34978OCT     C169955  13.389   3.997   0.432  0.1708  0.1537 -0.2210
34978OCT     C269956  13.729   3.892   0.758  0.2396 -0.0173  0.0296
34979OCT     C169957  18.633  19.154   9.268 -0.0794  0.0706  0.1538
34979OCT     C269958  18.421  19.527   9.019  0.1195  0.1405 -0.0289
34980OCT     C169959   9.530   3.390  17.331  0.0618  0.1207 -0.3462
34980OCT     C269960   9.711   3.812  17.232  0.2271  0.2125 -0.1182
34981OCT     C169961   1.300   8.561   0.912 -0.2083  0.2190 -0.1076
34981OCT     C269962   1.094   8.768   0.529  0.2054 -0.2634 -0.0113
34982OCT     C169963  10.050   5.893   6.726  0.1919  0.2344  0.1523
34982OCT     C269964   9.872   5.526   6.476 -0.3557 -0.1518  0.0459
34983OCT     C169965   3.396   5.605   0.249  0.4673 -0.0623  0.2514
34983OCT     C269966   2.983   5.336   0.236 -0.2035 -0.1980 -0.0271
34984OCT     C169967  12.645  18.741   9.960  0.2475 -0.0307 -0.0567
34984OCT     C269968  12.633  18.275   9.801 -0.4223 -0.3667 -0.2051
34985OCT     C169969   5.082   8.195   0.083  0.0580  0.3787  0.3203
34985OCT     C269970   5.352   8.289  23.485 -0.3152 -0.2161  0.0047
34986OCT     C169971  19.693  20.585  22.250 -0.5644  0.1229  0.0389
34986OCT     C269972  19.322  20.857  22.134 -0.0733 -0.1183  0.1496
34987OCT     C169973   0.588  11.827   4.222 -0.0768 -0.1704 -0.2396
34987OCT     C269974   0.223  11.814   4.502 -0.1340  0.2448  0.2499
34988OCT     C169975  11.961   3.502  14.586  0.1243 -0.3277 -0.2778
34988OCT     C269976  11.750   3.595  14.143 -0.0449  0.0309 -0.1285
34989OCT     C169977  18.309  21.821   3.109 -0.0773  0.0498  0.2656
34989OCT     C269978  18.687  21.484   3.099 -0.1597 -0.2450 -0.1635
34990OCT     C169979  22.717   8.726  19.968 -0.0964  0.2692  0.3683
34990OCT     C269980  23.002   8.374  20.009  0.1819 -0.1929 -0.1287
34991OCT     C169981   9.158  22.193   7.884  0.1979  0.1889  0.0240
34991OCT     C269982   9.215  21.991   8.254 -0.1222 -0.0945  0.1092
34992OCT     C169983  20.839   0.855   3.556 -0.1587  0.1585  0.2210
34992OCT     C269984  20.942   0.613   3.223 -0.0802  0.2454  0.1729
34993OCT     C169985   4.189  11.913  15.775  0.0894 -0.3291 -0.0583
34993OCT     C269986   4.157  11.521  15.490  0.1948 -0.1374 -0.4704
34994OCT     C169987  11.078   1.535  21.035 -0.0807 -0.1882  0.2576
34994OCT     C269988  11.565   1.350  21.083  0.4056  0.1924 -0.4000
34995OCT     C169989  15.199  15.869   7.388 -0.2440 -0.3134 -0.1285
34995OCT     C269990  15.015  15.526   7.087  0.0202 -0.1463  0.2948
34996OCT     C169991   7.862  11.336   2.606 -0.3729  0.1433 -0.1110
34996OCT     C269992   7.410  11.471   2.564  0.0874 -0.3641  0.0935
34997OCT     C169993  14.117  17.157   1.712  0.1490  0.1044 -0.0326
34997OCT     C269994  14.188  17.449   2.052  0.0210 -0.1346  0.2730
34998OCT     C169995   4.409  11.965  18.410 -0.0690  0.2373  0.1840
34998OCT     C269996   4.349  11.890  17.961 -0.2397  0.4441 -0.0116
34999OCT     C169997  18.706  12.589  12.358 -0.0367 -0.0493 -0.0539
34999OCT     C269998  18.406  12.818  12.101  0.0613 -0.3438  0.0711
35000OCT     C169999   2.403   8.748  11.473 -0.1451 -0.0757 -0.1247
35000OCT     C270000   2.136   8.379  11.324 -0.0447 -0.1569 -0.2812
35001OCT     C170001  11.230   6.587  22.971  0.2982  0.0194  0.1059
35001OCT     C270002  11.031   7.035  22.825  0.0758 -0.0536 -0.1827
35002OCT     C170003   2.445  22.397   4.364 -0.2484  0.0500 -0.2029
35002OCT     C270004   2.476  22.033   4.138 -0.1811  0.1521  0.0886
35003OCT     C170005  12.545   8.777  18.922 -0.1004 -0.3221 -0.1268
35003OCT     C270006  12.437   8.346  18.679  0.0754 -0.1988 -0.0915
35004OCT     C170007  20.022  14.611  16.482  0.1798 -0.0505  0.0708
35004OCT     C270008  19.932  14.771  16.897 -0.0584  0.0282 -0.0058
35005OCT     C170009  20.891  19.361   3.919 -0.0583  0.0529 -0.0372
35005OCT     C270010  20.781  19.706   3.624  0.3101 -0.2047 -0.0794
35006OCT     C170011  22.075   3.196  10.518 -0.2641  0.2279 -0.2722
35006OCT     C270012  21.823   3.452  10.215 -0.0902 -0.1173 -0.1861
35007OCT     C170013  21.053   6.522   3.785  0.2443  0.0225 -0.0275
35007OCT     C270014  21.203   6.979   3.831 -0.0881  0.0911 -0.2213
35008OCT     C170015  21.202  13.454   0.539 -0.1532 -0.0278 -0.1419
35008OCT     C270016  21.059  13.610   0.116 -0.2178 -0.1066 -0.5431
35009OCT     C170017   9.851  13.356  13.705 -0.2084  0.2149 -0.2074
35009OCT     C270018  10.273  13.624  13.769  0.1017 -0.1380  0.0066
35010OCT     C170019   1.633  20.618   1.405  0.0410  0.2476  0.0302
35010OCT     C270020   1.792  20.977   1.203  0.0624  0.0641  0.0482
35011OCT     C170021  19.416   8.292   8.097  0.3990  0.4425 -0.0248
35011OCT     C270022  19.049   8.082   8.336 -0.1976 -0.2804  0.2020
35012OCT     C170023  11.875  22.253  21.576  0.1743 -0.2962 -0.2132
35012OCT     C270024  12.223  22.344  21.322  0.2714  0.0232  0.4019
35013OCT     C170025  22.941   0.679  11.684 -0.1717 -0.0291 -0.0053
35013OCT     C270026  23.069   0.706  12.112  0.0987  0.1736  0.2132
35014OCT     C170027   6.562   7.272   5.043 -0.2254  0.1618 -0.2238
35014OCT     C270028   6.103   7.366   5.029 -0.1973 -0.1833 -0.0763
35015OCT     C170029   0.599   7.396   0.809  0.4434  0.1428  0.1811
35015OCT     C270030   0.553   7.166   0.443 -0.1792 -0.0505  0.2691
35016OCT     C170031  11.291   3.126  12.769  0.0069 -0.5365 -0.0389
35016OCT     C270032  11.618   2.820  12.655  0.3432  0.2515  0.0314
35017OCT     C170033   3.942  18.640   5.567 -0.0600  0.0310 -0.0785
35017OCT     C270034   4.172  19.008   5.471  0.0075  0.2728 -0.1008
35018OCT     C170035   0.529   4.215   4.214  0.2955  0.0319  0.3478
35018OCT     C270036   0.460   4.033   4.660  0.0882  0.0304  0.4964
35019OCT     C170037  21.814  21.099  11.435 -0.0265  0.0125 -0.0558
35019OCT     C270038  21.790  21.544  11.448 -0.2382 -0.2723 -0.1809
35020OCT     C170039   9.546  11.316   3.282  0.0797 -0.0186  0.2084
35020OCT     C270040   9.763  11.417   3.682 -0.0083 -0.1250 -0.0403
35021OCT     C170041   5.699  13.657  23.128  0.1900 -0.3294 -0.0690
35021OCT     C270042   5.790  13.289  22.810 -0.1630 -0.1239  0.0649
35022OCT     C170043  17.026  19.149  11.630  0.1007  0.2145 -0.1757
35022OCT     C270044  17.372  18.980  11.367 -0.1787 -0.0477  0.0480
35023OCT     C170045  21.896  17.742   9.799 -0.1932 -0.1879 -0.1467
35023OCT     C270046  21.784  17.731   9.302 -0.0376 -0.1420  0.2439
35024OCT     C170047  20.678  20.314  13.859  0.1378 -0.0414 -0.1563
35024OCT     C270048  20.376  19.988  13.938 -0.1386 -0.0260  0.2147
35025OCT     C170049  19.281  22.033  13.940  0.1923  0.1719 -0.2831
35025OCT     C270050  19.437  21.801  13.574  0.0606  0.1585  0.1438
35026OCT     C170051  14.358   4.675   2.289 -0.0731  0.0211  0.0803
35026OCT     C270052  13.942   4.901   2.215 -0.0696 -0.1323  0.2607
35027OCT     C170053   8.102  11.216   7.312 -0.0913  0.2864 -0.0462
35027OCT     C270054   7.648  11.037   7.436  0.0458 -0.0477  0.0999
35028OCT     C170055   4.756   3.390   8.406  0.0151  0.1928  0.0696
35028OCT     C270056   5.150   3.346   8.206 -0.1226 -0.0678  0.6597
35029OCT     C170057  17.728  14.943   8.394  0.0680  0.4500  0.1366
35029OCT     C270058  17.633  14.474   8.264 -0.1454 -0.0883  0.1572
35030OCT     C170059  21.670   7.474   2.122  0.0045 -0.0149 -0.1939
35030OCT     C270060  21.382   7.202   2.323 -0.1022 -0.2343  0.0782
35031OCT     C170061   2.987  11.820   4.688 -0.2268  0.1514 -0.0963
35031OCT     C270062   3.185  12.218   4.687  0.0281  0.3180 -0.1753
35032OCT     C170063  13.097  10.854   8.492 -0.1051 -0.1582  0.2701
35032OCT     C270064  13.290  10.708   8.855 -0.4718  0.1774  0.3112
35033OCT     C170065  10.132  14.831  21.937 -0.1015 -0.1552  0.1944
35033OCT     C270066  10.332  14.477  22.177  0.0286 -0.0454  0.0760
35034OCT     C170067  21.160   8.618  14.598  0.0990 -0.3687 -0.5565
35034OCT     C270068  21.204   8.848  14.998 -0.4014 -0.2480  0.1162
35035OCT     C170069   8.669  13.550  22.545  0.0350  0.0697  0.3663
35035OCT     C270070   8.829  13.566  22.035 -0.1601  0.0117 -0.2063
35036OCT     C170071  19.886   0.457   3.366 -0.1455 -0.1841 -0.0136
35036OCT     C270072  19.801   0.346   2.890 -0.1883 -0.0648 -0.1001
35037OCT     C170073  18.699   5.370   7.825  0.1445  0.5667  0.0160
35037OCT     C270074  18.467   5.732   7.937  0.0929 -0.1953 -0.1472
35038OCT     C170075  22.990  20.220   8.227 -0.1655  0.2959  0.3266
35038OCT     C270076  23.142  20.019   7.861 -0.0138  0.1505  0.0047
35039OCT     C170077   5.559  20.368  18.531  0.2656 -0.2713 -0.0354
35039OCT     C270078   5.790  20.571  18.916  0.2394  0.0314  0.2540
35040OCT     C170079   1.611  18.628  19.784 -0.3049  0.1348  0.1138
35040OCT     C270080   1.289  18.330  19.954  0.3184 -0.1981  0.1848
35041OCT     C170081  13.695  17.467  11.257 -0.2028  0.2471  0.1461
35041OCT     C270082  13.797  17.224  10.903 -0.2071 -0.0314 -0.0346
35042OCT     C170083   0.564  11.724  14.876  0.2304  0.1338 -0.3990
35042OCT     C270084   0.267  11.864  14.546  0.2423  0.1843  0.4766
35043OCT     C170085  18.960  10.946   7.344 -0.0221  0.1349 -0.0168
35043OCT     C270086  18.851  11.390   7.421  0.2295 -0.0469 -0.1782
35044OCT     C170087  18.567   5.609   3.158 -0.0545  0.1350 -0.2978
35044OCT     C270088  18.909   5.703   3.479 -0.3037  0.3623  0.3162
35045OCT     C170089   4.200   6.880  15.876 -0.1739 -0.3046  0.1772
35045OCT     C270090   4.360   6.464  15.963  0.1047  0.1001 -0.2640
35046OCT     C170091   7.500   0.145   4.806 -0.0039  0.2358 -0.0808
35046OCT     C270092   7.584  23.513   4.494  0.1197  0.3012  0.1598
35047OCT     C170093  23.469   1.241   1.127 -0.0195 -0.0526 -0.2689
35047OCT     C270094  23.267   1.614   1.302  0.0725 -0.2395 -0.3094
35048OCT     C170095   9.284   0.500  16.005  0.0884  0.2025 -0.2339
35048OCT     C270096   9.698   0.491  15.810  0.4361 -0.3039  0.0668
35049OCT     C170097   0.186  23.105   7.129  0.2514 -0.0016  0.0715
35049OCT     C270098   0.275  23.528   7.252  0.1754 -0.1750 -0.1579
35050OCT     C170099   3.735  16.093   9.718  0.2131  0.2256 -0.1274
35050OCT     C270100   3.915  16.386   9.424  0.1533 -0.3533 -0.0698
35051OCT     C170101  20.076  11.470  10.175 -0.1579 -0.1934  0.0083
35051OCT     C270102  19.799  11.830  10.449 -0.2284  0.0975 -0.0935
35052OCT     C170103  21.853   9.852   4.073 -0.1790 -0.1584  0.0167
35052OCT     C270104  21.851   9.449   3.938  0.0396 -0.3151  0.0435
35053OCT     C170105   9.995   7.291   8.400 -0.2886  0.2544 -0.2340
35053OCT     C270106  10.138   6.821   8.478 -0.2837  0.0228 -0.1962
35054OCT     C170107  17.121   8.928   5.416 -0.0180  0.0874 -0.1374
35054OCT     C270108  16.793   8.774   5.101 -0.0539 -0.0067  0.1565
35055OCT     C170109   9.177   5.580  17.599 -0.1591 -0.2525 -0.2866
35055OCT     C270110   9.592   5.344  17.446 -0.0036 -0.1014 -0.2117
35056OCT     C170111  10.471  22.318  15.028  0.1153 -0.0931  0.0283
35056OCT     C270112  10.642  22.325  15.452  0.1998 -0.0807 -0.1459
35057OCT     C170113   3.270   7.430  14.903  0.0801  0.2352  0.0806
35057OCT     C270114   3.604   7.240  15.211 -0.1698 -0.0294 -0.1481
35058OCT     C170115  20.178  13.853  18.947  0.0563 -0.0926 -0.2667
35058OCT     C270116  20.143  14.258  19.079 -0.0476 -0.0464  0.3117
35059OCT     C170117  14.508  18.710   7.503  0.4128  0.0748 -0.2473
35059OCT     C270118  14.335  18.885   7.157 -0.1584 -0.3271 -0.0133
35060OCT     C170119  16.890   8.463  19.521 -0.0684  0.3126  0.0702
35060OCT     C270120  16.570   8.422  19.861  0.3584  0.4480  0.2854
35061OCT     C170121  10.502  14.708  18.588  0.1409 -0.3753 -0.0766
35061OCT     C270122  10.788  14.963  18.862 -0.0812 -0.3071  0.1326
35062OCT     C170123  12.891   5.364  19.876  0.1104  0.1198  0.0846
35062OCT     C270124  13.106   5.114  20.265 -0.0591  0.2021  0.2398
35063OCT     C170125  11.605  12.082   2.580  0.3309  0.0815  0.1663
35063OCT     C270126  11.431  12.374   2.875  0.3261 -0.3115 -0.1342
35064OCT     C170127  18.375  22.294   4.451 -0.1470 -0.0235  0.1086
35064OCT     C270128  18.755  22.327   4.135 -0.0583  0.0875  0.0166
35065OCT     C170129  20.322  15.515  10.427 -0.0265  0.2980  0.0898
35065OCT     C270130  20.204  15.046  10.615 -0.0888 -0.0235  0.0167
35066OCT     C170131   5.077  11.664  16.833 -0.2840  0.0284 -0.0829
35066OCT     C270132   5.046  12.110  16.790  0.0215 -0.1488  0.0581
35067OCT     C170133  12.933   8.283   9.956  0.0398 -0.1117  0.5195
35067OCT     C270134  12.695   8.210  10.366 -0.1170 -0.0426  0.0361
35068OCT     C170135  23.549   2.206  19.682 -0.1506 -0.0009 -0.0504
35068OCT     C270136  23.406   2.041  19.269  0.4084 -0.2937  0.3617
35069OCT     C170137   1.808  11.538  18.410  0.0525  0.0668 -0.0425
35069OCT     C270138   2.272  11.454  18.374 -0.0847 -0.3891  0.1432
35070OCT     C170139  17.938  10.622   9.118  0.0746 -0.0026 -0.1567
35070OCT     C270140  18.257  10.444   9.417 -0.0338 -0.4661 -0.0964
35071OCT     C170141   3.610   1.943  16.940  0.1738  0.1859 -0.1444
35071OCT     C270142   3.939   2.129  17.218 -0.0679  0.1100  0.1106
35072OCT     C170143  11.471   8.986  16.449 -0.4135  0.1106  0.0885
35072OCT     C270144  11.624   9.376  16.237 -0.0174 -0.1462 -0.1532
35073OCT     C170145   3.679  20.199  19.581 -0.2014 -0.1684  0.2258
35073OCT     C270146   4.137  20.389  19.542  0.0345 -0.1435 -0.0018
35074OCT     C170147   6.771  19.401  20.577  0.1478  0.3927  0.0660
35074OCT     C270148   6.647  19.849  20.595 -0.0058  0.0286  0.1399
35075OCT     C170149  16.770  12.885   3.409  0.0110 -0.1186 -0.0212
35075OCT     C270150  17.019  12.483   3.356  0.0370 -0.4727 -0.1234
35076OCT     C170151   9.522  16.248   4.827 -0.1140  0.2219  0.3344
35076OCT     C270152   9.697  16.309   4.418 -0.0683  0.1369 -0.4101
35077OCT     C170153  19.741  17.963   8.776  0.1930  0.5395 -0.0881
35077OCT     C270154  19.976  18.376   8.791 -0.0422  0.2398  0.1020
35078OCT     C170155   3.323  19.646   4.504 -0.2558  0.2161 -0.0525
35078OCT     C270156   3.197  19.871   4.129 -0.2733 -0.0958 -0.0387
35079OCT     C170157  18.277  23.566  20.429  0.0373 -0.2054  0.4021
35079OCT     C270158  18.436  23.487  20.841 -0.1138  0.1157 -0.0976
35080OCT     C170159  19.359   4.602  12.823  0.1760  0.0229  0.1789
35080OCT     C270160  19.378   4.298  12.481  0.1144 -0.0411  0.0011
35081OCT     C170161   1.629  20.644   3.469  0.1749  0.1070  0.1527
35081OCT     C270162   1.182  20.790   3.244 -0.3406  0.5502  0.0171
35082OCT     C170163   6.106  23.675  12.759 -0.1044  0.1027 -0.0807
35082OCT     C270164   5.869   0.068  12.382  0.0206  0.0953  0.1248
35083OCT     C170165  15.097  11.963  13.964  0.1899 -0.0072  0.2949
35083OCT     C270166  15.288  11.704  14.262 -0.3105  0.1163 -0.0214
35084OCT     C170167   1.226  15.987   8.166  0.0290 -0.1480 -0.2368
35084OCT     C270168   1.103  16.032   8.604 -0.2647 -0.2091  0.4644
35085OCT     C170169  13.366  23.647   5.581  0.2379 -0.1386  0.0736
35085OCT     C270170  13.672  23.293   5.692 -0.0849 -0.0676  0.2223
35086OCT     C170171   5.223   7.004  15.234 -0.2720  0.1271 -0.2576
35086OCT     C270172   5.050   7.414  15.117 -0.0115  0.4541 -0.0782
35087OCT     C170173  20.585   9.340  20.305 -0.1173 -0.0142  0.3263
35087OCT     C270174  20.882   8.940  20.406  0.1195  0.3919  0.0434
35088OCT     C170175  21.582  16.973  15.673  0.2899 -0.2854  0.3446
35088OCT     C270176  22.030  17.214  15.708 -0.0157  0.4538  0.0299
35089OCT     C170177   7.385  21.627   8.671  0.0888  0.0362 -0.2396
35089OCT     C270178   7.105  21.295   8.538  0.2466 -0.0791 -0.0849
35090OCT     C170179  13.218   1.956   3.995 -0.0676  0.3554 -0.1742
35090OCT     C270180  13.284   2.005   3.475 -0.0648  0.1005 -0.0442
35091OCT     C170181   9.995  15.863  16.264  0.3360  0.0156  0.0742
35091OCT     C270182  10.110  15.946  16.731 -0.1670  0.0462  0.1796
35092OCT     C170183   1.774  22.448   1.783  0.1019 -0.4335 -0.0938
35092OCT     C270184   1.889  22.243   2.157 -0.1704 -0.1390  0.2770
35093OCT     C170185   9.962  18.097  16.823 -0.0394 -0.0028 -0.0970
35093OCT     C270186   9.588  18.140  17.099 -0.1515 -0.1129 -0.2205
35094OCT     C170187   4.662  21.731   6.525  0.0587 -0.3200  0.0250
35094OCT     C270188   4.582  22.097   6.309  0.1425 -0.1834 -0.1673
35095OCT     C170189  17.124  15.205  20.415  0.0893 -0.3591  0.2874
35095OCT     C270190  17.224  15.527  20.073  0.0900 -0.3583  0.0883
35096OCT     C170191  22.982   3.535   8.603  0.0528 -0.2315 -0.3562
35096OCT     C270192  23.343   3.733   8.827  0.4651 -0.2955  0.2717
35097OCT     C170193  20.312  17.463  10.969 -0.0942 -0.3547 -0.0260
35097OCT     C270194  19.951  17.670  11.174  0.0262  0.0294  0.2590
35098OCT     C170195   8.575  17.017   1.036  0.2767 -0.1362  0.1062
35098OCT     C270196   8.728  17.186   1.402  0.1681  0.1232 -0.0960
35099OCT     C170197  17.457  13.516   3.162  0.2810 -0.4619  0.0638
35099OCT     C270198  17.851  13.758   3.160  0.0486 -0.0026 -0.0190
35100OCT     C170199  22.425  12.422  15.330  0.0880 -0.0485 -0.1192
35100OCT     C270200  22.433  11.978  15.408  0.0516  0.2548  0.2269
35101OCT     C170201  16.220   5.503   6.561 -0.1821  0.0177  0.0753
35101OCT     C270202  16.376   5.375   6.988 -0.0042  0.1839  0.0581
35102OCT     C170203   4.857  18.300  14.327  0.0855 -0.0689  0.0389
35102OCT     C270204   4.540  17.998  14.551  0.1526  0.0095  0.1111
35103OCT     C170205  12.944   7.497  12.457  0.2443 -0.3923 -0.1131
35103OCT     C270206  12.756   7.778  12.159 -0.1115  0.0578  0.2218
35104OCT     C170207   4.588   7.311   4.805 -0.1116 -0.0170 -0.0580
35104OCT     C270208   4.605   7.672   4.486  0.1628  0.0279 -0.2566
35105OCT     C170209   4.827   2.097  19.698 -0.0938 -0.0051 -0.0609
35105OCT     C270210   5.258   2.186  19.917  0.2354 -0.0359 -0.0185
35106OCT     C170211   3.590  19.963  17.055 -0.1175 -0.5350 -0.0876
35106OCT     C270212   3.777  20.243  17.395 -0.2723 -0.3505  0.0876
35107OCT     C170213   5.287  11.110  10.867 -0.1042  0.1010  0.1053
35107OCT     C270214   5.529  10.706  10.698  0.0235 -0.0910 -0.1162
35108OCT     C170215  21.961  14.885   0.783 -0.2798  0.5234 -0.0679
35108OCT     C270216  21.807  14.491   0.855  0.0629  0.1244  0.1645
35109OCT     C170217   6.721   6.575   5.402 -0.0470 -0.2742  0.2692
35109OCT     C270218   6.647   6.159   5.382  0.1797  0.1868 -0.0565
35110OCT     C170219  12.199  13.132   6.934 -0.1274  0.0075 -0.1235
35110OCT     C270220  12.180  13.060   6.498 -0.0688 -0.0637  0.0220
35111OCT     C170221   6.249  18.090  15.636  0.2593 -0.3385  0.0809
35111OCT     C270222   6.694  17.988  15.673 -0.2538 -0.1471 -0.1158
35112OCT     C170223   4.593  12.456   2.981  0.4368 -0.0016  0.0727
35112OCT     C270224   4.563  12.918   3.039  0.2651  0.1377  0.5980
35113OCT     C170225   7.796   0.855  18.136 -0.1550 -0.0023  0.0680
35113OCT     C270226   8.183   1.115  18.211 -0.2973 -0.2708  0.0561
35114OCT     C170227  22.025  20.772  17.475  0.0637 -0.2750 -0.3265
35114OCT     C270228  21.818  20.590  17.029  0.0563  0.0545  0.3878
35115OCT     C170229  18.194  21.760  15.984  0.0092 -0.1168  0.1461
35115OCT     C270230  17.989  21.708  16.401  0.3511  0.0758 -0.0122
35116OCT     C170231  21.210   5.640   3.447 -0.1837 -0.5387 -0.0062
35116OCT     C270232  21.101   5.829   2.971 -0.2593 -0.1361  0.0990
35117OCT     C170233  22.566   9.619  15.782 -0.1955  0.1905  0.0928
35117OCT     C270234  22.513   9.161  15.948 -0.0934  0.0580 -0.1083
35118OCT     C170235  17.849  12.614   2.757  0.5247 -0.0506  0.1549
35118OCT     C270236  17.588  12.988   2.847 -0.0260  0.2036  0.2444
35119OCT     C170237  11.264   3.784   6.775  0.1025 -0.0701 -0.0660
35119OCT     C270238  11.269   3.628   6.349  0.1086 -0.1626 -0.4116
35120OCT     C170239  13.295  22.833  11.802  0.2681  0.1501 -0.1377
35120OCT     C270240  13.622  22.636  12.085  0.0004  0.1331  0.2947
35121OCT     C170241  10.231   1.052  15.433  0.1227  0.1919 -0.1088
35121OCT     C270242  10.433   0.867  15.045 -0.1324  0.1008 -0.4578
35122OCT     C170243  14.918  10.230   6.574  0.3716  0.0186  0.0906
35122OCT     C270244  14.916  10.686   6.779  0.1084  0.1706  0.4161
35123OCT     C170245  22.186  16.222   0.246  0.1685 -0.0031 -0.0195
35123OCT     C270246  22.305  16.691   0.218  0.2034 -0.1518 -0.3413
35124OCT     C170247   9.711  20.648   4.097  0.0363 -0.2083 -0.1321
35124OCT     C270248   9.755  20.842   4.503  0.0401  0.0071 -0.1971
35125OCT     C170249  12.982  21.944  23.108 -0.1616  0.1257 -0.1203
35125OCT     C270250  12.640  22.120  22.870  0.2953  0.1221 -0.1578
35126OCT     C170251  21.640  14.661  18.525 -0.2728  0.1951  0.0653
35126OCT     C270252  21.200  14.692  18.347 -0.5645 -0.0179 -0.2530
35127OCT     C170253  12.473   2.949  16.534 -0.2141 -0.0942  0.0940
35127OCT     C270254  12.530   2.896  16.998  0.0463 -0.0429 -0.1314
35128OCT     C170255   2.206  13.315   2.388  0.1412 -0.0858 -0.1901
35128OCT     C270256   2.377  13.719   2.318  0.3549 -0.2935  0.1031
35129OCT     C170257  12.017   8.983  19.271  0.1652 -0.3088  0.0513
35129OCT     C270258  11.899   9.039  19.684  0.0196 -0.1699 -0.1844
35130OCT     C170259   5.718  12.674  21.036  0.3882 -0.1374  0.3631
35130OCT     C270260   5.338  12.800  20.716  0.2611 -0.3149 -0.1495
35131OCT     C170261  16.084  17.919   2.777  0.0758  0.0904 -0.1874
35131OCT     C270262  16.456  17.666   2.819  0.2279 -0.1104  0.2181
35132OCT     C170263  13.189  21.430   2.931  0.1749  0.0359 -0.1284
35132OCT     C270264  13.398  21.596   3.304  0.0178  0.3303 -0.1618
35133OCT     C170265  16.557  18.975   5.369  0.1521  0.0703  0.1528
35133OCT     C270266  16.407  18.938   4.950  0.0979  0.2716  0.1191
35134OCT     C170267  15.130  19.597  10.117 -0.0827  0.2458 -0.0599
35134OCT     C270268  14.705  19.692   9.929  0.7288  0.1450 -0.0091
35135OCT     C170269  13.097   3.059   7.193  0.1820  0.0186  0.1767
35135OCT     C270270  12.685   3.056   7.437 -0.4071 -0.1530 -0.0488
35136OCT     C170271   0.691   2.739  11.071 -0.1938 -0.1355 -0.3720
35136OCT     C270272   0.325   2.809  11.392  0.2489 -0.4711 -0.3095
35137OCT     C170273  17.687  10.324  20.992 -0.1333  0.1575  0.0992
35137OCT     C270274  18.011  10.531  21.229 -0.3343  0.0063 -0.3839
35138OCT     C170275  23.037  21.974  11.629  0.2582 -0.1533  0.1934
35138OCT     C270276  23.079  21.989  11.135  0.1784 -0.0589  0.3438
35139OCT     C170277  20.703  11.890  14.227 -0.0151 -0.0758 -0.0098
35139OCT     C270278  20.976  11.646  14.579  0.0743  0.0001  0.3613
35140OCT     C170279  13.446  10.305  18.777 -0.1053 -0.1946 -0.1668
35140OCT     C270280  13.243   9.928  18.807 -0.3418  0.0598 -0.4585
35141OCT     C170281   5.896   4.668   3.344 -0.2824 -0.1405  0.5038
35141OCT     C270282   6.233   4.909   3.555 -0.4842 -0.0282 -0.4364
35142OCT     C170283  23.283  19.295   4.712  0.0446 -0.0031  0.1766
35142OCT     C270284  23.247  19.001   4.359 -0.1679  0.3830  0.0429
35143OCT     C170285  18.043  22.086  11.006  0.1147 -0.1817 -0.3608
35143OCT     C270286  18.304  22.223  11.346 -0.0599  0.4643  0.1661
35144OCT     C170287   7.278   3.023  10.449 -0.0484 -0.0096 -0.0033
35144OCT     C270288   7.460   2.649  10.733 -0.0224  0.0070  0.0651
35145OCT     C170289   5.085   4.040   0.808  0.1323 -0.0805  0.1478
35145OCT     C270290   5.039   4.246   0.432  0.2871 -0.1658  0.1283
35146OCT     C170291  13.692   8.712  14.306  0.0767  0.0705 -0.1100
35146OCT     C270292  13.943   9.133  14.341 -0.1884  0.1632 -0.2198
35147OCT     C170293   6.900  14.194  21.985  0.0133 -0.1630 -0.1641
35147OCT     C270294   7.078  14.543  22.229  0.2572 -0.1726 -0.0451
35148OCT     C170295   5.254  19.837  21.784 -0.2290 -0.2367 -0.3031
35148OCT     C270296   5.605  20.154  21.924  0.1587  0.2059 -0.2198
35149OCT     C170297   7.868  18.127  14.856  0.0508 -0.2069  0.0946
35149OCT     C270298   7.480  18.340  14.981  0.0652  0.0282 -0.1019
35150OCT     C170299  23.047  15.592  11.449  0.4259 -0.4384 -0.2588
35150OCT     C270300  22.963  15.271  11.804  0.0914 -0.1505  0.0150
35151OCT     C170301  18.570   9.669   2.286  0.0740  0.0656  0.0957
35151OCT     C270302  18.462   9.527   2.707 -0.0130 -0.4053  0.0076
35152OCT     C170303  17.561   3.799   4.461 -0.2928 -0.0938 -0.0561
35152OCT     C270304  17.783   3.704   4.918 -0.1967  0.1776 -0.3689
35153OCT     C170305  12.771  13.937  21.985 -0.1359  0.1247 -0.0039
35153OCT     C270306  12.379  13.923  22.297 -0.1311  0.0940 -0.0739
35154OCT     C170307  17.034  12.722   6.756  0.2097 -0.4024 -0.6392
35154OCT     C270308  16.820  12.340   6.620 -0.0616 -0.1751  0.3639
35155OCT     C170309   6.145   9.398   9.090  0.2339  0.1447 -0.3219
35155OCT     C270310   6.078   9.606   8.667 -0.1021 -0.1150 -0.1304
35156OCT     C170311  13.211  21.471  17.213 -0.2214 -0.2459 -0.0124
35156OCT     C270312  13.291  21.850  17.518 -0.6031  0.2373 -0.3474
35157OCT     C170313  23.088  18.330   3.373 -0.3706  0.4278  0.2277
35157OCT     C270314  22.978  17.859   3.404  0.0746  0.1346  0.2537
35158OCT     C170315   4.234  14.825   9.249 -0.1720  0.0094  0.1063
35158OCT     C270316   4.123  14.685   9.644 -0.2369  0.2861 -0.0890
35159OCT     C170317  11.562  22.627  13.140  0.0924  0.0265 -0.2159
35159OCT     C270318  11.887  22.690  13.474  0.0434 -0.3184  0.2804
35160OCT     C170319  10.607   6.186  23.705 -0.0128 -0.1215  0.0935
35160OCT     C270320  10.972   6.128   0.289 -0.3511  0.0448 -0.2715
35161OCT     C170321   5.838   5.978  17.406  0.2832 -0.3551  0.1361
35161OCT     C270322   5.406   6.052  17.579 -0.3749  0.4001 -0.0087
35162OCT     C170323  22.025  11.780   1.626 -0.3922  0.0237 -0.0431
35162OCT     C270324  22.000  11.607   2.071  0.0286  0.1912 -0.1279
35163OCT     C170325  23.739   4.580  20.374  0.0712 -0.1037  0.0549
35163OCT     C270326  23.354   4.812  20.199 -0.2107 -0.1614  0.3596
35164OCT     C170327  13.357   2.453   1.372  0.0942 -0.1601  0.1160
35164OCT     C270328  13.657   2.846   1.379 -0.1379  0.2285 -0.2352
35165OCT     C170329  23.015   8.581   9.123 -0.2900  0.2385 -0.1418
35165OCT     C270330  23.340   8.371   8.770 -0.2205  0.1887 -0.4779
35166OCT     C170331  22.243   2.895  11.624 -0.0246  0.1352 -0.2952
35166OCT     C270332  21.920   3.163  11.443 -0.1065 -0.0546  0.1187
35167OCT     C170333   0.519   0.846   2.843 -0.4111 -0.1204 -0.0398
35167OCT     C270334   0.899   1.138   2.942  0.1484  0.1347  0.0548
35168OCT     C170335  20.683  14.167   8.678 -0.4708 -0.6570  0.0283
35168OCT     C270336  20.762  13.981   8.254 -0.2895  0.2487 -0.1246
35169OCT     C170337   0.322   1.547  17.003 -0.1588 -0.1911  0.1442
35169OCT     C270338   0.367   1.962  16.809  0.0834  0.0933 -0.4689
35170OCT     C170339   7.276  11.283   6.005 -0.0183 -0.0270  0.1739
35170OCT     C270340   7.004  11.063   5.676  0.3269 -0.2449  0.0456
35171OCT     C170341   7.555   4.558  17.225 -0.2829 -0.1900  0.0625
35171OCT     C270342   7.406   4.128  17.140 -0.2590 -0.0515 -0.3501
35172OCT     C170343  13.920   5.743   8.607 -0.0139 -0.0134 -0.4850
35172OCT     C270344  13.700   6.003   8.348  0.1538  0.0679 -0.1965
35173OCT     C170345  18.699  10.977   1.694 -0.1047  0.0429 -0.1042
35173OCT     C270346  18.246  10.873   1.953  0.3261  0.4844  0.1701
35174OCT     C170347  16.272  19.206   7.688  0.0424 -0.5145 -0.0732
35174OCT     C270348  16.019  19.314   7.321 -0.2498 -0.4175 -0.4288
35175OCT     C170349   1.494  21.672  12.907 -0.0608  0.4282 -0.0999
35175OCT     C270350   1.487  21.447  12.540 -0.2827 -0.2494  0.2246
35176OCT     C170351  17.269   4.172   9.764 -0.2419 -0.0023  0.5709
35176OCT     C270352  17.141   3.959   9.389 -0.0044 -0.0703  0.0423
35177OCT     C170353   0.066  17.785  23.355 -0.2552 -0.1425  0.0153
35177OCT     C270354   0.446  17.514  23.256  0.0986 -0.1927  0.1738
35178OCT     C170355   5.453  20.374   6.712  0.0644 -0.2945  0.1472
35178OCT     C270356   5.453  20.751   6.438 -0.1226 -0.2202  0.0889
35179OCT     C170357  17.006  12.830  21.878  0.0893 -0.1425 -0.1131
35179OCT     C270358  17.376  12.662  21.734  0.0873 -0.0319 -0.1726
35180OCT     C170359  13.247   6.353   8.034 -0.0202 -0.0909 -0.5307
35180OCT     C270360  13.189   6.165   7.620  0.3122  0.0549 -0.1475
35181OCT     C170361   1.788   9.245   2.284 -0.2087 -0.0490  0.1110
35181OCT     C270362   1.665   8.869   2.554 -0.0039 -0.2596 -0.0636
35182OCT     C170363   3.175   0.326   9.775  0.0888 -0.0419  0.1155
35182OCT     C270364   2.956   0.339  10.197 -0.2022  0.0231 -0.0541
35183OCT     C170365  10.128  11.483  20.589  0.2858 -0.0432 -0.3952
35183OCT     C270366  10.407  11.760  20.872  0.0204 -0.1263  0.0117
35184OCT     C170367  22.731   2.349   6.181  0.5798  0.1497  0.1661
35184OCT     C270368  22.457   1.978   6.082  0.3584 -0.0420  0.1516
35185OCT     C170369   3.917  11.113  15.637  0.2108 -0.0267 -0.2873
35185OCT     C270370   3.974  10.779  15.921  0.1323 -0.0803  0.1842
35186OCT     C170371   4.248  14.864  23.550  0.1201  0.1703  0.0910
35186OCT     C270372   4.082  15.069   0.115  0.0693  0.0453 -0.0717
35187OCT     C170373  18.230   6.041   8.640  0.2205 -0.1419 -0.0901
35187OCT     C270374  18.143   6.444   8.930  0.3282  0.2483 -0.0476
35188OCT     C170375  18.653  23.171   6.921 -0.1003  0.3305  0.0917
35188OCT     C270376  18.846  23.030   6.585 -0.4056  0.1419 -0.0702
35189OCT     C170377  23.427  17.090  13.719  0.3402 -0.1242  0.1606
35189OCT     C270378  22.982  17.073  13.868  0.0129 -0.1090 -0.0642
35190OCT     C170379   1.736   7.605  17.063 -0.2066 -0.2897 -0.0224
35190OCT     C270380   2.091   7.302  17.081  0.1214 -0.0015 -0.0336
35191OCT     C170381  21.980   8.602   6.686 -0.2111  0.3280 -0.1577
35191OCT     C270382  21.719   8.721   6.362  0.1434  0.1929  0.3808
35192OCT     C170383  14.269   9.162   7.357 -0.2491 -0.1568 -0.1996
35192OCT     C270384  14.438   9.245   6.937  0.0234  0.2355 -0.1495
35193OCT     C170385   6.573  10.076  20.613  0.1525 -0.2502  0.0828
35193OCT     C270386   6.677  10.576  20.683 -0.1799 -0.2538  0.1311
35194OCT     C170387  14.255  16.056  19.512  0.0125 -0.2914 -0.2359
35194OCT     C270388  13.818  16.276  19.634 -0.3446  0.0848  0.0324
35195OCT     C170389   2.209  16.902   5.787 -0.1385  0.3663  0.0960
35195OCT     C270390   2.586  17.032   5.588 -0.1024 -0.1170  0.2951
35196OCT     C170391   9.162  20.836  18.110  0.1840 -0.0463 -0.1088
35196OCT     C270392   8.927  20.532  18.459  0.1291  0.1442  0.1649
35197OCT     C170393   2.030  23.732  14.196  0.0747 -0.2675  0.0368
35197OCT     C270394   1.918  23.369  14.468 -0.1545  0.1280  0.3896
35198OCT     C170395  18.803  10.128  13.299 -0.3215  0.0183 -0.2491
35198OCT     C270396  18.863   9.707  13.448 -0.2642  0.1438  0.1155
35199OCT     C170397   9.401   9.453  22.518 -0.1029 -0.0409  0.2961
35199OCT     C270398   9.284   9.681  22.062 -0.1599 -0.2327 -0.0945
35200OCT     C170399  22.003  14.446   8.498 -0.3148  0.0163 -0.1205
35200OCT     C270400  22.428  14.176   8.478  0.1325  0.1005 -0.0542
35201OCT     C170401  22.427  15.170   6.468  0.0473 -0.3585 -0.0811
35201OCT     C270402  22.607  15.410   6.100 -0.0791  0.2426 -0.1071
35202OCT     C170403   3.046   6.878   9.555 -0.6346 -0.1912  0.1817
35202OCT     C270404   2.804   6.545   9.334  0.0847  0.0878 -0.1609
35203OCT     C170405  18.996  17.113  11.344 -0.0955 -0.0380 -0.3638
35203OCT     C270406  18.637  17.145  11.634 -0.0485  0.1738 -0.0912
35204OCT     C170407  22.215  15.081  13.870  0.0621  0.1095  0.1115
35204OCT     C270408  22.250  15.234  14.282 -0.0898 -0.3030  0.1968
35205OCT     C170409   6.006  10.575  22.550 -0.1798 -0.0926 -0.0044
35205OCT     C270410   6.090  10.529  22.105 -0.3132 -0.0744  0.0005
35206OCT     C170411  14.841   0.617   0.038  0.2838 -0.0847  0.2772
35206OCT     C270412  15.063   0.886  23.443 -0.2811 -0.1052 -0.0777
35207OCT     C170413  17.754  17.347   9.978  0.1875  0.0620 -0.0475
35207OCT     C270414  17.366  17.529  10.235  0.0327 -0.4457  0.4771
35208OCT     C170415  20.698  19.864   3.122  0.1445  0.0178  0.0158
35208OCT     C270416  21.125  19.803   3.307  0.2780  0.0978  0.5171
35209OCT     C170417  14.101  17.412  10.600 -0.2864 -0.0113 -0.0370
35209OCT     C270418  13.921  17.323  10.182  0.0473  0.1105 -0.1463
35210OCT     C170419  18.243   5.750   9.806  0.1548  0.0458  0.1395
35210OCT     C270420  18.677   5.890   9.904 -0.2594 -0.1469 -0.0413
35211OCT     C170421  19.219  15.515   4.750 -0.1947  0.0010  0.2220
35211OCT     C270422  19.187  15.348   5.203  0.0575 -0.1431 -0.0438
35212OCT     C170423   8.468   1.368  23.642 -0.1749 -0.0991  0.0770
35212OCT     C270424   8.349   1.783  23.382 -0.4427 -0.2212 -0.3766
35213OCT     C170425   9.100   5.760  15.139 -0.0051 -0.2059 -0.0011
35213OCT     C270426   9.140   5.867  15.590  0.2114  0.1828  0.0301
35214OCT     C170427   2.228  10.599   9.526 -0.2312  0.0177 -0.2284
35214OCT     C270428   2.348  10.193   9.341  0.1127  0.0159 -0.2810
35215OCT     C170429   8.453   4.029  11.116  0.0532 -0.0802 -0.0397
35215OCT     C270430   8.582   4.483  11.195 -0.0319  0.1611 -0.4504
35216OCT     C170431  11.045   6.156   4.261  0.2180  0.1652  0.0791
35216OCT     C270432  11.256   6.101   3.902  0.2578 -0.1094  0.3540
35217OCT     C170433  16.724   0.852  15.342 -0.0632  0.0411  0.1018
35217OCT     C270434  16.887   1.143  15.651 -0.1672  0.0619 -0.2306
35218OCT     C170435   9.169  15.155  22.776  0.3997 -0.1203  0.0892
35218OCT     C270436   9.092  14.799  22.488  0.3193 -0.0609  0.0262
35219OCT     C170437  20.432  11.808  21.166 -0.0712  0.2309  0.0390
35219OCT     C270438  20.468  12.138  21.527  0.1178 -0.0563  0.2824
35220OCT     C170439  16.547  16.215   2.691 -0.0999  0.1881 -0.2108
35220OCT     C270440  16.288  16.422   2.385  0.1325 -0.1406  0.0604
35221OCT     C170441   4.172   5.290  13.778 -0.0436  0.3313 -0.0444
35221OCT     C270442   4.480   5.314  13.444  0.1680 -0.0793  0.2755
35222OCT     C170443  12.838  17.580  11.228  0.1169 -0.1562 -0.1319
35222OCT     C270444  12.925  17.080  11.386 -0.0240 -0.4190  0.1592
35223OCT     C170445   2.305  21.179  16.414 -0.1483 -0.1049  0.1363
35223OCT     C270446   2.020  20.815  16.197  0.4671  0.2648  0.1889
35224OCT     C170447  23.086   0.487  14.817  0.0613  0.0217 -0.1510
35224OCT     C270448  23.253   0.029  14.907 -0.0236  0.1828  0.0011
35225OCT     C170449   2.059   5.906  13.824 -0.0155 -0.2898 -0.0298
35225OCT     C270450   1.693   6.023  13.558  0.3407 -0.0531  0.0628
35226OCT     C170451  10.225   7.999   5.724  0.2448 -0.0651 -0.2217
35226OCT     C270452  10.646   8.084   5.775  0.0556  0.2080 -0.4863
35227OCT     C170453   1.646   9.390  19.961  0.0948 -0.1110 -0.0049
35227OCT     C270454   2.058   9.321  19.847  0.1390 -0.1022 -0.1015
35228OCT     C170455  17.419  10.469   0.855  0.4146 -0.0931  0.2206
35228OCT     C270456  17.128  10.629   0.472 -0.1287 -0.1385 -0.3535
35229OCT     C170457  18.697   4.672  14.148 -0.2668 -0.1673 -0.0684
35229OCT     C270458  18.211   4.688  14.029 -0.0319 -0.3563  0.2172
35230OCT     C170459   9.225   5.649  12.485  0.1976 -0.0274  0.3125
35230OCT     C270460   9.326   6.066  12.549 -0.0669 -0.0891 -0.0492
35231OCT     C170461   1.509  23.007   5.496  0.3455  0.0466  0.3341
35231OCT     C270462   1.309  23.366   5.398  0.1467 -0.0397 -0.1010
35232OCT     C170463   8.266   5.235   7.258  0.2343 -0.4854  0.0704
35232OCT     C270464   8.063   5.503   6.924 -0.0635 -0.4450  0.1121
35233OCT     C170465   9.677  22.498   2.405  0.2340 -0.1707 -0.0660
35233OCT     C270466  10.071  22.770   2.526 -0.4127  0.2738 -0.1721
35234OCT     C170467  22.985   6.241  14.896 -0.1837  0.5397 -0.0561
35234OCT     C270468  23.237   6.456  14.580 -0.1641 -0.2072 -0.2136
35235OCT     C170469   8.784   6.170  20.510  0.0737 -0.3194  0.0133
35235OCT     C270470   8.947   6.290  20.107  0.2472  0.0047 -0.1143
35236OCT     C170471  21.204  14.660   2.703  0.1384  0.1434 -0.3667
35236OCT     C270472  21.226  15.091   2.550  0.0117 -0.0717  0.0387
35237OCT     C170473  16.564  21.858  21.176 -0.2933 -0.0231 -0.3533
35237OCT     C270474  16.800  21.556  20.920 -0.3938 -0.1102 -0.1722
35238OCT     C170475   5.384  18.500  11.687  0.2515  0.0374 -0.0887
35238OCT     C270476   5.103  18.581  11.253 -0.0588 -0.2390 -0.0237
35239OCT     C170477  15.906   3.967  19.202 -0.2360  0.2454  0.1435
35239OCT     C270478  16.292   4.144  19.422 -0.1828  0.2749 -0.5461
35240OCT     C170479   8.476  20.872  14.748  0.1455 -0.4189 -0.3274
35240OCT     C270480   8.592  21.144  15.102  0.0913  0.0933  0.1068
35241OCT     C170481   9.015  12.523   8.190  0.1365  0.2735  0.2956
35241OCT     C270482   9.344  12.274   8.464  0.1476 -0.1665  0.2297
35242OCT     C170483  20.282   7.265   5.975  0.2430 -0.2910  0.1238
35242OCT     C270484  20.499   7.514   5.696 -0.1482 -0.2110 -0.1075
35243OCT     C170485   5.330  15.422  17.999 -0.0600 -0.3217  0.4625
35243OCT     C270486   4.993  15.486  18.303 -0.0745 -0.1357 -0.3376
35244OCT     C170487  20.766  13.141  21.080 -0.2977 -0.1968 -0.0332
35244OCT     C270488  20.811  12.852  21.423  0.3724 -0.1522 -0.0369
35245OCT     C170489  11.389   6.395   6.043 -0.4264 -0.1404  0.1409
35245OCT     C270490  11.337   6.547   5.582 -0.1841  0.0700 -0.0586
35246OCT     C170491  19.960  21.542  20.029  0.0618 -0.0225 -0.0368
35246OCT     C270492  20.358  21.764  19.966  0.0288 -0.0986  0.1358
35247OCT     C170493   9.178   0.460   3.025 -0.2765 -0.0449  0.0810
35247OCT     C270494   9.334   0.773   2.703 -0.3365  0.2178  0.0871
35248OCT     C170495   4.081  23.135   8.369 -0.3116 -0.0423 -0.0021
35248OCT     C270496   3.853  22.839   8.036 -0.4108 -0.1413  0.0918
35249OCT     C170497   1.628  21.901   8.422 -0.1032 -0.2321  0.0699
35249OCT     C270498   1.815  22.084   8.026 -0.0550  0.0525  0.0755
35250OCT     C170499   2.616  14.439  21.504  0.3436 -0.1780  0.0240
35250OCT     C270500   3.019  14.474  21.680 -0.2439  0.1806 -0.0265
35251OCT     C170501  19.138  15.314   5.735  0.1373  0.2901 -0.0624
35251OCT     C270502  19.196  15.355   6.262 -0.0863  0.1051  0.1971
35252OCT     C170503   0.484   5.544   1.790  0.0718 -0.3080  0.3012
35252OCT     C270504   0.336   5.119   1.741 -0.1654 -0.2214  0.2212
35253OCT     C170505  18.439   9.359  23.384  0.0990  0.0569  0.1643
35253OCT     C270506  18.501   9.321  22.888  0.1029  0.1652 -0.1202
35254OCT     C170507   5.552  17.693  12.757 -0.0076  0.3490 -0.1403
35254OCT     C270508   5.540  17.771  13.195  0.2518  0.1179  0.1262
35255OCT     C170509  13.738   6.750   4.580  0.2618 -0.2540  0.3986
35255OCT     C270510  13.705   6.788   4.093  0.2915  0.1932  0.0865
35256OCT     C170511  12.952  19.808   1.950 -0.2496  0.0779 -0.0196
35256OCT     C270512  12.820  19.522   1.592 -0.1225 -0.0065 -0.1430
35257OCT     C170513  15.366   0.839   3.902 -0.1859  0.1874 -0.1783
35257OCT     C270514  15.514   1.284   4.035 -0.0096 -0.0295 -0.0771
35258OCT     C170515  21.754   4.861   5.200 -0.2207 -0.2057 -0.1432
35258OCT     C270516  21.669   4.997   4.800 -0.2608 -0.3164  0.2790
35259OCT     C170517  16.714  19.917  18.321 -0.1201 -0.3210 -0.0011
35259OCT     C270518  16.565  19.539  18.596 -0.1625  0.0598  0.0540
35260OCT     C170519  20.114  20.821   4.781 -0.2202  0.4587 -0.1232
35260OCT     C270520  19.855  20.725   4.382 -0.1734  0.0031 -0.3642
35261OCT     C170521  21.254  22.104  15.591  0.1750 -0.0267 -0.0851
35261OCT     C270522  21.598  21.981  15.796 -0.1171  0.2483  0.0022
35262OCT     C170523   1.085  14.909  18.785 -0.3881  0.2448 -0.0267
35262OCT     C270524   0.668  14.984  19.021 -0.1410 -0.0874  0.1987
35263OCT     C170525  21.310  23.297  19.139 -0.3622  0.1756 -0.1251
35263OCT     C270526  21.455  23.139  18.735 -0.2373  0.1845 -0.1267
35264OCT     C170527  14.901   2.732  17.024  0.2035  0.2335  0.0950
35264OCT     C270528  15.222   2.618  17.286 -0.1194 -0.0632 -0.1055
35265OCT     C170529   7.864   9.953  16.246 -0.0994  0.0506 -0.0636
35265OCT     C270530   8.170  10.231  16.134  0.0518  0.0683 -0.0025
35266OCT     C170531   2.819  12.412  22.073 -0.0223  0.1992 -0.1969
35266OCT     C270532   2.702  12.085  21.768  0.2880  0.0999  0.0520
35267OCT     C170533  13.840  14.998   4.069  0.0833 -0.0181 -0.2811
35267OCT     C270534  13.775  15.362   3.782 -0.1747  0.0673 -0.0001
35268OCT     C170535  11.860   0.457  12.969  0.1225 -0.2062  0.2521
35268OCT     C270536  11.868   0.878  13.135  0.1709  0.0200 -0.2756
35269OCT     C170537   1.156  21.399   1.621 -0.0639  0.0439  0.0234
35269OCT     C270538   1.345  21.571   2.034  0.0126  0.0501 -0.1553
35270OCT     C170539   2.081   8.746  16.397 -0.1779 -0.0701 -0.0613
35270OCT     C270540   1.887   8.408  16.113 -0.2649 -0.2159 -0.5710
35271OCT     C170541  10.612  21.307   3.655 -0.0162 -0.1085  0.2601
35271OCT     C270542  10.364  21.694   3.762  0.1422 -0.0426  0.1281
35272OCT     C170543  21.340  12.024   7.650  0.0384  0.1060  0.1890
35272OCT     C270544  21.465  11.731   7.326  0.0237 -0.0528 -0.0477
35273OCT     C170545  15.450  19.890  23.080  0.3907  0.0833 -0.1227
35273OCT     C270546  15.697  19.661  22.768 -0.2872  0.2422  0.2563
35274OCT     C170547  11.082  10.764   4.501  0.0499 -0.0019  0.1474
35274OCT     C270548  11.229  11.131   4.783  0.1528  0.1077 -0.1793
35275OCT     C170549  15.165  16.385   4.525 -0.2009  0.1448  0.2733
35275OCT     C270550  15.568  16.422   4.694 -0.0912  0.3954 -0.3677
35276OCT     C170551   2.058  10.147  19.609  0.2122  0.0084 -0.1104
35276OCT     C270552   2.366   9.857  19.381 -0.2576  0.2339  0.2086
35277OCT     C170553  22.227   9.998  23.479 -0.0278 -0.4127 -0.1846
35277OCT     C270554  22.516   9.640  23.647 -0.0072  0.3241  0.1396
35278OCT     C170555   5.264   9.387  15.415 -0.2779  0.0104 -0.0722
35278OCT     C270556   4.916   9.431  15.708  0.1392 -0.0704 -0.1147
35279OCT     C170557  14.811   5.770  12.275 -0.0363  0.0761 -0.0511
35279OCT     C270558  14.466   6.028  12.295  0.2059 -0.1020 -0.2717
35280OCT     C170559  21.914   2.852   5.998  0.2708  0.2621 -0.3723
35280OCT     C270560  21.588   3.131   5.913  0.1138  0.0812 -0.2308
35281OCT     C170561  10.632  20.038  18.241 -0.3129  0.2164  0.3245
35281OCT     C270562  10.538  19.599  18.147 -0.1568 -0.2226  0.1153
35282OCT     C170563   4.115   5.035   0.775  0.3606 -0.1503  0.0340
35282OCT     C270564   3.835   5.187   1.077 -0.0196 -0.2692  0.0613
35283OCT     C170565  18.662  13.357   7.350 -0.3350  0.0635 -0.1779
35283OCT     C270566  18.467  13.202   6.974 -0.2340  0.0124 -0.0749
35284OCT     C170567   1.233  22.013   7.140  0.0987 -0.1396  0.1811
35284OCT     C270568   1.183  22.211   7.559 -0.0802  0.6097  0.2562
35285OCT     C170569   0.544  21.340   1.243  0.2433 -0.0757  0.2251
35285OCT     C270570   0.535  20.875   1.176 -0.0091 -0.2014 -0.0253
35286OCT     C170571  11.399   1.813  10.391 -0.0064  0.1511  0.0343
35286OCT     C270572  11.820   1.924  10.588 -0.0211 -0.1895 -0.3958
35287OCT     C170573   9.457   7.866   0.037 -0.0810 -0.1675 -0.0297
35287OCT     C270574   9.596   8.147   0.364 -0.0770 -0.2199  0.3287
35288OCT     C170575  12.652   1.171  11.901 -0.2354  0.1145  0.1016
35288OCT     C270576  13.015   1.502  11.982  0.0930  0.1574 -0.1758
35289OCT     C170577   7.310   5.217  17.546  0.0381 -0.2231  0.2461
35289OCT     C270578   7.831   5.233  17.370 -0.0046  0.0886 -0.1001
35290OCT     C170579  19.332   2.959   9.188 -0.0292 -0.3076 -0.0525
35290OCT     C270580  19.135   2.563   9.378  0.2844 -0.1447 -0.0406
35291OCT     C170581  23.457   4.255  19.380  0.5117  0.1708  0.2146
35291OCT     C270582   0.136   4.115  19.417 -0.2118 -0.0066  0.0911
35292OCT     C170583   7.523   9.570   1.549 -0.2822 -0.0507  0.2382
35292OCT     C270584   7.452   9.109   1.688 -0.2085  0.1075  0.1882
35293OCT     C170585  16.821  23.152   2.875 -0.3072  0.5743  0.3192
35293OCT     C270586  16.673  22.860   3.182 -0.0218  0.0149 -0.2467
35294OCT     C170587  20.386  10.501  18.136 -0.1126 -0.4108 -0.0803
35294OCT     C270588  20.164  10.147  17.874 -0.1498  0.2215  0.2739
35295OCT     C170589   1.144   6.287  10.589  0.0132 -0.3057  0.0908
35295OCT     C270590   0.712   6.366  10.459 -0.2436 -0.2193  0.0182
35296OCT     C170591  15.689   5.094  13.123  0.3007  0.1178 -0.0836
35296OCT     C270592  15.453   5.113  12.702 -0.0815  0.5887 -0.0426
35297OCT     C170593  17.492   0.635  16.311 -0.0872  0.3224 -0.1131
35297OCT     C270594  17.885   0.898  16.341  0.3484  0.3514 -0.0619
35298OCT     C170595  17.085   7.122  10.469 -0.1698  0.0506 -0.2106
35298OCT     C270596  16.843   7.450  10.665  0.1105  0.0101 -0.1278
35299OCT     C170597  17.884  11.861   4.002  0.2100 -0.4243  0.2635
35299OCT     C270598  17.574  12.111   4.295  0.0794 -0.0962  0.2857
35300OCT     C170599   8.335  13.561   4.747 -0.1424  0.0528 -0.1195
35300OCT     C270600   8.653  13.258   4.918 -0.2247 -0.0453  0.2349
35301OCT     C170601   7.236  14.949   5.787  0.3532 -0.1105  0.0229
35301OCT     C270602   6.889  15.266   5.594 -0.0310 -0.0422  0.2395
35302OCT     C170603  20.972  10.088  20.746 -0.2153  0.2043  0.2586
35302OCT     C270604  21.012   9.618  20.792 -0.2722  0.1796 -0.1175
35303OCT     C170605  17.522   7.036  18.641  0.1476 -0.1202  0.2762
35303OCT     C270606  17.517   7.422  18.846  0.0338  0.2190  0.0751
35304OCT     C170607  20.794   0.635   0.022  0.0905  0.1528  0.3678
35304OCT     C270608  20.731   0.144   0.002 -0.0178 -0.2657  0.1355
35305OCT     C170609  20.013   5.784   6.594 -0.2180 -0.0186 -0.0550
35305OCT     C270610  19.785   5.631   6.206  0.3229 -0.1051 -0.1680
35306OCT     C170611   7.663  14.381   4.947 -0.0359  0.2165 -0.3082
35306OCT     C270612   7.928  14.710   5.207 -0.6931 -0.2604  0.6133
35307OCT     C170613  21.147  14.006   5.927 -0.3048 -0.3505 -0.1705
35307OCT     C270614  21.517  14.299   5.890  0.0276  0.2032 -0.3788
35308OCT     C170615  12.355  19.214  21.885 -0.1522 -0.1230 -0.2007
35308OCT     C270616  11.965  19.485  21.904 -0.1541 -0.1043  0.0255
35309OCT     C170617   5.379   8.024   5.595 -0.2260 -0.4079  0.0397
35309OCT     C270618   5.327   8.436   5.461 -0.3123 -0.0731  0.3055
35310OCT     C170619  12.811  11.827  16.105 -0.1368 -0.2970  0.0264
35310OCT     C270620  12.962  12.173  15.810 -0.2259 -0.0098  0.2243
35311OCT     C170621  11.483   0.348  17.996  0.0134  0.0057  0.0847
35311OCT     C270622  11.635   0.775  17.818 -0.0989 -0.1587  0.0462
35312OCT     C170623   8.697  13.555   9.367 -0.1756  0.1490 -0.0624
35312OCT     C270624   8.487  13.281   9.644  0.1443  0.1233  0.5029
35313OCT     C170625  18.660   5.903  20.768  0.1569  0.0426  0.1039
35313OCT     C270626  18.305   5.580  20.735  0.0994  0.0164  0.0869
35314OCT     C170627  12.499  18.969  17.519 -0.0828 -0.1125  0.2142
35314OCT     C270628  12.595  18.527  17.407 -0.2076 -0.1755 -0.1781
35315OCT     C170629  14.846   3.230  22.314 -0.1117  0.0305 -0.0391
35315OCT     C270630  15.121   3.535  22.236 -0.3438 -0.2247 -0.0500
35316OCT     C170631  13.590   1.148  17.899  0.2425  0.1984  0.2168
35316OCT     C270632  13.440   0.718  17.983  0.2405  0.1432  0.1098
35317OCT     C170633  20.767  15.525   1.241  0.1873 -0.0579  0.1164
35317OCT     C270634  20.400  15.664   1.481 -0.3057  0.1670  0.2698
35318OCT     C170635  21.604   9.543  12.847 -0.2586 -0.5022  0.4049
35318OCT     C270636  21.207   9.359  12.997  0.2847 -0.0375 -0.3383
35319OCT     C170637  15.249   9.966   7.641  0.2782  0.0882  0.1653
35319OCT     C270638  15.540   9.752   7.861  0.0767  0.1436  0.1686
35320OCT     C170639  12.302   6.841  21.095  0.0999  0.1398  0.0693
35320OCT     C270640  12.356   6.435  20.839  0.1512  0.1137  0.1004
35321OCT     C170641   0.719  18.646   1.851 -0.2712 -0.1155  0.2453
35321OCT     C270642   1.145  18.652   2.077  0.0780 -0.3537  0.0115
35322OCT     C170643  19.809  14.807  20.659 -0.2373  0.1898 -0.0223
35322OCT     C270644  19.431  14.997  20.617  0.2329  0.0029  0.0730
35323OCT     C170645  16.532   8.572  10.748  0.0122  0.3363 -0.0486
35323OCT     C270646  16.102   8.491  10.618 -0.0703 -0.0750 -0.2268
35324OCT     C170647   4.317  13.589  20.760  0.1766 -0.3662 -0.2573
35324OCT     C270648   4.713  13.814  20.769  0.1448  0.4128 -0.1146
35325OCT     C170649   0.087  10.399   0.835 -0.1380  0.3527  0.3020
35325OCT     C270650   0.379  10.364   1.212  0.0131 -0.1090  0.0696
35326OCT     C170651  22.684  15.367  19.972  0.2178 -0.0172 -0.0132
35326OCT     C270652  23.008  15.051  19.966 -0.0999  0.2586 -0.1523
35327OCT     C170653  15.408  17.542  17.333  0.0127  0.0510  0.4758
35327OCT     C270654  15.358  17.346  16.924  0.2542 -0.3788 -0.2293
35328OCT     C170655   3.339  14.055   6.720  0.1533  0.4154  0.0030
35328OCT     C270656   3.257  14.158   6.311 -0.0196  0.1964  0.3622
35329OCT     C170657  18.995   4.807   0.449 -0.2323  0.1031 -0.0622
35329OCT     C270658  18.852   4.614   0.877 -0.0394  0.4050 -0.0284
35330OCT     C170659   9.647   1.903  22.972  0.1456  0.3742  0.1366
35330OCT     C270660   9.901   2.256  22.976 -0.0856 -0.1659  0.3580
35331OCT     C170661  20.541   4.080   6.592 -0.3240 -0.1056 -0.1633
35331OCT     C270662  20.291   4.469   6.408 -0.0759 -0.2530 -0.0521
35332OCT     C170663   9.027   3.502   1.149 -0.2106  0.0558 -0.0889
35332OCT     C270664   8.889   3.942   1.335 -0.1585 -0.1021  0.0733
35333OCT     C170665   2.646  20.105  21.651 -0.2081  0.3071  0.1354
35333OCT     C270666   3.094  20.187  21.594 -0.1529  0.1395 -0.1491
35334OCT     C170667   6.625  17.063   6.799  0.0925 -0.3552  0.1235
35334OCT     C270668   6.285  17.390   6.912 -0.2836  0.0187  0.1759
35335OCT     C170669  22.734  23.479  14.540  0.4572 -0.0950  0.3128
35335OCT     C270670  22.605   0.032  14.171 -0.3520 -0.2013 -0.0426
35336OCT     C170671   8.629  12.455   4.492  0.1934  0.1017 -0.1480
35336OCT     C270672   8.139  12.455   4.374 -0.0885  0.0597  0.0994
35337OCT     C170673  17.932  11.849   2.245 -0.0415  0.2833  0.2664
35337OCT     C270674  18.074  11.491   2.556 -0.0196 -0.0978  0.0678
35338OCT     C170675   5.250   1.849  15.963  0.0661 -0.1066  0.1452
35338OCT     C270676   5.038   2.061  15.651 -0.3413 -0.4012  0.0662
35339OCT     C170677  22.777  17.446   0.238 -0.3704  0.0031 -0.3619
35339OCT     C270678  23.071  17.828   0.136 -0.2049  0.0134 -0.3077
35340OCT     C170679  15.739   5.045   0.471 -0.2816 -0.4059  0.1969
35340OCT     C270680  15.738   5.469   0.667 -0.1025 -0.2675 -0.0045
35341OCT     C170681  17.895  11.894   4.622  0.0125  0.8450 -0.3436
35341OCT     C270682  17.561  11.580   4.386 -0.1717 -0.0134  0.5103
35342OCT     C170683  17.982   8.258  21.006  0.2845 -0.0388  0.2009
35342OCT     C270684  18.237   8.621  20.982 -0.3733  0.0617 -0.2123
35343OCT     C170685   2.678   6.155   0.592 -0.0279  0.2140 -0.3169
35343OCT     C270686   2.373   6.471   0.675 -0.1092  0.2008 -0.0281
35344OCT     C170687   0.591  21.259   4.959 -0.3214 -0.3876  0.1732
35344OCT     C270688   0.222  21.567   4.982  0.1106  0.5772 -0.0907
35345OCT     C170689   1.053  12.225  23.612 -0.0585  0.3265  0.3512
35345OCT     C270690   1.438  12.178   0.065  0.1395  0.3183 -0.2374
35346OCT     C170691  10.563  18.492  13.111  0.2608 -0.4041 -0.2010
35346OCT     C270692  10.703  18.248  12.785  0.1158  0.1895  0.3317
35347OCT     C170693  21.194   4.184   3.613  0.3102 -0.0861  0.1537
35347OCT     C270694  20.875   4.175   3.966  0.3331 -0.3728 -0.1369
35348OCT     C170695   6.183   6.702  12.443 -0.1125 -0.0715 -0.1298
35348OCT     C270696   6.598   6.761  12.230 -0.1382  0.1726  0.0632
35349OCT     C170697  12.654   2.591  21.128 -0.3085 -0.2272 -0.0565
35349OCT     C270698  12.881   2.180  21.023 -0.2115 -0.2577 -0.2235
35350OCT     C170699   4.949   7.615   1.051  0.4552  0.0353  0.0237
35350OCT     C270700   4.753   8.062   0.916  0.0842 -0.2092 -0.0586
35351OCT     C170701  19.891  16.671  21.975 -0.2351  0.0282 -0.1386
35351OCT     C270702  19.628  16.727  22.320  0.1683 -0.3560 -0.1398
35352OCT     C170703  23.497  19.173  16.049  0.0332 -0.1210 -0.1179
35352OCT     C270704  23.297  18.735  16.021 -0.1728  0.0868  0.1925
35353OCT     C170705  11.122   9.385  17.487 -0.2188 -0.4240  0.2370
35353OCT     C270706  10.870   9.746  17.392 -0.1856  0.1110 -0.0122
35354OCT     C170707   8.683   5.035  10.453  0.0941  0.1511  0.0366
35354OCT     C270708   8.459   4.752  10.704  0.1159 -0.0340 -0.0029
35355OCT     C170709  23.374  19.005   8.739 -0.5084  0.0030  0.0131
35355OCT     C270710  23.675  18.707   8.492  0.4131  0.3568  0.1654
35356OCT     C170711   0.030  15.978   8.630  0.1897 -0.0474  0.3848
35356OCT     C270712  23.398  16.006   8.906 -0.1771  0.1420  0.3729
35357OCT     C170713  10.815  11.533   0.648  0.0769 -0.5041 -0.1900
35357OCT     C270714  10.544  11.635   0.242 -0.2141 -0.0704  0.1901
35358OCT     C170715   5.495  18.025  22.494  0.0210  0.1490 -0.4045
35358OCT     C270716   5.114  17.877  22.259  0.3331 -0.0566  0.3561
35359OCT     C170717  10.517   0.801   0.478  0.1621  0.3135  0.2375
35359OCT     C270718  10.268   0.739   0.847 -0.1007 -0.2324  0.1938
35360OCT     C170719  18.180   7.942  21.615 -0.3528  0.0248  0.0578
35360OCT     C270720  18.261   7.512  21.428 -0.2065 -0.1004 -0.2768
35361OCT     C170721  22.851   3.067  23.200  0.0402  0.0770 -0.3999
35361OCT     C270722  22.517   3.204  22.899  0.1605  0.0560 -0.0623
35362OCT     C170723   2.353  10.464  11.888 -0.1047 -0.2036  0.1632
35362OCT     C270724   2.362  10.624  11.456  0.3426 -0.1319  0.2137
35363OCT     C170725   9.572  21.553  17.847 -0.3024 -0.0217  0.1672
35363OCT     C270726   9.701  21.169  17.556  0.1321  0.1584 -0.0287
35364OCT     C170727  19.942  14.200  22.508  0.0763 -0.1614  0.1199
35364OCT     C270728  19.607  13.897  22.543  0.0895  0.2964  0.3247
35365OCT     C170729   6.642  21.368  12.060  0.1769 -0.6027  0.3277
35365OCT     C270730   6.141  21.302  11.957 -0.0037 -0.1242  0.2884
35366OCT     C170731  17.511  17.851  12.737 -0.0723  0.0274 -0.2157
35366OCT     C270732  17.137  18.038  12.460 -0.1196  0.0661 -0.1750
35367OCT     C170733  22.687  19.849   8.354 -0.3410  0.0768 -0.1939
35367OCT     C270734  22.675  19.813   7.880  0.0636 -0.1283 -0.0792
35368OCT     C170735  18.835  19.464  14.063  0.1974 -0.3009  0.1156
35368OCT     C270736  19.115  19.269  14.408 -0.5124 -0.0668  0.1627
35369OCT     C170737  18.126  23.517   3.965 -0.1850 -0.0043  0.0679
35369OCT     C270738  18.571  23.586   3.947 -0.1066  0.0814  0.1367
35370OCT     C170739   9.661   3.430  21.987 -0.1165  0.0492  0.1587
35370OCT     C270740   9.883   3.564  21.542 -0.2137  0.3594  0.3474
35371OCT     C170741  23.447  16.187   2.773 -0.1395 -0.3497 -0.0636
35371OCT     C270742  23.310  16.248   2.308  0.1293 -0.0943  0.2101
35372OCT     C170743  22.695  18.788  23.431  0.1047 -0.3007 -0.0927
35372OCT     C270744  22.344  18.622  23.695 -0.1197  0.1046 -0.4407
35373OCT     C170745  13.499   3.287   0.982  0.0123  0.0619  0.0374
35373OCT     C270746  13.327   3.005   0.637 -0.0886 -0.0895  0.1620
35374OCT     C170747  13.990  17.333  19.429 -0.0941 -0.2963  0.4327
35374OCT     C270748  13.712  17.032  19.511  0.0885 -0.0362 -0.0068
35375OCT     C170749   8.393  18.087  15.792 -0.5581  0.0517 -0.0949
35375OCT     C270750   8.468  17.760  16.135  0.0805 -0.0318 -0.1033
35376OCT     C170751   8.110  17.574  20.080 -0.1829 -0.1758  0.0979
35376OCT     C270752   7.951  17.201  19.847  0.2834 -0.1910  0.0650
35377OCT     C170753   3.986  12.979  22.088  0.1584  0.0120 -0.1267
35377OCT     C270754   3.946  12.824  21.662 -0.1529 -0.0102 -0.1533
35378OCT     C170755  17.564   3.374   6.048 -0.1574  0.2133 -0.1815
35378OCT     C270756  17.710   2.942   6.093  0.4980 -0.1432 -0.1045
35379OCT     C170757  16.005  12.067  17.659 -0.0469 -0.0466 -0.0285
35379OCT     C270758  15.860  12.155  17.226  0.1931 -0.0071 -0.4786
35380OCT     C170759  17.935   3.568  15.657  0.2928  0.0529  0.0908
35380OCT     C270760  18.406   3.442  15.663 -0.0469 -0.0697 -0.0848
35381OCT     C170761  13.116  12.489  22.809 -0.0957  0.3713 -0.0712
35381OCT     C270762  13.173  12.772  22.428  0.0671  0.0616  0.1443
35382OCT     C170763  18.956  15.487  21.225 -0.5267 -0.2162 -0.0112
35382OCT     C270764  18.887  15.865  21.492 -0.0564  0.0416 -0.2051
35383OCT     C170765  13.765  21.346   8.072  0.2739  0.2642  0.1418
35383OCT     C270766  14.027  21.042   8.367 -0.0882  0.1682 -0.0335
35384OCT     C170767  14.297  17.303  11.222  0.0499  0.1903  0.0437
35384OCT     C270768  14.514  17.499  10.838 -0.0598 -0.1657 -0.0129
35385OCT     C170769   1.994   6.209  14.228  0.0012  0.3042 -0.1014
35385OCT     C270770   1.678   6.244  14.549 -0.3397  0.0652  0.0763
35386OCT     C170771   8.689  17.835  19.858  0.1486  0.0810  0.0883
35386OCT     C270772   8.329  17.690  19.627 -0.1653  0.0702 -0.2500
35387OCT     C170773   4.094  10.658   1.933  0.0000  0.0539  0.0446
35387OCT     C270774   4.047  10.943   1.566  0.5735 -0.0620  0.2246
35388OCT     C170775  22.306  16.093   2.299  0.1764  0.1041  0.0918
35388OCT     C270776  22.719  16.346   2.210  0.0138 -0.1324 -0.0327
35389OCT     C170777   9.038   9.860  14.447  0.2339  0.1487  0.0176
35389OCT     C270778   8.906   9.720  14.912  0.2991  0.1838 -0.3918
35390OCT     C170779   1.958   9.077   3.817 -0.2833 -0.2305 -0.2906
35390OCT     C270780   2.079   9.469   4.071 -0.1453  0.0144  0.0478
35391OCT     C170781   6.327  10.709  21.052 -0.1418  0.1064 -0.3368
35391OCT     C270782   5.906  10.536  21.163  0.4902 -0.3658  0.0958
35392OCT     C170783   1.436   4.162   2.541  0.1838 -0.0459 -0.0745
35392OCT     C270784   1.289   4.550   2.301 -0.0220  0.0386 -0.1986
35393OCT     C170785   1.325   3.844  17.604 -0.0538  0.0716  0.3659
35393OCT     C270786   1.610   4.018  17.943  0.1805  0.1464  0.1317
35394OCT     C170787  16.666   1.423  10.318  0.0040  0.4158 -0.0880
35394OCT     C270788  16.452   1.389  10.714  0.3681  0.2495  0.5604
35395OCT     C170789  15.207   5.834  21.470  0.4011 -0.2034 -0.2931
35395OCT     C270790  15.054   6.043  21.086  0.4091 -0.1153  0.3308
35396OCT     C170791  16.971  13.326   4.156 -0.4497  0.0120  0.2317
35396OCT     C270792  16.761  13.575   4.471  0.2456  0.1088 -0.0755
35397OCT     C170793  12.267  20.196  18.347 -0.2844 -0.1132 -0.1925
35397OCT     C270794  12.304  20.488  18.044 -0.0778 -0.1731 -0.1758
35398OCT     C170795  22.156  20.142  20.531  0.1304  0.1296  0.1208
35398OCT     C270796  21.870  20.133  20.898  0.2729  0.0766 -0.1046
35399OCT     C170797  19.545   0.225   2.406 -0.1003 -0.0847 -0.1593
35399OCT     C270798  19.200   0.501   2.247  0.0722  0.2281 -0.1288
35400OCT     C170799  18.461  15.935  13.675 -0.2852  0.5423 -0.3652
35400OCT     C270800  18.419  16.369  13.881 -0.1745  0.5142 -0.3641
35401OCT     C170801   7.944   1.918   0.062  0.3405 -0.1224  0.0839
35401OCT     C270802   7.503   1.887   0.284  0.1216 -0.0774 -0.0889
35402OCT     C170803   4.783  15.978  17.352  0.0171  0.0460  0.1409
35402OCT     C270804   4.802  16.399  17.153  0.2315 -0.2075  0.1737
35403OCT     C170805  20.484  21.592  11.223  0.1401  0.1182  0.2549
35403OCT     C270806  20.030  21.660  11.135  0.1545  0.1163  0.1061
35404OCT     C170807   2.212  11.179   0.428  0.1596  0.4857 -0.1682
35404OCT     C270808   2.564  11.437   0.440 -0.0866  0.0651 -0.2900
35405OCT     C170809  13.067   1.792  20.264 -0.1276  0.0542 -0.0158
35405OCT     C270810  12.921   1.669  19.846  0.0576 -0.0597  0.2277
35406OCT     C170811   2.220   7.804   7.929  0.0861 -0.2667  0.1499
35406OCT     C270812   2.050   7.628   7.488  0.2092  0.1021  0.0279
35407OCT     C170813   7.183  22.513  17.299  0.1922 -0.1957 -0.0429
35407OCT     C270814   7.383  22.824  17.026 -0.1365  0.1125  0.0804
35408OCT     C170815  21.687   4.745  13.267 -0.4072 -0.4621  0.0039
35408OCT     C270816  21.542   4.857  13.730 -0.1348 -0.1697 -0.1286
35409OCT     C170817  10.662   3.075  16.173  0.0552 -0.1132  0.2587
35409OCT     C270818  10.861   3.298  16.559  0.0950 -0.1465  0.1737
35410OCT     C170819  19.266  19.979   9.497  0.0644  0.1486  0.3353
35410OCT     C270820  19.243  20.041   9.020  0.1485  0.0132  0.0467
35411OCT     C170821  12.355   9.899  21.070  0.1045 -0.3046  0.1380
35411OCT     C270822  12.542   9.765  20.674  0.1809 -0.3239  0.2021
35412OCT     C170823   8.224   6.763   0.511 -0.3670  0.3207 -0.0791
35412OCT     C270824   7.846   6.723   0.720  0.2515  0.0122 -0.3902
35413OCT     C170825   4.377  18.290   9.857 -0.0803 -0.0649 -0.0636
35413OCT     C270826   4.254  17.868   9.986  0.2065 -0.0115  0.2894
35414OCT     C170827  10.203  10.001  20.217 -0.0642 -0.0919  0.1416
35414OCT     C270828   9.822  10.151  19.985  0.1780 -0.0073 -0.3875
35415OCT     C170829   4.919   6.343  20.390  0.1113  0.1231 -0.0120
35415OCT     C270830   4.881   5.951  20.124  0.3165  0.0335  0.4935
35416OCT     C170831   3.444  10.684   8.724  0.0484  0.1830  0.2485
35416OCT     C270832   3.221  10.327   8.894 -0.0315 -0.0348  0.0914
35417OCT     C170833   7.563   1.980  17.586  0.4142  0.1799 -0.2232
35417OCT     C270834   7.177   1.858  17.319  0.2394 -0.0353 -0.2387
35418OCT     C170835  12.085  16.413  13.685 -0.2048 -0.1327  0.0866
35418OCT     C270836  12.356  16.057  13.717  0.3242 -0.0542  0.0985
35419OCT     C170837  17.321   4.786  22.306 -0.7229  0.1644 -0.1307
35419OCT     C270838  17.244   5.097  22.610  0.1209  0.2947 -0.3208
35420OCT     C170839   7.145   3.454  10.872  0.0936 -0.2596 -0.2074
35420OCT     C270840   6.830   3.391  11.227  0.1609  0.0444 -0.1725
35421OCT     C170841  13.561   3.883   5.614  0.1087 -0.0304  0.3777
35421OCT     C270842  13.458   3.503   5.905  0.0251 -0.0401 -0.1076
35422OCT     C170843   8.592   4.410   4.541 -0.1658  0.0035 -0.1707
35422OCT     C270844   8.188   4.558   4.573 -0.0515  0.2123 -0.1107
35423OCT     C170845  20.949   9.835  19.399  0.0128 -0.1356 -0.1362
35423OCT     C270846  20.813   9.974  19.821  0.1662 -0.3124  0.1355
35424OCT     C170847   6.899  23.738   3.845 -0.1136 -0.0190  0.0849
35424OCT     C270848   6.900   0.395   3.745  0.1793 -0.4145  0.5761
35425OCT     C170849  21.947   7.585  14.453 -0.0176 -0.1741  0.0535
35425OCT     C270850  21.674   7.364  14.148 -0.0481  0.0459  0.0864
35426OCT     C170851  15.966   7.485  14.167  0.0253  0.0833  0.0960
35426OCT     C270852  16.003   7.315  13.723 -0.2070  0.0211  0.0379
35427OCT     C170853  21.492   1.674  18.505  0.0809 -0.2140  0.2173
35427OCT     C270854  21.799   1.590  18.871  0.0585  0.2204 -0.0824
35428OCT     C170855   0.355  22.339  11.955  0.2605  0.0827 -0.4863
35428OCT     C270856   0.015  22.707  11.910 -0.2570 -0.1433  0.0093
35429OCT     C170857   3.192   6.721  20.209 -0.2628 -0.2478  0.5013
35429OCT     C270858   3.347   6.390  20.529 -0.0199  0.1841 -0.1021
35430OCT     C170859   4.670  16.372  19.831 -0.1111  0.1727  0.2181
35430OCT     C270860   4.960  16.433  19.458  0.1076 -0.1213 -0.1466
35431OCT     C170861  21.047   6.415  16.734  0.2186 -0.2034 -0.2949
35431OCT     C270862  20.957   6.863  16.893 -0.0068 -0.0628 -0.1771
35432OCT     C170863  15.781  20.155  22.745 -0.2265  0.3640 -0.2301
35432OCT     C270864  16.177  19.829  22.697 -0.0157 -0.1864 -0.3048
35433OCT     C170865  23.184   1.107   2.804  0.1894 -0.0016  0.1319
35433OCT     C270866  23.254   1.525   2.929  0.0872  0.1322  0.1542
35434OCT     C170867  19.819  18.124  12.172 -0.3202 -0.0981 -0.0630
35434OCT     C270868  19.518  18.217  11.890 -0.1277  0.1293  0.1253
35435OCT     C170869   4.388  10.719   0.426  0.2990 -0.0690  0.3071
35435OCT     C270870   4.130  11.063   0.281  0.3904 -0.0800  0.0865
35436OCT     C170871  14.918  16.949   2.541 -0.1103 -0.0848  0.1507
35436OCT     C270872  14.550  17.030   2.241  0.1107  0.1837  0.1594
35437OCT     C170873  10.864  14.590   4.468  0.1329 -0.1120  0.0244
35437OCT     C270874  10.452  14.448   4.536 -0.3196  0.1220 -0.1532
35438OCT     C170875  12.082   7.802  17.226 -0.0148  0.1236  0.1271
35438OCT     C270876  12.439   7.883  16.903  0.4473 -0.0181  0.0727
35439OCT     C170877   8.779   5.127  19.485 -0.0201 -0.0628 -0.0126
35439OCT     C270878   9.152   5.084  19.213 -0.1351 -0.1137 -0.1633
35440OCT     C170879   3.077   3.184  17.957  0.0665 -0.2931 -0.2685
35440OCT     C270880   2.961   2.829  18.198  0.2100  0.2344 -0.2844
35441OCT     C170881   0.079  21.180  17.104  0.4981  0.0490 -0.1193
35441OCT     C270882  23.351  21.083  17.174 -0.1797 -0.1344  0.3930
35442OCT     C170883   7.640  17.636  13.727  0.2069  0.0601  0.1412
35442OCT     C270884   7.504  17.919  13.384 -0.2174 -0.0124  0.0008
35443OCT     C170885   8.795   6.676  21.995 -0.1995  0.0075 -0.2445
35443OCT     C270886   8.556   6.886  22.313  0.4402  0.2569 -0.2847
35444OCT     C170887   9.465  19.574  21.820 -0.0125 -0.1581 -0.0101
35444OCT     C270888   9.477  20.044  21.726 -0.3076  0.0132 -0.2109
35445OCT     C170889   8.048   7.865   4.891 -0.1577 -0.1795 -0.1007
35445OCT     C270890   7.731   7.496   4.774  0.0396  0.2514  0.3408
35446OCT     C170891  13.273  20.438  13.956  0.1692  0.3916  0.2743
35446OCT     C270892  12.898  20.297  13.685 -0.1178  0.0185 -0.3066
35447OCT     C170893   1.545   0.142   3.891  0.0775 -0.1582 -0.1219
35447OCT     C270894   1.446  23.453   4.065  0.1699 -0.3611  0.1450
35448OCT     C170895   9.047  22.701   5.566  0.0046 -0.0759  0.0035
35448OCT     C270896   9.319  22.739   5.237  0.2208  0.0451  0.2423
35449OCT     C170897  22.691  19.348  13.305  0.0208 -0.4231 -0.0872
35449OCT     C270898  22.460  18.944  13.367  0.2231  0.4710  0.0451
35450OCT     C170899  22.234   1.904   9.991  0.1191  0.2847 -0.3110
35450OCT     C270900  21.887   2.224  10.023 -0.2217  0.1320  0.3177
35451OCT     C170901  23.513  13.607  19.594 -0.1073 -0.1925 -0.1676
35451OCT     C270902  23.204  13.306  19.838  0.3614 -0.1033  0.3048
35452OCT     C170903   5.160   5.511  11.898  0.5232  0.1138  0.3115
35452OCT     C270904   5.445   5.139  11.860 -0.0038  0.1291  0.0632
35453OCT     C170905   2.698   4.792   7.215 -0.2217  0.2303 -0.1480
35453OCT     C270906   2.731   4.444   6.934  0.0189  0.0980 -0.2100
35454OCT     C170907   5.238  14.637  15.896 -0.2215  0.2085 -0.4441
35454OCT     C270908   5.025  15.019  15.804 -0.0982  0.0032 -0.5088
35455OCT     C170909   5.270   4.915  20.448  0.0231  0.0062  0.1962
35455OCT     C270910   5.554   5.050  20.143 -0.0478  0.2743  0.1854
35456OCT     C170911  15.331  18.525  10.446 -0.0261 -0.1946  0.2966
35456OCT     C270912  15.074  18.884  10.665 -0.0177  0.1972 -0.0723
35457OCT     C170913   9.070   7.460   5.185 -0.1239  0.0672  0.2916
35457OCT     C270914   9.094   7.027   5.153 -0.0761 -0.1471 -0.0356
35458OCT     C170915   1.225  14.896   0.660 -0.1995  0.1022  0.0576
35458OCT     C270916   0.910  15.026   0.960 -0.1809  0.0056 -0.1923
35459OCT     C170917  13.340  14.373  16.219 -0.1499 -0.1984 -0.2711
35459OCT     C270918  13.326  13.972  16.491  0.2335 -0.0558  0.1982
35460OCT     C170919  18.130  21.008  11.112  0.1221  0.1103  0.0789
35460OCT     C270920  17.885  21.295  10.793  0.1409 -0.1666  0.2626
35461OCT     C170921   8.774   2.508  19.866 -0.5049 -0.0572 -0.3547
35461OCT     C270922   9.062   2.774  19.580  0.1666  0.2500 -0.0090
35462OCT     C170923   4.186  11.167  12.691  0.0529 -0.0243 -0.2834
35462OCT     C270924   4.357  10.793  12.848 -0.1889  0.2653  0.0570
35463OCT     C170925  19.612  21.294  15.535  0.3271  0.0228 -0.0890
35463OCT     C270926  19.782  20.934  15.284  0.0338 -0.5673  0.0382
35464OCT     C170927  11.005   4.803   8.335 -0.0400 -0.2075 -0.2264
35464OCT     C270928  11.337   4.514   8.491  0.1721 -0.0353 -0.1728
35465OCT     C170929  16.255  13.369  14.587  0.1137 -0.1092  0.2772
35465OCT     C270930  16.422  13.709  14.877  0.0026  0.3659 -0.0808
35466OCT     C170931   4.100  12.320   5.009  0.0464  0.2758  0.0584
35466OCT     C270932   4.066  12.278   5.479  0.0079 -0.0775  0.2591
35467OCT     C170933  13.348   9.286  20.372  0.3444 -0.0594  0.0269
35467OCT     C270934  13.206   9.655  20.092  0.0399 -0.0170  0.0301
35468OCT     C170935   6.176  22.100   8.872 -0.6399  0.0976 -0.0209
35468OCT     C270936   6.615  22.162   8.922  0.0279 -0.3291  0.0370
35469OCT     C170937  14.516  22.122   4.887 -0.1965 -0.3200 -0.2284
35469OCT     C270938  14.414  22.543   4.799  0.0186 -0.3880 -0.1372
35470OCT     C170939  22.876  15.940  16.836 -0.0263  0.3088 -0.0263
35470OCT     C270940  23.237  16.090  17.102  0.2348 -0.0395 -0.1716
35471OCT     C170941  11.314  11.210   1.498 -0.0032  0.1464  0.0525
35471OCT     C270942  11.674  11.055   1.752 -0.0152 -0.2547 -0.0280
35472OCT     C170943  11.131  13.996  22.492 -0.1034  0.1867  0.0341
35472OCT     C270944  10.721  14.223  22.567  0.2804 -0.0329  0.1636
35473OCT     C170945   6.838  12.301  14.167 -0.2597  0.1222  0.0738
35473OCT     C270946   6.851  12.575  14.500 -0.0611  0.0412 -0.2553
35474OCT     C170947  17.348   3.036   3.599  0.2251 -0.2896  0.3329
35474OCT     C270948  17.084   3.016   3.932 -0.1829  0.2246 -0.0556
35475OCT     C170949   7.113  20.827   2.348 -0.1235  0.1275  0.4355
35475OCT     C270950   7.475  20.902   2.034  0.2053 -0.0414  0.1751
35476OCT     C170951  17.515  23.585   7.941  0.0791 -0.2883 -0.1745
35476OCT     C270952  17.329  23.273   8.169  0.1701  0.0201  0.0677
35477OCT     C170953  20.425   2.069  10.803 -0.0192  0.1936 -0.1488
35477OCT     C270954  20.355   1.888  11.243 -0.0749 -0.1302 -0.2174
35478OCT     C170955   8.066  18.069  17.187 -0.0228 -0.0781 -0.0338
35478OCT     C270956   7.876  18.454  17.385 -0.1008 -0.1984 -0.2320
35479OCT     C170957   0.114   3.400   9.093 -0.1868 -0.3678  0.1811
35479OCT     C270958  23.650   3.111   8.865  0.2640 -0.3970 -0.1675
35480OCT     C170959  22.155  13.875   2.253 -0.0467  0.0631  0.1291
35480OCT     C270960  21.731  13.832   2.025  0.3877 -0.1962 -0.0797
35481OCT     C170961  16.876  15.266  21.385  0.1100 -0.2420  0.0612
35481OCT     C270962  16.796  15.662  21.192  0.4301  0.0349 -0.0171
35482OCT     C170963   4.211   3.260  22.887 -0.0384 -0.2125 -0.0336
35482OCT     C270964   4.277   3.399  22.508  0.3429  0.1679  0.1511
35483OCT     C170965  10.100   5.642  21.612  0.2540 -0.4300  0.0181
35483OCT     C270966  10.380   5.965  21.745 -0.1513  0.1745  0.0626
35484OCT     C170967  22.609   1.220   5.636 -0.0242 -0.1959 -0.2686
35484OCT     C270968  22.403   0.918   5.452  0.2040 -0.0112  0.3289
35485OCT     C170969  11.490  10.025  14.337 -0.0441 -0.3374 -0.0379
35485OCT     C270970  11.558   9.969  13.877 -0.2877 -0.2246  0.0339
35486OCT     C170971   8.234   9.400   5.915 -0.5235  0.0523  0.4801
35486OCT     C270972   8.323   9.216   5.483 -0.2309  0.2143  0.0193
35487OCT     C170973  20.430  14.900  14.714  0.4222  0.4887 -0.1099
35487OCT     C270974  20.651  14.456  14.774  0.1439  0.0514 -0.3886
35488OCT     C170975   9.182  18.844  22.764 -0.2619  0.1203 -0.0871
35488OCT     C270976   9.052  18.612  22.430 -0.1796  0.1737 -0.0618
35489OCT     C170977   7.704   5.994   9.938  0.3055 -0.2893  0.5920
35489OCT     C270978   7.219   6.141   9.966  0.1406  0.0822  0.0483
35490OCT     C170979  20.490  12.567  21.193  0.0487  0.2812  0.1517
35490OCT     C270980  20.074  12.313  21.108  0.1959 -0.0440  0.1820
35491OCT     C170981   1.583   8.730   5.548 -0.3756 -0.0276 -0.1333
35491OCT     C270982   1.557   8.934   5.089 -0.1793  0.0496 -0.4359
35492OCT     C170983   5.163   8.422  17.290  0.1203  0.2616 -0.0856
35492OCT     C270984   5.562   8.242  17.340 -0.1094  0.2659  0.0937
35493OCT     C170985   1.352  15.946   3.374 -0.0655 -0.0737 -0.1408
35493OCT     C270986   1.381  16.156   2.961  0.1402 -0.2296 -0.2532
35494OCT     C170987  11.352  14.551   8.792  0.0713 -0.0686  0.1985
35494OCT     C270988  11.673  14.834   8.685 -0.0780  0.2103  0.0971
35495OCT     C170989  11.555   6.068  17.403  0.1838  0.1410 -0.1140
35495OCT     C270990  11.900   5.912  17.172  0.1494 -0.1163 -0.1331
35496OCT     C170991   6.427   6.970   2.351 -0.1722  0.0440  0.0905
35496OCT     C270992   6.692   6.807   2.696 -0.3653 -0.0059  0.1243
35497OCT     C170993   6.122  19.310  22.464  0.2365 -0.3449 -0.2815
35497OCT     C270994   6.554  19.190  22.614 -0.0157 -0.0074 -0.0074
35498OCT     C170995   7.520  14.267  10.162 -0.2808  0.2471 -0.0127
35498OCT     C270996   7.229  14.113   9.766  0.1756  0.1748 -0.1444
35499OCT     C170997   7.617  21.203   5.980  0.0163 -0.0314 -0.2122
35499OCT     C270998   7.196  21.115   5.785  0.2187  0.1114  0.2086
35500OCT     C170999   5.495   0.341  15.803 -0.1508  0.0954 -0.1429
35500OCT     C271000   5.583  23.661  16.010 -0.0380 -0.3029  0.0639
35501OCT     C171001  20.236  22.889   9.465  0.0354 -0.2542 -0.0155
35501OCT     C271002  20.134  22.506   9.196  0.5023  0.2386  0.2370
35502OCT     C171003  12.827  10.248   4.036 -0.1187 -0.0943  0.0968
35502OCT     C271004  12.939  10.280   3.605 -0.0953 -0.0849 -0.4431
35503OCT     C171005  20.709  18.328   1.626  0.2512 -0.2332 -0.1313
35503OCT     C271006  20.418  17.996   1.746 -0.2066  0.3089  0.0524
35504OCT     C171007   4.827  17.542   1.438 -0.0108  0.1754 -0.0211
35504OCT     C271008   5.226  17.285   1.402 -0.0392  0.0799 -0.3091
35505OCT     C171009   7.632   7.360  17.156  0.2477 -0.0010  0.3902
35505OCT     C271010   7.972   7.573  17.454  0.1656  0.1734  0.2561
35506OCT     C171011   5.096   8.529  14.773  0.0498 -0.0740 -0.0665
35506OCT     C271012   4.852   8.506  15.160  0.0574 -0.0130  0.1765
35507OCT     C171013  18.502   4.003  13.508 -0.2367 -0.0564 -0.2872
35507OCT     C271014  18.030   4.107  13.530  0.2599 -0.5420  0.0485
35508OCT     C171015  20.019  17.967   6.430 -0.0384 -0.1524 -0.1258
35508OCT     C271016  20.043  17.796   6.865  0.1645  0.0048 -0.1069
35509OCT     C171017   5.439  16.535  23.177 -0.0960 -0.4041 -0.9439
35509OCT     C271018   5.529  16.270  22.877 -0.0282 -0.0203 -0.0555
35510OCT     C171019   9.550  11.654  15.790  0.0780  0.2591  0.0183
35510OCT     C271020   9.600  11.614  15.287 -0.1030 -0.2010 -0.0139
35511OCT     C171021   7.548   4.090  22.364  0.0207 -0.2384  0.1988
35511OCT     C271022   7.262   4.188  22.005 -0.2570 -0.1544 -0.2057
35512OCT     C171023  15.163   4.068   8.844  0.0576  0.2411  0.1051
35512OCT     C271024  15.127   4.357   9.269  0.1205 -0.1609 -0.1106
35513OCT     C171025  19.385  17.535   2.148 -0.1821 -0.3192 -0.0305
35513OCT     C271026  19.813  17.608   2.134  0.5148 -0.2029  0.1452
35514OCT     C171027  11.510   3.943  12.885  0.0243 -0.1497  0.4414
35514OCT     C271028  11.658   3.684  13.272 -0.0897 -0.0490  0.1516
35515OCT     C171029   8.820  18.337   6.974 -0.0983  0.1812  0.0176
35515OCT     C271030   8.717  18.344   6.539 -0.1126 -0.1999  0.1666
35516OCT     C171031   5.512   1.230  21.190 -0.0237  0.2985 -0.1637
35516OCT     C271032   5.868   1.554  21.296 -0.0614  0.0905  0.2502
35517OCT     C171033   0.335  11.408  10.058 -0.2984  0.0828  0.3880
35517OCT     C271034   0.758  11.524   9.780 -0.0661 -0.1788 -0.0004
35518OCT     C171035  12.271   9.964   9.472  0.2881  0.1371 -0.3803
35518OCT     C271036  12.236  10.365   9.199 -0.1903 -0.2631  0.2245
35519OCT     C171037   6.866  17.259  14.260  0.1676 -0.0006  0.0346
35519OCT     C271038   6.726  17.716  14.099 -0.1473 -0.1091  0.0168
35520OCT     C171039   5.594   3.865   2.153  0.4621  0.3263 -0.1647
35520OCT     C271040   5.930   3.665   2.453  0.0899 -0.4880 -0.0999
35521OCT     C171041  14.694   0.916  13.730 -0.1722 -0.3955  0.4034
35521OCT     C271042  14.878   0.681  13.339  0.2044  0.0675  0.0676
35522OCT     C171043  19.685  17.146  16.898 -0.1192  0.1702 -0.1243
35522OCT     C271044  19.632  17.277  17.346  0.0072  0.1568 -0.2054
35523OCT     C171045   5.322  13.362  17.196  0.0612 -0.0277 -0.0872
35523OCT     C271046   5.264  13.230  17.627  0.3931  0.1016 -0.0378
35524OCT     C171047   5.242   3.696  20.254  0.4327  0.0078 -0.1453
35524OCT     C271048   4.941   3.479  20.524 -0.2982  0.1311  0.2693
35525OCT     C171049   8.811   4.638  14.019 -0.3688 -0.0304  0.2904
35525OCT     C271050   8.682   5.069  14.103 -0.1066  0.1925  0.2640
35526OCT     C171051  11.443   7.625   2.205  0.3093 -0.2322 -0.0354
35526OCT     C271052  11.547   7.289   1.908  0.0178 -0.1606  0.1595
35527OCT     C171053  13.355  13.988  13.655  0.1235  0.0290 -0.1239
35527OCT     C271054  13.691  13.911  13.972 -0.0544 -0.2359 -0.3021
35528OCT     C171055  23.727  22.069  10.574 -0.1294  0.0443 -0.0455
35528OCT     C271056   0.053  21.604  10.507 -0.2355  0.0975 -0.4727
35529OCT     C171057   2.220  17.234   8.750 -0.1665 -0.1930 -0.0712
35529OCT     C271058   2.064  16.919   8.475  0.3298  0.0681 -0.1580
35530OCT     C171059  20.993  12.249  17.665 -0.2130 -0.2517  0.2766
35530OCT     C271060  20.889  12.060  17.287 -0.2192 -0.3152  0.0487
35531OCT     C171061   5.326   3.055  21.452 -0.5459 -0.4126  0.0935
35531OCT     C271062   5.477   2.674  21.198  0.1362  0.1095  0.1369
35532OCT     C171063   7.800   3.755   4.685  0.2710 -0.2827  0.2309
35532OCT     C271064   7.510   3.459   4.513  0.0434  0.1413  0.3564
35533OCT     C171065   0.307   4.505   2.425  0.0882  0.0989 -0.0341
35533OCT     C271066  23.629   4.704   2.535 -0.0327  0.0669  0.0664
35534OCT     C171067   4.661  17.069  20.714  0.0186  0.2783  0.1864
35534OCT     C271068   5.057  16.815  20.676  0.1181 -0.3236 -0.4628
35535OCT     C171069   9.044  19.772   8.400  0.0686 -0.4798 -0.0516
35535OCT     C271070   9.359  19.938   8.142  0.0491  0.3170 -0.0047
35536OCT     C171071  17.803  17.361  11.491  0.0294 -0.2329 -0.4056
35536OCT     C271072  18.088  17.345  11.847  0.1560 -0.2968  0.4240
35537OCT     C171073  15.357  15.890  18.028 -0.3379  0.3624  0.1583
35537OCT     C271074  15.263  16.333  17.766 -0.1725  0.1722  0.1401
35538OCT     C171075   6.592   7.589  21.513 -0.0935  0.0935 -0.1115
35538OCT     C271076   6.846   7.252  21.690 -0.2960 -0.1420  0.0739
35539OCT     C171077  11.149   8.621  20.190 -0.0686 -0.0965 -0.0334
35539OCT     C271078  10.736   8.797  19.957  0.1019  0.1976 -0.1232
35540OCT     C171079   8.353  15.813  12.390 -0.4452  0.0448 -0.0159
35540OCT     C271080   8.432  15.443  12.589 -0.3232  0.0453  0.2529
35541OCT     C171081   5.647  12.552  19.319 -0.0150 -0.0124  0.0223
35541OCT     C271082   5.185  12.538  19.225  0.0129  0.0221 -0.0989
35542OCT     C171083  10.721   4.364  14.806 -0.3051 -0.3467  0.2907
35542OCT     C271084  10.340   4.678  14.734  0.4394  0.2803  0.2081
35543OCT     C171085   7.079  22.789  11.470  0.0552  0.1245  0.4458
35543OCT     C271086   7.023  22.393  11.242 -0.0005  0.0225  0.2834
35544OCT     C171087  21.639  13.106  19.261  0.1209 -0.2372  0.2815
35544OCT     C271088  21.225  12.859  19.139 -0.1271  0.0331  0.0156
35545OCT     C171089  12.288  17.398  15.524  0.0752 -0.0206  0.4223
35545OCT     C271090  12.716  17.473  15.503  0.0876 -0.1712 -0.0681
35546OCT     C171091  22.728  17.294  10.125  0.3779 -0.3398 -0.1516
35546OCT     C271092  22.671  17.728  10.358 -0.2905  0.2681  0.1503
35547OCT     C171093   7.224   6.378   7.005 -0.2262 -0.1867  0.0701
35547OCT     C271094   7.036   6.728   6.761 -0.0481  0.0814 -0.0246
35548OCT     C171095  17.637  14.247  21.875  0.0172 -0.2705  0.0630
35548OCT     C271096  17.284  14.309  21.654 -0.3271 -0.2393  0.1796
35549OCT     C171097   8.165  12.568  23.106  0.2610  0.3220 -0.0758
35549OCT     C271098   8.148  12.894  23.440  0.0506 -0.2762  0.1462
35550OCT     C171099  20.792   9.801   6.076 -0.1313  0.2556  0.1610
35550OCT     C271100  20.879  10.229   6.231  0.1064 -0.0746  0.0727
35551OCT     C171101   2.447  22.585  11.156  0.2231  0.1862 -0.0427
35551OCT     C271102   2.371  22.176  11.338  0.1534 -0.0577  0.1006
35552OCT     C171103  21.504  13.002   2.551 -0.0925  0.1706  0.1092
35552OCT     C271104  21.845  12.945   2.247  0.0997  0.1525  0.1089
35553OCT     C171105  12.013  18.511   1.868 -0.3098 -0.0140  0.3188
35553OCT     C271106  12.017  18.398   1.395 -0.2368  0.0515  0.1676
35554OCT     C171107  12.626   7.254  14.068  0.0886  0.6270  0.2003
35554OCT     C271108  12.841   7.068  14.413  0.0961  0.2175 -0.0473
35555OCT     C171109  11.849  18.133  17.884  0.1064  0.2428  0.2381
35555OCT     C271110  11.662  17.706  17.688 -0.4335  0.2889  0.3304
35556OCT     C171111   8.840   8.747  13.914  0.1196 -0.3003  0.2134
35556OCT     C271112   8.682   8.360  13.658  0.4895  0.0274  0.0797
35557OCT     C171113   4.944  20.557  13.911  0.2520  0.0503  0.0257
35557OCT     C271114   5.093  20.728  13.517 -0.0238 -0.5590  0.2702
35558OCT     C171115   6.575  13.950   4.443 -0.0478  0.2166  0.1885
35558OCT     C271116   6.992  14.113   4.257 -0.2414  0.1919  0.1121
35559OCT     C171117   2.574  23.291  21.998 -0.1509  0.0067 -0.0561
35559OCT     C271118   2.927  23.219  21.711  0.3797 -0.0238  0.2646
35560OCT     C171119  17.250  11.325   8.904 -0.0706 -0.1168  0.2565
35560OCT     C271120  17.351  11.502   9.330 -0.0273 -0.1936  0.1113
35561OCT     C171121  11.337  10.313   6.902  0.0076  0.0601  0.0033
35561OCT     C271122  11.256   9.928   7.141  0.1386  0.1321  0.2580
35562OCT     C171123  19.281  21.054   1.136 -0.0893 -0.0077 -0.2015
35562OCT     C271124  19.664  20.959   0.809  0.1374  0.2141 -0.0069
35563OCT     C171125  22.851   4.167   1.108 -0.0355  0.0669  0.0917
35563OCT     C271126  23.147   4.351   0.778  0.0807  0.3171 -0.0282
35564OCT     C171127  17.188   6.963   6.536 -0.1030  0.0511 -0.1683
35564OCT     C271128  16.992   7.356   6.426  0.2641  0.3576 -0.1539
35565OCT     C171129   7.116  20.203   0.098  0.2507 -0.3890  0.0058
35565OCT     C271130   6.995  20.448   0.492  0.2647  0.3859 -0.0518
35566OCT     C171131  16.538  22.351   3.239 -0.3284  0.0681 -0.5435
35566OCT     C271132  16.374  22.559   2.842  0.0045 -0.0197  0.2115
35567OCT     C171133   5.265   4.033   4.897 -0.1511  0.0396 -0.2025
35567OCT     C271134   5.393   4.423   4.600  0.0559 -0.3000 -0.0238
35568OCT     C171135  12.662  13.196   9.903  0.2580 -0.0906 -0.2924
35568OCT     C271136  12.271  13.071   9.694 -0.0390  0.3575 -0.2176
35569OCT     C171137  15.697   8.159  12.700  0.0392  0.0567 -0.0302
35569OCT     C271138  15.484   7.816  12.556  0.1320 -0.1387 -0.1288
35570OCT     C171139  14.945   8.740   6.050 -0.3195 -0.0955  0.2185
35570OCT     C271140  15.327   9.013   6.179 -0.1709  0.0454 -0.1202
35571OCT     C171141   1.673   3.803   3.456 -0.1071  0.1453 -0.4432
35571OCT     C271142   2.039   4.063   3.602  0.0154 -0.0957 -0.3740
35572OCT     C171143   6.859  18.529  12.187  0.1050 -0.3188  0.2613
35572OCT     C271144   7.299  18.294  12.124 -0.0270  0.4028  0.3754
35573OCT     C171145  12.279  10.986  10.041  0.1236 -0.0566 -0.3289
35573OCT     C271146  12.453  11.353  10.302  0.1203  0.1511  0.0379
35574OCT     C171147  15.317  18.807  20.094 -0.0512  0.1453 -0.1026
35574OCT     C271148  15.743  18.746  19.928  0.0724 -0.3280  0.1510
35575OCT     C171149  11.082  15.595  13.160  0.0457  0.1602 -0.0359
35575OCT     C271150  11.166  15.352  12.750 -0.0542 -0.2640  0.2384
35576OCT     C171151   4.260   8.709  10.073  0.4058 -0.0638 -0.0106
35576OCT     C271152   4.375   8.263  10.142  0.3196  0.0151  0.1949
35577OCT     C171153   5.550   7.864  13.901 -0.0231 -0.3478 -0.0760
35577OCT     C271154   5.264   8.052  14.231  0.0129  0.1020  0.1729
35578OCT     C171155   6.947  13.910  16.622  0.0611 -0.0333  0.3053
35578OCT     C271156   7.012  13.523  16.721  0.0734 -0.0106 -0.0088
35579OCT     C171157  15.607   7.122   8.053 -0.0694 -0.0583 -0.0792
35579OCT     C271158  15.905   7.286   7.733  0.4023  0.2166  0.0652
35580OCT     C171159   8.798   8.893   0.087  0.2733 -0.2228  0.2574
35580OCT     C271160   8.642   8.491   0.259  0.0164 -0.3446 -0.3826
35581OCT     C171161   7.881   3.227  21.844 -0.0592  0.2189 -0.0989
35581OCT     C271162   7.889   3.025  22.251  0.4347  0.0077  0.1071
35582OCT     C171163   2.110  18.146   4.928  0.1267  0.2157  0.0160
35582OCT     C271164   2.291  18.393   4.559  0.1940  0.0658 -0.2768
35583OCT     C171165  15.035   9.230  11.588  0.2503  0.2026  0.0857
35583OCT     C271166  14.824   9.618  11.285  0.0707 -0.1547  0.0416
35584OCT     C171167  19.462   4.868   3.211  0.0757 -0.0980 -0.2685
35584OCT     C271168  19.457   4.506   3.479  0.3698  0.3590  0.0485
35585OCT     C171169  13.863  15.832   5.347 -0.3561 -0.0806  0.0641
35585OCT     C271170  13.510  15.752   5.694 -0.2437 -0.0278  0.2677
35586OCT     C171171   9.087  22.842  14.706 -0.1582  0.3391  0.3163
35586OCT     C271172   8.692  22.837  14.895 -0.1003  0.0438  0.2801
35587OCT     C171173  13.234  17.229  20.128 -0.0462 -0.0851 -0.1735
35587OCT     C271174  13.450  17.508  20.448 -0.0398 -0.1595  0.0289
35588OCT     C171175  15.197   0.535  10.953 -0.1776 -0.0960  0.0621
35588OCT     C271176  14.758   0.691  10.771 -0.0808 -0.0694  0.0953
35589OCT     C171177  19.432  21.552   3.859 -0.0476 -0.1683  0.0064
35589OCT     C271178  19.354  21.523   4.294 -0.0579 -0.1600 -0.2444
35590OCT     C171179   0.605   9.135  11.492  0.1816 -0.0420 -0.3732
35590OCT     C271180   0.506   9.415  11.118  0.0784 -0.2670  0.1128
35591OCT     C171181  17.799   2.193  16.167 -0.4044 -0.0033  0.1517
35591OCT     C271182  17.821   1.703  16.190  0.1319 -0.3791  0.0154
35592OCT     C171183  19.422  18.180   6.937  0.3134  0.5670 -0.2792
35592OCT     C271184  19.880  18.264   6.851  0.1068  0.1953 -0.3633
35593OCT     C171185  20.173  21.123  11.368  0.0047 -0.0942 -0.1035
35593OCT     C271186  20.095  21.213  10.930  0.1066 -0.2089 -0.0539
35594OCT     C171187  13.159  16.998   3.830 -0.4884 -0.3144 -0.1977
35594OCT     C271188  13.200  16.701   4.213 -0.0487 -0.0278 -0.0927
35595OCT     C171189  11.179  18.704  16.123  0.2588 -0.1015 -0.0257
35595OCT     C271190  11.630  18.775  16.203  0.5052 -0.0616 -0.2304
35596OCT     C171191  23.205  11.679  17.257 -0.1645  0.0607 -0.0923
35596OCT     C271192  23.433  11.553  17.701 -0.1937  0.0603  0.0379
35597OCT     C171193   9.433   6.792   2.624  0.2085 -0.0322 -0.0391
35597OCT     C271194   9.204   6.963   2.244 -0.1812 -0.1562  0.1486
35598OCT     C171195   3.569   8.221   9.803  0.3607 -0.0345 -0.0381
35598OCT     C271196   3.862   8.401  10.089  0.3090 -0.0723  0.0282
35599OCT     C171197   2.105   7.757   6.332  0.1074  0.2809  0.0171
35599OCT     C271198   1.801   8.065   6.458  0.1865 -0.0644 -0.0979
35600OCT     C171199   2.723  11.787   0.104  0.5999  0.0430  0.0203
35600OCT     C271200   3.147  11.851   0.065  0.0777  0.0879  0.0427
35601OCT     C171201  13.551   5.278   4.150 -0.0854 -0.4178 -0.0135
35601OCT     C271202  13.962   5.363   4.434  0.4752 -0.3274  0.0401
35602OCT     C171203   8.732  10.067  23.593 -0.3754  0.2765  0.0551
35602OCT     C271204   8.683  10.253   0.291 -0.0059  0.0279 -0.0893
35603OCT     C171205   4.512   4.354  15.502  0.0631  0.0369 -0.2444
35603OCT     C271206   4.079   4.537  15.651  0.2601  0.0828 -0.0909
35604OCT     C171207  16.299   9.589   1.157  0.2529  0.0177  0.0187
35604OCT     C271208  16.387   9.965   1.453 -0.1468 -0.1485 -0.3800
35605OCT     C171209   3.485  22.377   3.945  0.1642  0.0803 -0.0149
35605OCT     C271210   3.322  22.004   3.832  0.1637 -0.0800  0.3009
35606OCT     C171211   7.875   6.469  12.389  0.0801  0.0082  0.0077
35606OCT     C271212   8.286   6.298  12.344  0.1774 -0.2585  0.1078
35607OCT     C171213   5.342   4.479   1.523 -0.2599 -0.3391 -0.0161
35607OCT     C271214   5.369   4.077   1.618 -0.0455  0.0103 -0.1669
35608OCT     C171215  19.092   5.420   2.783 -0.1337  0.0593  0.0098
35608OCT     C271216  19.416   5.676   3.031  0.2213 -0.0972 -0.0684
35609OCT     C171217  15.738  10.397   0.851 -0.0734  0.4102 -0.0312
35609OCT     C271218  15.986  10.275   0.465  0.1816 -0.0897 -0.0674
35610OCT     C171219   2.058  20.597   1.094  0.2604  0.3021 -0.0016
35610OCT     C271220   2.135  20.699   1.580  0.0471 -0.0737  0.0371
35611OCT     C171221  21.300  22.269   1.671  0.1860 -0.0169 -0.2206
35611OCT     C271222  21.192  21.780   1.598  0.0520 -0.0395  0.1241
35612OCT     C171223   9.649  14.840  18.192  0.0078  0.3770  0.2936
35612OCT     C271224   9.631  14.573  18.560  0.0557 -0.0864  0.0783
35613OCT     C171225   6.142   9.830   6.828  0.1158 -0.2525 -0.3064
35613OCT     C271226   5.992  10.062   7.252 -0.0061  0.1558 -0.0214
35614OCT     C171227  12.281   9.975   8.808  0.5301  0.4658 -0.2571
35614OCT     C271228  11.825   9.776   8.769  0.3658 -0.2888 -0.0985
35615OCT     C171229   5.850  19.751   5.900 -0.3335  0.0043 -0.1199
35615OCT     C271230   6.234  19.445   5.965 -0.0170  0.0277 -0.1911
35616OCT     C171231  10.753   2.097  13.278  0.0888 -0.3807 -0.2810
35616OCT     C271232  11.216   1.951  13.296 -0.6344  0.1257 -0.2769
35617OCT     C171233  18.807  20.162   7.022  0.2017  0.2518  0.1304
35617OCT     C271234  18.547  20.298   7.429 -0.1522  0.5492  0.0554
35618OCT     C171235  13.119   6.743  14.122  0.2099  0.4226 -0.1446
35618OCT     C271236  13.066   7.132  13.865  0.0382 -0.2621 -0.0315
35619OCT     C171237  10.119  12.379   8.559 -0.1889 -0.0445 -0.0558
35619OCT     C271238   9.742  12.053   8.661 -0.0990  0.1132 -0.1115
35620OCT     C171239   2.839   0.464  17.438  0.0606 -0.0165  0.3559
35620OCT     C271240   3.053   0.122  17.725 -0.0347 -0.4173 -0.0756
35621OCT     C171241   8.458   8.517   7.023 -0.1638 -0.1347  0.7192
35621OCT     C271242   8.210   8.679   7.391  0.3069  0.1551 -0.3606
35622OCT     C171243   7.644  22.442   1.562 -0.0606 -0.0174 -0.0375
35622OCT     C271244   7.889  22.782   1.801 -0.1145  0.2546  0.0803
35623OCT     C171245   9.019  17.826  12.533  0.0593 -0.2239 -0.0543
35623OCT     C271246   8.603  18.020  12.309 -0.0274  0.2964  0.2118
35624OCT     C171247  12.396  21.601   1.227 -0.1407  0.0638  0.1665
35624OCT     C271248  12.054  21.574   0.872 -0.0768  0.0817 -0.1620
35625OCT     C171249  22.146  14.602  11.532 -0.0425 -0.1338 -0.0171
35625OCT     C271250  22.436  14.605  11.870  0.1855 -0.3889  0.2113
35626OCT     C171251  22.413  12.763   3.173  0.1799 -0.1741 -0.0555
35626OCT     C271252  21.952  12.636   2.993 -0.0314 -0.0669 -0.0712
35627OCT     C171253  15.242  19.600   0.222  0.1292  0.0904  0.2002
35627OCT     C271254  14.790  19.733   0.341 -0.0197 -0.2795 -0.3242
35628OCT     C171255  22.895  17.425  12.954 -0.0906 -0.0343 -0.1072
35628OCT     C271256  23.290  17.162  12.873  0.3332  0.0742 -0.1458
35629OCT     C171257  19.207  22.751   5.629 -0.0388  0.3644 -0.1305
35629OCT     C271258  19.466  22.672   5.267 -0.2233  0.0662  0.2471
35630OCT     C171259  20.273  20.429  20.168 -0.0544  0.4338 -0.0433
35630OCT     C271260  20.078  20.665  20.556 -0.1506 -0.1447 -0.0733
35631OCT     C171261   0.895   0.665   3.156  0.2584  0.2687 -0.0228
35631OCT     C271262   1.124   0.657   2.759 -0.0059 -0.0206  0.1680
35632OCT     C171263  17.321  22.310   6.073 -0.3055 -0.0023 -0.1163
35632OCT     C271264  17.771  22.143   6.180  0.0290 -0.1823 -0.1369
35633OCT     C171265  22.844   4.664  17.349 -0.2074  0.1486 -0.2116
35633OCT     C271266  22.383   4.789  17.383 -0.4891  0.0427  0.0221
35634OCT     C171267   5.232  13.095   2.568  0.0508 -0.0164 -0.0313
35634OCT     C271268   5.017  13.204   2.158  0.0049  0.3413  0.1994
35635OCT     C171269   3.192  19.626  21.737 -0.2320  0.1985  0.0644
35635OCT     C271270   3.012  19.220  21.783  0.2937 -0.3495  0.0658
35636OCT     C171271  19.519  19.864  20.278  0.1330  0.0354  0.1004
35636OCT     C271272  19.177  20.211  20.227 -0.1866  0.0415  0.2933
35637OCT     C171273   2.741   2.572  16.538 -0.0608  0.0153 -0.0547
35637OCT     C271274   2.564   2.949  16.284 -0.1280  0.1463  0.3987
35638OCT     C171275  19.032  13.513   6.840 -0.3769 -0.1963  0.0758
35638OCT     C271276  18.609  13.638   6.814  0.1956 -0.0982  0.3009
35639OCT     C171277  18.663   8.391  15.936 -0.1889 -0.1069  0.1133
35639OCT     C271278  18.456   8.787  16.050  0.4602  0.3462 -0.0117
35640OCT     C171279  22.665   6.134   3.484  0.0302 -0.2530  0.0954
35640OCT     C271280  22.878   5.781   3.346 -0.1617  0.1990  0.2132
35641OCT     C171281  11.853   2.052   1.766 -0.1980  0.2549 -0.0723
35641OCT     C271282  12.342   2.065   1.727  0.3251  0.1202 -0.3362
35642OCT     C171283  10.576   6.497  19.777 -0.0809 -0.2578 -0.1162
35642OCT     C271284  10.581   6.720  19.420  0.1989  0.1395 -0.0683
35643OCT     C171285  16.159  20.599  13.480  0.1325  0.0550 -0.2323
35643OCT     C271286  15.852  20.435  13.813 -0.2055  0.5020  0.0545
35644OCT     C171287  19.853  13.711   0.012 -0.0115 -0.3461 -0.1588
35644OCT     C271288  19.568  13.953  23.450 -0.2842  0.0066 -0.0345
35645OCT     C171289   0.442  11.324   4.258 -0.2878 -0.0836  0.2805
35645OCT     C271290   0.489  10.862   4.294 -0.0052  0.2291 -0.1753
35646OCT     C171291  23.338  22.318  17.898 -0.1098  0.0960  0.1394
35646OCT     C271292  23.223  21.836  17.878  0.0835 -0.1226  0.1453
35647OCT     C171293  18.491  12.103   8.052  0.4942  0.4525  0.1308
35647OCT     C271294  18.697  11.901   7.693 -0.0916  0.1914  0.2831
35648OCT     C171295   6.628  15.197   2.298  0.2511  0.7735  0.1591
35648OCT     C271296   6.689  14.794   2.533 -0.3759  0.0122  0.0623
35649OCT     C171297  14.708   9.441  20.166 -0.3661  0.3753  0.0667
35649OCT     C271298  14.844   9.126  20.522 -0.1343 -0.0782 -0.6327
35650OCT     C171299  11.489   9.090   3.385  0.0227 -0.2349  0.2126
35650OCT     C271300  11.602   8.795   3.039  0.3747 -0.1438 -0.4029
35651OCT     C171301  20.393   1.951   2.747 -0.0504  0.3195 -0.4898
35651OCT     C271302  20.830   1.946   2.816 -0.0494  0.0369  0.1529
35652OCT     C171303   9.821   2.387   9.558  0.2523  0.0259 -0.0661
35652OCT     C271304  10.140   2.067   9.731 -0.0920 -0.2261  0.1795
35653OCT     C171305   2.401  15.643  11.235  0.3449  0.0017  0.0409
35653OCT     C271306   2.563  16.023  11.206  0.0035 -0.0470 -0.1224
35654OCT     C171307   3.043  13.613  20.877 -0.0736 -0.1050 -0.1240
35654OCT     C271308   2.784  13.907  21.118 -0.0871 -0.3495  0.1693
35655OCT     C171309  20.618   8.826  21.713 -0.0509  0.0147 -0.3111
35655OCT     C271310  20.343   8.890  22.155 -0.0340 -0.1140 -0.0012
35656OCT     C171311  22.686   7.317  15.445 -0.0093 -0.1641 -0.0385
35656OCT     C271312  22.219   7.364  15.530 -0.1369  0.0811 -0.0152
35657OCT     C171313   5.322   0.826   5.598 -0.0330  0.2160  0.0873
35657OCT     C271314   5.700   1.179   5.681  0.1370  0.2951  0.0308
35658OCT     C171315   9.485   2.380  19.503 -0.0426 -0.0935  0.4636
35658OCT     C271316   9.050   2.187  19.544 -0.1918  0.1692 -0.4126
35659OCT     C171317  10.626  21.829   1.901  0.3742  0.0282 -0.1632
35659OCT     C271318  10.736  22.001   1.464  0.0792  0.1412 -0.2081
35660OCT     C171319  11.231  16.582   0.050  0.3245  0.0359 -0.1022
35660OCT     C271320  11.617  16.419  23.554 -0.1444  0.1183 -0.1797
35661OCT     C171321  10.235  23.624   7.337 -0.3889 -0.1414  0.0295
35661OCT     C271322  10.090  23.623   7.812  0.0624  0.3040 -0.3296
35662OCT     C171323  22.700  19.872   9.941 -0.0125  0.0093  0.0918
35662OCT     C271324  22.546  19.896   9.496 -0.1217 -0.0516 -0.0482
35663OCT     C171325  18.189  16.728   8.316 -0.3304 -0.2797  0.0175
35663OCT     C271326  17.948  16.722   7.961 -0.2857  0.0792  0.2351
35664OCT     C171327  13.125   8.495  20.597 -0.1377 -0.2611  0.1820
35664OCT     C271328  12.936   8.356  20.196  0.2176  0.2140  0.1822
35665OCT     C171329   9.267  16.445  12.307  0.1401 -0.1839  0.0310
35665OCT     C271330   9.727  16.362  12.377 -0.0158  0.1014 -0.1985
35666OCT     C171331  18.846  15.790  15.687 -0.0438  0.1173 -0.0171
35666OCT     C271332  19.026  16.025  15.303  0.0128  0.4426  0.2476
35667OCT     C171333  23.353   4.132  14.137  0.2141 -0.1481 -0.0537
35667OCT     C271334  23.399   4.087  14.593 -0.0601 -0.0534  0.5043
35668OCT     C171335  14.582   3.739  22.578  0.2102  0.1830 -0.2815
35668OCT     C271336  14.869   3.891  22.960  0.2159  0.2259  0.3125
35669OCT     C171337  21.259  23.367  10.202 -0.2504  0.0217 -0.2165
35669OCT     C271338  20.931  23.516   9.895  0.2613 -0.0830 -0.0729
35670OCT     C171339   8.056  14.382  12.010  0.0618 -0.3184  0.2990
35670OCT     C271340   7.769  14.056  12.143  0.0017 -0.2771 -0.3040
35671OCT     C171341   1.697   7.545  23.740  0.0562 -0.4469 -0.0569
35671OCT     C271342   2.036   7.902  23.704 -0.1613 -0.2463  0.2737
35672OCT     C171343  17.644  20.120  12.301 -0.0763 -0.2949  0.0910
35672OCT     C271344  18.047  20.131  12.605  0.0005 -0.0920 -0.2074
35673OCT     C171345  11.629  16.673  15.160 -0.1404  0.1537 -0.1565
35673OCT     C271346  11.404  16.584  15.520  0.2859  0.1820 -0.2028
35674OCT     C171347   9.791  19.599  14.390  0.2506 -0.4592 -0.1492
35674OCT     C271348   9.929  19.377  14.020  0.0096  0.2604 -0.0739
35675OCT     C171349   7.530  20.211   7.190  0.1501  0.0341  0.1627
35675OCT     C271350   7.190  20.092   6.863 -0.0289 -0.1148 -0.0025
35676OCT     C171351  18.946   4.407  19.731  0.0912  0.1042  0.0726
35676OCT     C271352  19.165   4.838  19.725  0.1156  0.0923  0.0945
35677OCT     C171353  20.626   1.493  10.232 -0.2629 -0.0885  0.3135
35677OCT     C271354  20.503   1.174  10.556 -0.1452 -0.2309  0.0788
35678OCT     C171355  15.970   7.018  21.597 -0.0918  0.3168  0.1263
35678OCT     C271356  15.925   6.762  21.963  0.1747 -0.0541  0.1018
35679OCT     C171357   8.253  12.451  17.696 -0.2219 -0.1202 -0.0094
35679OCT     C271358   8.595  12.511  17.975  0.0771  0.1331  0.1110
35680OCT     C171359  19.267  10.849   4.044  0.1277  0.0012 -0.0437
35680OCT     C271360  19.517  11.274   4.106  0.0861 -0.3499  0.5692
35681OCT     C171361  18.525   5.017   1.249  0.0391  0.0335 -0.1085
35681OCT     C271362  18.167   5.056   0.978 -0.0458 -0.0703 -0.0625
35682OCT     C171363  22.986   7.687  21.698 -0.2647  0.3409 -0.0199
35682OCT     C271364  23.110   7.272  21.449 -0.3198  0.0612 -0.3550
35683OCT     C171365   1.521   5.813  18.016  0.0048 -0.0075 -0.0183
35683OCT     C271366   1.862   5.858  17.719 -0.0117 -0.2186 -0.1469
35684OCT     C171367   1.140  21.113   4.406 -0.1199  0.1895 -0.2725
35684OCT     C271368   0.993  21.526   4.360  0.4835 -0.3559  0.1921
35685OCT     C171369  13.541  17.603   3.873  0.1421 -0.0249 -0.0084
35685OCT     C271370  13.075  17.455   3.996 -0.3234  0.0998 -0.0287
35686OCT     C171371   2.582  15.166  20.523  0.4758  0.3503 -0.4267
35686OCT     C271372   2.996  15.291  20.550 -0.0147  0.2986 -0.2901
35687OCT     C171373  19.477  13.557  18.413  0.2869  0.1139  0.0513
35687OCT     C271374  19.779  13.505  18.763 -0.2308 -0.1027 -0.2523
35688OCT     C171375   5.956  14.662  15.422  0.0491  0.1810  0.3669
35688OCT     C271376   5.979  14.791  14.973 -0.0087  0.1228  0.1913
35689OCT     C171377   0.858  13.408   1.271  0.0701  0.3648  0.0892
35689OCT     C271378   1.318  13.461   1.197  0.1931  0.1036  0.2069
35690OCT     C171379  20.574   8.048  16.349 -0.0263  0.1804  0.1523
35690OCT     C271380  20.197   7.985  16.640  0.1177 -0.0580  0.1611
35691OCT     C171381  14.985  17.407  19.078 -0.2566  0.2820 -0.2195
35691OCT     C271382  15.158  17.131  19.412 -0.1406 -0.1851 -0.0230
35692OCT     C171383  14.538   9.167   1.154  0.0059  0.3431 -0.0891
35692OCT     C271384  14.305   9.151   1.462  0.0310  0.0789  0.0144
35693OCT     C171385   3.432  15.782   1.636  0.2488 -0.1957 -0.6663
35693OCT     C271386   3.786  15.991   1.903  0.1536 -0.0849  0.3508
35694OCT     C171387  18.089  20.770   9.650 -0.0249  0.0130 -0.0474
35694OCT     C271388  17.803  21.056   9.449 -0.0967  0.1253 -0.0010
35695OCT     C171389  13.666  17.544  12.906  0.0934 -0.0941  0.2339
35695OCT     C271390  13.202  17.649  12.852  0.5094  0.0820 -0.3801
35696OCT     C171391  10.700   5.151  22.450  0.0880 -0.0864  0.1916
35696OCT     C271392  10.219   5.017  22.478 -0.0270  0.0548  0.2844
35697OCT     C171393  11.105  10.074   9.929  0.0140 -0.0340 -0.1292
35697OCT     C271394  11.102   9.844  10.308 -0.5526  0.0470  0.0710
35698OCT     C171395  13.575  20.816   2.117 -0.2242 -0.0642 -0.4808
35698OCT     C271396  13.876  21.065   2.373  0.0005  0.0164  0.0680
35699OCT     C171397   5.674  23.337  15.182  0.0689  0.0887  0.1315
35699OCT     C271398   5.537  23.723  15.393 -0.0452  0.0318 -0.1613
35700OCT     C171399  19.029   9.246  23.254 -0.0286 -0.0977 -0.0484
35700OCT     C271400  19.182   9.504  23.627  0.2395  0.1361  0.0757
35701OCT     C171401  13.819  19.901  19.700 -0.2898 -0.0256  0.1285
35701OCT     C271402  13.848  19.885  20.174 -0.0167 -0.1174  0.2329
35702OCT     C171403  18.866   2.379  22.336 -0.2567  0.3112 -0.3060
35702OCT     C271404  18.999   2.810  22.519  0.0977  0.1572 -0.2967
35703OCT     C171405   0.446   2.425   4.248 -0.2929  0.3467 -0.0922
35703OCT     C271406   0.751   2.338   3.833 -0.1520 -0.0887  0.1888
35704OCT     C171407   1.630  14.958  14.722 -0.2056 -0.0786  0.3778
35704OCT     C271408   1.887  14.591  14.788 -0.2943 -0.3515 -0.1767
35705OCT     C171409  12.807   6.823   2.853 -0.1992  0.5163 -0.0585
35705OCT     C271410  12.901   7.043   3.199  0.2020 -0.2323  0.0925
35706OCT     C171411  12.243  23.177  22.268  0.1473  0.0585 -0.0366
35706OCT     C271412  12.586  23.495  22.160  0.0851  0.0390  0.0100
35707OCT     C171413   1.301  23.038  16.276 -0.0209  0.0797 -0.2546
35707OCT     C271414   1.411  23.333  15.920 -0.1277  0.2551  0.4497
35708OCT     C171415   0.587   9.106  12.963  0.0526 -0.0145 -0.0640
35708OCT     C271416   0.696   9.029  12.567  0.0473 -0.2131  0.1882
35709OCT     C171417  22.414   6.069   7.367 -0.0929  0.0460  0.2797
35709OCT     C271418  22.236   6.393   7.729  0.3148  0.1503  0.0103
35710OCT     C171419   0.726   3.375   0.102 -0.0897  0.1251  0.1733
35710OCT     C271420   0.530   3.724   0.350 -0.1928 -0.1517 -0.1150
35711OCT     C171421   0.770   8.761   3.160  0.2400  0.2220  0.1499
35711OCT     C271422   0.854   9.012   3.503 -0.0850 -0.0834  0.1934
35712OCT     C171423  13.628   3.006  11.681 -0.3055 -0.0791 -0.2845
35712OCT     C271424  13.410   3.372  11.822 -0.0501 -0.2260 -0.2542
35713OCT     C171425  17.227  19.357  14.349 -0.0404 -0.1398  0.2642
35713OCT     C271426  17.120  19.016  14.047  0.3374  0.1930  0.0994
35714OCT     C171427  12.504  10.511  22.108 -0.0720 -0.0671  0.0937
35714OCT     C271428  12.905  10.673  21.986 -0.1847  0.0970  0.1834
35715OCT     C171429  17.299  18.149   4.251  0.3391 -0.1522 -0.2210
35715OCT     C271430  16.950  17.959   4.433 -0.3783 -0.0127  0.0987
35716OCT     C171431  10.232   4.691  21.094  0.1324  0.0617 -0.0716
35716OCT     C271432   9.911   4.738  21.371  0.0169 -0.1297  0.0815
35717OCT     C171433  18.650  17.329  21.886 -0.2778  0.0304 -0.0708
35717OCT     C271434  19.068  17.518  21.995  0.4065 -0.1925  0.2173
35718OCT     C171435   0.729  17.393  20.792 -0.0280 -0.0857  0.1805
35718OCT     C271436   1.172  17.191  20.769 -0.0358  0.0295  0.1369
35719OCT     C171437  16.757   0.998  22.290 -0.0362 -0.1468  0.1376
35719OCT     C271438  16.519   1.337  22.588 -0.0613 -0.0917  0.1391
35720OCT     C171439  13.654  20.098   0.113  0.5825  0.2650 -0.2283
35720OCT     C271440  13.687  20.227  23.368 -0.1399 -0.2817 -0.3853
35721OCT     C171441  23.377  18.909  15.587  0.2219  0.1769  0.1362
35721OCT     C271442  23.055  18.906  15.243  0.0496 -0.1623  0.0330
35722OCT     C171443   9.516  11.044   1.457  0.1167  0.1339  0.0219
35722OCT     C271444   9.305  11.110   1.941 -0.1409 -0.0078 -0.0965
35723OCT     C171445  13.680  14.659   1.305  0.0400 -0.0743  0.0288
35723OCT     C271446  13.630  15.111   1.104 -0.1930 -0.0865  0.0965
35724OCT     C171447  19.375  16.644   6.945  0.1471 -0.3678  0.0332
35724OCT     C271448  19.212  16.250   6.696  0.0222 -0.3050  0.4460
35725OCT     C171449  22.192   7.318   2.934  0.1364 -0.0192  0.0659
35725OCT     C271450  22.569   7.641   3.074  0.0713 -0.1966  0.1533
35726OCT     C171451  22.564   3.829   0.160 -0.1236 -0.2705 -0.0318
35726OCT     C271452  22.543   3.392  23.676  0.0997  0.0742  0.1965
35727OCT     C171453  13.068   8.350   5.568  0.3400 -0.1220  0.0086
35727OCT     C271454  13.003   8.221   5.158  0.2330 -0.2046 -0.0306
35728OCT     C171455   7.659   2.594   6.174  0.0854  0.1843 -0.0128
35728OCT     C271456   8.039   2.790   5.970 -0.0992  0.1109  0.1974
35729OCT     C171457   8.589  15.295  15.898  0.2331 -0.0393  0.0398
35729OCT     C271458   8.523  15.374  15.410 -0.0982 -0.2293 -0.0743
35730OCT     C171459  20.257   3.477   9.925  0.0313 -0.0746  0.1648
35730OCT     C271460  20.407   3.682  10.292  0.1595 -0.1109 -0.2628
35731OCT     C171461   7.174   2.542  16.794 -0.1686  0.3554  0.3501
35731OCT     C271462   7.579   2.734  16.673 -0.1533 -0.0443 -0.1906
35732OCT     C171463  18.267  12.144  15.427 -0.1719  0.2072  0.0690
35732OCT     C271464  17.873  12.120  15.165  0.2948 -0.3747  0.6465
35733OCT     C171465  15.589   5.588  11.813  0.2182  0.3432 -0.1924
35733OCT     C271466  15.439   5.206  11.571  0.0556 -0.3970 -0.3535
35734OCT     C171467   1.866  22.651  15.549  0.2235 -0.0987  0.4362
35734OCT     C271468   1.510  22.903  15.765  0.3068 -0.2412 -0.2049
35735OCT     C171469  13.384  12.155  18.771  0.0247  0.2551  0.0283
35735OCT     C271470  13.577  12.541  18.505  0.3387 -0.3613 -0.0549
35736OCT     C171471   6.298  16.082  14.990 -0.0917  0.1642  0.1867
35736OCT     C271472   5.901  16.026  15.265 -0.2287  0.1626  0.0928
35737OCT     C171473   1.586  12.379   8.871 -0.1797 -0.0503  0.3055
35737OCT     C271474   1.434  12.754   8.838 -0.3243  0.0321 -0.1518
35738OCT     C171475  11.103  15.511  12.102  0.1302 -0.1780 -0.3183
35738OCT     C271476  10.691  15.476  12.435 -0.2613 -0.0128  0.1282
35739OCT     C171477  16.603   1.005   1.728 -0.0281 -0.1814 -0.4970
35739OCT     C271478  16.969   1.088   1.360  0.3376 -0.0911 -0.5320
35740OCT     C171479  22.378   3.477   3.568 -0.3089 -0.4127 -0.3289
35740OCT     C271480  22.231   3.073   3.665  0.2050 -0.0265 -0.1319
35741OCT     C171481  12.392  13.956  17.032 -0.1382 -0.1504  0.1147
35741OCT     C271482  12.024  14.238  17.066  0.1131 -0.1982  0.0902
35742OCT     C171483  18.544   1.030  19.535  0.5500  0.1476  0.2409
35742OCT     C271484  18.832   1.291  19.744 -0.0113 -0.3745  0.2684
35743OCT     C171485  22.910  21.834  23.182 -0.0352 -0.0312 -0.2648
35743OCT     C271486  23.115  21.811  22.779 -0.0921 -0.0528 -0.1914
35744OCT     C171487  16.012  10.148  10.848 -0.1577 -0.5283 -0.0137
35744OCT     C271488  16.470  10.119  10.703 -0.1476 -0.2032 -0.0878
35745OCT     C171489  16.768  18.026  14.697 -0.5806 -0.3599  0.3736
35745OCT     C271490  16.468  17.628  14.667  0.3909 -0.2790  0.2857
35746OCT     C171491  14.637   2.345  19.697 -0.0270 -0.1718  0.1379
35746OCT     C271492  14.818   1.976  19.884  0.1144  0.2104  0.1944
35747OCT     C171493  14.837  19.245  23.287  0.2171 -0.2299  0.2051
35747OCT     C271494  15.043  18.876  23.538  0.0230 -0.3597  0.0464
35748OCT     C171495   2.992  14.684  12.532 -0.0308 -0.3422 -0.4893
35748OCT     C271496   2.555  14.837  12.483 -0.3610 -0.2367 -0.0881
35749OCT     C171497  16.088   9.333  11.945 -0.0724  0.2549 -0.3201
35749OCT     C271498  15.963   9.263  12.363  0.0798  0.0296 -0.1728
35750OCT     C171499   3.291  20.296   7.956 -0.0508 -0.1276  0.2997
35750OCT     C271500   3.098  20.682   8.035 -0.1294  0.0213  0.1384
35751OCT     C171501  17.338   2.362   0.624 -0.1377  0.1313  0.2251
35751OCT     C271502  17.328   2.255   1.040  0.0027  0.1503 -0.2328
35752OCT     C171503   8.215  16.315  20.133  0.1843  0.1693 -0.2133
35752OCT     C271504   7.848  16.377  19.909  0.3248 -0.1805  0.0845
35753OCT     C171505  16.893  12.676   6.153 -0.1341 -0.4092 -0.1255
35753OCT     C271506  17.019  13.126   6.007 -0.0523 -0.0893 -0.1136
35754OCT     C171507  10.934  23.198   3.301 -0.0968  0.3944 -0.0910
35754OCT     C271508  10.549  23.156   3.599 -0.0744 -0.1357  0.1903
35755OCT     C171509   1.390   3.472   4.841  0.0468 -0.4647  0.2592
35755OCT     C271510   1.429   3.909   4.955  0.0196  0.0191 -0.0686
35756OCT     C171511   0.389   5.472  16.195 -0.0605  0.3007  0.3391
35756OCT     C271512   0.656   5.377  15.854  0.0790  0.1265 -0.0126
35757OCT     C171513   9.420  18.328  11.405 -0.0639 -0.0638  0.0381
35757OCT     C271514   9.372  18.080  10.964  0.0391  0.4056  0.1398
35758OCT     C171515   6.722  17.307  10.143 -0.2477  0.1684  0.3108
35758OCT     C271516   6.970  17.417   9.685 -0.0783  0.2644 -0.0043
35759OCT     C171517  22.754  23.318   7.278 -0.1064  0.3544 -0.0171
35759OCT     C271518  22.671  23.693   7.021  0.1560  0.0022 -0.4507
35760OCT     C171519  13.183   7.931   6.437  0.1108  0.1239  0.0380
35760OCT     C271520  13.128   8.298   6.785 -0.1376  0.2992  0.0795
35761OCT     C171521   5.749   7.728  21.056  0.2613  0.1214 -0.0389
35761OCT     C271522   6.212   7.654  21.166 -0.1647  0.2369 -0.2419
35762OCT     C171523  18.076   6.947  21.156  0.2986 -0.1177 -0.1069
35762OCT     C271524  18.255   6.936  21.582  0.1997 -0.0651 -0.0256
35763OCT     C171525  17.540  18.595  20.967 -0.0112 -0.0695 -0.1612
35763OCT     C271526  17.799  18.885  20.678 -0.0659  0.6301 -0.1928
35764OCT     C171527   3.872  18.624  22.861  0.3175 -0.1312 -0.3939
35764OCT     C271528   3.792  18.845  23.225  0.0303 -0.2062 -0.1187
35765OCT     C171529   2.779  12.825   5.462  0.0142 -0.0772  0.1642
35765OCT     C271530   2.680  12.504   5.203 -0.1709  0.0358  0.4011
35766OCT     C171531   8.782   8.132  19.195  0.1491 -0.0285  0.2520
35766OCT     C271532   8.926   7.868  18.808  0.0265  0.3530  0.3931
35767OCT     C171533  13.981  21.848  17.724 -0.4308  0.1641 -0.1697
35767OCT     C271534  14.315  21.689  17.442  0.0978 -0.0725  0.0143
35768OCT     C171535  21.085   2.444  17.403  0.1363  0.0512 -0.0322
35768OCT     C271536  21.557   2.408  17.279 -0.0764  0.1984  0.1798
35769OCT     C171537   0.969  15.846   0.632  0.0417 -0.0744 -0.0319
35769OCT     C271538   0.869  16.195   0.382  0.0399 -0.0910 -0.0403
35770OCT     C171539  21.946   7.690   1.703 -0.1047  0.0936  0.0250
35770OCT     C271540  22.042   8.112   1.798  0.0081  0.1364  0.0906
35771OCT     C171541  15.496  18.855   3.496  0.0972 -0.1482  0.3647
35771OCT     C271542  15.553  19.172   3.823  0.0900  0.0376 -0.1444
35772OCT     C171543   8.862   8.592  14.677 -0.2985  0.1748 -0.0915
35772OCT     C271544   8.872   8.153  14.779 -0.0510  0.1438 -0.0023
35773OCT     C171545   8.623  10.500  18.500 -0.3086  0.1264  0.1867
35773OCT     C271546   8.632  10.185  18.830 -0.0955 -0.2168 -0.0650
35774OCT     C171547  23.543  21.643  20.015  0.4078 -0.1012  0.1832
35774OCT     C271548  23.066  21.570  20.017  0.4460  0.1414 -0.5230
35775OCT     C171549  23.449   3.885  19.053  0.1337 -0.0003  0.3031
35775OCT     C271550   0.021   4.216  18.977 -0.0637 -0.3745 -0.0996
35776OCT     C171551   6.002  23.323   2.020 -0.2758 -0.2680  0.1085
35776OCT     C271552   6.247  23.355   1.582 -0.0538 -0.5451 -0.4457
35777OCT     C171553   1.363  20.654  11.121  0.0821  0.1223 -0.0024
35777OCT     C271554   1.015  20.467  11.311 -0.2352 -0.1735  0.1347
35778OCT     C171555  14.159  17.770   2.478  0.2109 -0.3456  0.3663
35778OCT     C271556  13.799  17.983   2.669  0.1296 -0.1110  0.0782
35779OCT     C171557  15.037  12.567  23.412  0.0586 -0.3029 -0.1275
35779OCT     C271558  15.128  13.009  23.481  0.2627 -0.2635 -0.1414
35780OCT     C171559  22.347  11.785   4.823  0.0224  0.1448 -0.0326
35780OCT     C271560  22.731  11.580   4.926 -0.2566 -0.0096 -0.1660
35781OCT     C171561   4.706  18.955   6.665  0.1240 -0.0439 -0.1160
35781OCT     C271562   4.281  18.993   6.472 -0.2588  0.2326 -0.2800
35782OCT     C171563  15.159   7.703  22.610 -0.1999  0.0347 -0.0430
35782OCT     C271564  15.235   8.184  22.762  0.5201 -0.2920 -0.0872
35783OCT     C171565  19.872   0.823  13.269  0.1366 -0.0742 -0.0575
35783OCT     C271566  20.135   0.888  13.638 -0.1911 -0.0152 -0.1388
35784OCT     C171567   5.177   6.284  14.542 -0.5189 -0.3618  0.0635
35784OCT     C271568   5.309   6.532  14.964 -0.2656 -0.1018  0.2406
35785OCT     C171569   8.233   3.490  10.988 -0.3324 -0.0208  0.3735
35785OCT     C271570   7.883   3.808  10.818  0.1860  0.0973 -0.2805
35786OCT     C171571   9.662  14.866  21.566 -0.1351 -0.0477  0.0044
35786OCT     C271572   9.595  15.229  21.876 -0.2823 -0.0685 -0.0836
35787OCT     C171573  18.491   0.324   7.215  0.4046 -0.0076  0.0352
35787OCT     C271574  18.532   0.336   6.722  0.2124 -0.0187 -0.2337
35788OCT     C171575  22.244  16.300  21.470 -0.2193 -0.2252 -0.0712
35788OCT     C271576  21.818  16.186  21.305 -0.2981  0.4704 -0.1181
35789OCT     C171577  22.076  11.130  13.258 -0.0868  0.0869  0.0202
35789OCT     C271578  21.862  11.498  13.402  0.5800  0.2679 -0.2085
35790OCT     C171579  20.080  22.101  10.782 -0.1524 -0.0824  0.0310
35790OCT     C271580  20.147  21.666  10.631  0.3113  0.0661  0.0411
35791OCT     C171581  23.520   9.938  22.806  0.2702  0.1135  0.3408
35791OCT     C271582   0.008  10.273  23.115  0.1206 -0.0313  0.0738
35792OCT     C171583   5.915  22.868  10.661 -0.0804 -0.2368  0.0509
35792OCT     C271584   6.269  23.062  10.394 -0.2151 -0.0696  0.0248
35793OCT     C171585   4.863   4.466  22.074  0.2693  0.0671  0.1555
35793OCT     C271586   4.489   4.162  22.051  0.2001 -0.3075  0.0137
35794OCT     C171587  21.196  22.407  17.616  0.0962 -0.1246 -0.1947
35794OCT     C271588  21.083  22.712  17.255 -0.0712  0.0933 -0.1889
35795OCT     C171589  20.310  22.921   0.761  0.1700 -0.0598 -0.0926
35795OCT     C271590  20.400  23.010   0.307 -0.1965  0.0418 -0.0238
35796OCT     C171591  15.586  23.141  15.894 -0.1159  0.2859  0.2775
35796OCT     C271592  15.693  22.669  16.000  0.1230 -0.0990  0.1675
35797OCT     C171593  16.796  14.512  21.455  0.3907  0.1364  0.0406
35797OCT     C271594  16.347  14.409  21.253 -0.2806 -0.1803  0.0286
35798OCT     C171595   9.169  16.017   2.589  0.0554 -0.2551  0.0077
35798OCT     C271596   9.024  16.364   2.847 -0.3152 -0.1295 -0.0564
35799OCT     C171597   1.051  14.570   7.416  0.1277 -0.3895  0.2441
35799OCT     C271598   1.153  14.311   7.734  0.3050  0.2410  0.0390
35800OCT     C171599  12.975  13.237   0.021  0.0848  0.2607 -0.2390
35800OCT     C271600  12.832  12.945   0.415 -0.1343  0.1021  0.4428
35801OCT     C171601  22.296   2.060   1.391  0.2840 -0.0745 -0.0618
35801OCT     C271602  22.105   2.365   1.649 -0.1609 -0.2050  0.1575
35802OCT     C171603   9.941  14.058   5.954  0.0440 -0.2840 -0.1517
35802OCT     C271604   9.556  13.914   6.183 -0.2368 -0.0457 -0.3392
35803OCT     C171605  23.283  10.225  12.651 -0.1398 -0.0443  0.0460
35803OCT     C271606  23.660   9.918  12.656 -0.2976  0.3861  0.1097
35804OCT     C171607  17.287  10.658  14.897 -0.0312  0.0403  0.1695
35804OCT     C271608  16.932  10.914  14.727  0.1470 -0.1192 -0.1025
35805OCT     C171609  18.217   6.742  13.563 -0.0485  0.1174 -0.0220
35805OCT     C271610  17.955   6.989  13.894 -0.0025  0.0249  0.0511
35806OCT     C171611  14.361  13.537  21.418  0.4161 -0.1338  0.1961
35806OCT     C271612  14.485  13.914  21.286  0.2929 -0.1143  0.0583
35807OCT     C171613   7.877   1.697   7.974  0.0183  0.3209 -0.0265
35807OCT     C271614   7.494   1.472   7.946  0.3979 -0.0759  0.0639
35808OCT     C171615   9.463   9.087  10.795  0.1637  0.3486 -0.0232
35808OCT     C271616   9.216   8.749  11.037  0.0573  0.2968 -0.1952
35809OCT     C171617   6.365   8.119  14.514 -0.1471  0.2373 -0.1599
35809OCT     C271618   5.984   8.236  14.753 -0.1250 -0.0842  0.3451
35810OCT     C171619   6.002  12.630  15.616  0.1127 -0.4477 -0.1008
35810OCT     C271620   6.232  12.947  15.390 -0.2342 -0.3462 -0.3586
35811OCT     C171621   3.521   6.700  10.570 -0.2143 -0.3484  0.0888
35811OCT     C271622   3.915   6.426  10.667 -0.2038 -0.1231 -0.2005
35812OCT     C171623  16.953   9.171  14.752  0.1169 -0.0385 -0.2364
35812OCT     C271624  16.834   8.711  14.720 -0.1173 -0.0068 -0.0801
35813OCT     C171625   9.577  15.284   3.787 -0.2010 -0.0380  0.0083
35813OCT     C271626   9.527  15.481   3.358  0.2285 -0.2453 -0.0634
35814OCT     C171627   3.563   2.880   4.166 -0.1258 -0.1676 -0.0156
35814OCT     C271628   3.212   2.792   3.893 -0.3934 -0.1283  0.1402
35815OCT     C171629   4.545   9.272  10.924 -0.2677 -0.2095  0.0713
35815OCT     C271630   4.113   9.343  11.019 -0.0088 -0.0389 -0.2140
35816OCT     C171631   0.063   1.110  13.505 -0.2711  0.0683 -0.1246
35816OCT     C271632  23.511   0.731  13.673  0.1083  0.1170  0.2689
35817OCT     C171633  14.646  23.497   4.641  0.0040  0.1878  0.2767
35817OCT     C271634  14.667  23.047   4.658 -0.1912  0.3515  0.1249
35818OCT     C171635   5.952   9.369   6.288  0.1523 -0.1616 -0.2006
35818OCT     C271636   5.551   9.167   6.115 -0.0913  0.3452 -0.1125
35819OCT     C171637   8.451  20.175   4.362  0.2381  0.0971 -0.0874
35819OCT     C271638   8.838  20.185   4.183  0.2082 -0.0449 -0.0782
35820OCT     C171639  10.113   6.640  12.650 -0.1697  0.0231  0.6925
35820OCT     C271640   9.932   6.395  13.015  0.1252 -0.0158 -0.0271
35821OCT     C171641  14.830  20.906   3.005 -0.0884 -0.2431  0.1520
35821OCT     C271642  14.571  20.528   2.750 -0.2820 -0.0796 -0.0106
35822OCT     C171643   2.849  19.405   1.150 -0.0568 -0.2355 -0.2332
35822OCT     C271644   2.800  19.430   0.675  0.2942  0.3335 -0.3175
35823OCT     C171645   6.638  22.100  20.708  0.0213 -0.1834 -0.1644
35823OCT     C271646   6.271  22.373  20.778  0.0441 -0.0855  0.2883
35824OCT     C171647   4.576  21.347  15.053 -0.0397 -0.4414 -0.2730
35824OCT     C271648   4.617  20.855  14.936 -0.1483 -0.0144 -0.0777
35825OCT     C171649  20.641   8.598  11.292 -0.1239  0.1603 -0.1865
35825OCT     C271650  20.326   8.175  11.168 -0.3901  0.0810 -0.2781
35826OCT     C171651  18.656  15.182  20.641 -0.4698  0.1705 -0.0865
35826OCT     C271652  18.208  15.153  20.821 -0.2629  0.2391  0.1509
35827OCT     C171653  11.490   9.782  12.821  0.0586  0.2370 -0.1898
35827OCT     C271654  11.004   9.737  12.856 -0.1396 -0.1587 -0.1429
35828OCT     C171655   2.552  21.673  22.471 -0.0356  0.1362 -0.0513
35828OCT     C271656   2.629  21.319  22.160  0.0350 -0.2415 -0.1625
35829OCT     C171657  17.647   5.118   8.480 -0.1367  0.1879 -0.0492
35829OCT     C271658  18.097   4.970   8.550 -0.0356  0.1471  0.2078
35830OCT     C171659  15.205  15.437  12.445  0.0288 -0.0471 -0.4945
35830OCT     C271660  14.805  15.567  12.670  0.0982  0.0736  0.1709
35831OCT     C171661   1.273  21.412   8.364  0.4502  0.0024  0.0227
35831OCT     C271662   1.644  21.154   8.472 -0.1938 -0.1120  0.3807
35832OCT     C171663  11.749   9.427   0.241 -0.0205  0.1835  0.1654
35832OCT     C271664  11.431   9.639   0.508  0.0718 -0.1646  0.0371
35833OCT     C171665   4.049   6.651  21.937  0.2581  0.1034  0.0133
35833OCT     C271666   3.625   6.474  22.037 -0.1917 -0.1351 -0.2993
35834OCT     C171667  17.218  12.362  11.102  0.1355 -0.1739 -0.2481
35834OCT     C271668  17.419  11.927  11.150  0.2965 -0.0493  0.0577
35835OCT     C171669  10.580   2.919   9.330 -0.4060 -0.0163  0.2328
35835OCT     C271670  10.374   2.484   9.179  0.1887 -0.0939  0.1302
35836OCT     C171671  17.111   3.968  23.403 -0.0073  0.0006  0.0927
35836OCT     C271672  17.041   4.406  23.392  0.2965  0.0723 -0.0694
35837OCT     C171673   1.687  16.065   6.528  0.2911  0.1655 -0.0297
35837OCT     C271674   1.361  15.899   6.293 -0.3572 -0.3727 -0.0624
35838OCT     C171675  19.815  18.905   1.990 -0.0450 -0.1395  0.2492
35838OCT     C271676  19.498  19.007   1.700  0.1074  0.2659 -0.1023
35839OCT     C171677   8.350  12.234   8.584 -0.0369 -0.1725  0.1124
35839OCT     C271678   7.991  12.492   8.607  0.1279 -0.1708 -0.3227
35840OCT     C171679   5.675   1.830  15.623  0.2308  0.2068 -0.2564
35840OCT     C271680   5.463   2.106  15.383  0.0424  0.2560 -0.0839
35841OCT     C171681  16.350  18.948   7.204 -0.0714 -0.3317  0.1380
35841OCT     C271682  16.337  18.688   7.592 -0.1511 -0.0044 -0.0843
35842OCT     C171683  23.061  13.237  18.102  0.2820  0.2843  0.0402
35842OCT     C271684  23.393  13.100  18.473  0.0043  0.2882 -0.1118
35843OCT     C171685   2.788   2.885   9.884 -0.1991 -0.2487 -0.0862
35843OCT     C271686   3.200   2.669   9.910 -0.1055 -0.2995  0.4825
35844OCT     C171687  20.668   8.998   6.000  0.0103 -0.0508  0.0976
35844OCT     C271688  20.496   9.411   5.920 -0.3506 -0.3331  0.0612
35845OCT     C171689   7.780  15.930  18.331  0.4177 -0.1861 -0.1520
35845OCT     C271690   8.090  15.797  18.675  0.6537  0.0972 -0.2973
35846OCT     C171691   3.484   6.227   1.797  0.0061 -0.0465  0.0278
35846OCT     C271692   3.868   6.019   1.729 -0.0698  0.5150 -0.0505
35847OCT     C171693   1.954  15.904  12.139  0.3418 -0.0407 -0.4125
35847OCT     C271694   2.017  16.323  12.221 -0.1570 -0.0844 -0.4691
35848OCT     C171695  23.020  19.223  21.105  0.0204  0.3482  0.0115
35848OCT     C271696  22.668  19.070  21.414  0.0587 -0.2134 -0.0540
35849OCT     C171697  10.560  19.604  11.011 -0.0110 -0.2646  0.2294
35849OCT     C271698  10.281  19.981  11.061 -0.1218 -0.2016 -0.0199
35850OCT     C171699   9.370  15.446  14.728 -0.0968 -0.2587 -0.0942
35850OCT     C271700   9.210  15.558  15.184 -0.5091  0.1704  0.0876
35851OCT     C171701  21.610   6.093  19.236  0.3307  0.0676  0.2406
35851OCT     C271702  21.223   6.023  19.516  0.2903  0.1614 -0.0630
35852OCT     C171703  15.888   9.540   9.713  0.3493  0.4545 -0.0800
35852OCT     C271704  15.556   9.419  10.082  0.0367  0.2744  0.0003
35853OCT     C171705   8.589  20.325  14.220  0.1311  0.0015  0.1490
35853OCT     C271706   8.283  20.722  14.284  0.0224 -0.1159 -0.0308
35854OCT     C171707   3.901   8.439  12.261  0.2871 -0.5652  0.0769
35854OCT     C271708   4.311   8.478  12.346  0.2326  0.0128  0.0520
35855OCT     C171709  11.577  21.200   6.359 -0.0588 -0.2025 -0.0825
35855OCT     C271710  11.690  20.762   6.371  0.0044 -0.0307  0.0333
35856OCT     C171711   4.523   5.802   9.203  0.1463 -0.1775 -0.2738
35856OCT     C271712   4.630   5.392   9.360 -0.1904 -0.6403  0.0558
35857OCT     C171713   4.572   4.103   0.412  0.0824  0.1267 -0.1136
35857OCT     C271714   4.158   4.116   0.233  0.2234  0.1018  0.2105
35858OCT     C171715  20.594   9.002  15.428 -0.0271  0.0379 -0.1334
35858OCT     C271716  20.204   9.250  15.334 -0.2361  0.2062 -0.3850
35859OCT     C171717  13.554   6.949  22.201  0.0855 -0.0149  0.0644
35859OCT     C271718  13.543   7.288  22.472 -0.3341  0.0707 -0.3234
35860OCT     C171719  10.691  11.241  22.861  0.1930 -0.0934 -0.1066
35860OCT     C271720  10.905  11.611  23.050  0.0022  0.0241  0.0072
35861OCT     C171721  13.029  15.852   3.096  0.1758 -0.2159  0.2210
35861OCT     C271722  13.183  15.466   3.234 -0.1203  0.2221  0.1452
35862OCT     C171723  17.616  15.515   1.054 -0.1989  0.0933 -0.1889
35862OCT     C271724  17.313  15.886   1.184  0.1335  0.2242 -0.0790
35863OCT     C171725   2.061   5.398  19.906 -0.4971  0.0284  0.0110
35863OCT     C271726   2.404   5.693  19.980 -0.1151 -0.1410  0.0165
35864OCT     C171727  16.677   7.502  20.529 -0.5533  0.1890  0.2223
35864OCT     C271728  16.514   7.907  20.347 -0.0215  0.0995 -0.0200
35865OCT     C171729  10.573  17.479  12.208  0.2284 -0.1086  0.3229
35865OCT     C271730  10.600  17.787  12.600 -0.0402 -0.1444 -0.2884
35866OCT     C171731   6.043  19.647  20.134 -0.0192 -0.2020  0.2652
35866OCT     C271732   6.290  19.324  20.426 -0.1516 -0.0623 -0.2487
35867OCT     C171733   1.534  18.014   6.651 -0.0138 -0.1430  0.0991
35867OCT     C271734   1.419  17.619   6.461  0.1139 -0.0115  0.0472
35868OCT     C171735  17.767  18.335  17.857 -0.0942  0.2096 -0.2119
35868OCT     C271736  18.137  17.959  17.862  0.1876  0.1370  0.0070
35869OCT     C171737   3.538  18.132   7.795 -0.4289 -0.2243 -0.1094
35869OCT     C271738   3.931  17.953   8.043 -0.3758  0.0576 -0.2940
35870OCT     C171739  17.151   7.505   8.812  0.1229  0.1453  0.2013
35870OCT     C271740  16.820   7.628   8.530  0.2255  0.1831  0.0784
35871OCT     C171741  23.344  14.350  18.589  0.2079  0.0946 -0.2265
35871OCT     C271742  23.645  14.031  18.377 -0.2170  0.1256 -0.3999
35872OCT     C171743   6.903   0.189   7.857  0.3199  0.2650  0.0976
35872OCT     C271744   7.203   0.549   7.688 -0.0347  0.2169 -0.2888
35873OCT     C171745  10.665   5.488  10.225 -0.0712  0.3791 -0.0528
35873OCT     C271746  10.437   5.371   9.779 -0.2123  0.1747 -0.1503
35874OCT     C171747  11.485  13.106   9.492  0.3501 -0.0168 -0.0261
35874OCT     C271748  11.428  13.503   9.749 -0.1519  0.2138  0.2269
35875OCT     C171749  19.953  14.789  21.192 -0.0146 -0.1616  0.2935
35875OCT     C271750  20.342  14.501  21.084 -0.2792  0.1561  0.1025
35876OCT     C171751   0.590  23.210  18.974 -0.2507  0.6500  0.3545
35876OCT     C271752   0.827  22.747  18.969  0.1717 -0.2877 -0.0235
35877OCT     C171753  20.902   8.434   7.384  0.0676  0.0559 -0.3309
35877OCT     C271754  20.909   7.992   7.192 -0.2559  0.1285  0.0637
35878OCT     C171755  10.017  21.876   5.600  0.1595 -0.2808  0.2249
35878OCT     C271756   9.741  22.165   5.840  0.2855 -0.3976  0.0319
35879OCT     C171757  16.631  15.037   3.801  0.2314 -0.6157 -0.0048
35879OCT     C271758  17.023  15.302   3.748  0.0329 -0.1033 -0.2076
35880OCT     C171759  23.187   2.180  20.441 -0.1105 -0.0943 -0.0118
35880OCT     C271760  23.038   2.273  20.027  0.1025  0.2354 -0.2532
35881OCT     C171761  12.063  13.491   7.966 -0.2558 -0.1220 -0.0482
35881OCT     C271762  12.260  13.852   7.649 -0.0490  0.1764 -0.1107
35882OCT     C171763   8.211  21.286  20.628 -0.1676  0.2552  0.2465
35882OCT     C271764   7.888  21.447  20.964 -0.2900  0.1650  0.3636
35883OCT     C171765   6.825  11.538   6.698 -0.2047 -0.0728 -0.1290
35883OCT     C271766   6.740  11.947   6.631  0.2961  0.1602  0.1302
35884OCT     C171767   2.228   2.993  16.817 -0.0742 -0.0472 -0.3608
35884OCT     C271768   2.205   2.636  16.518  0.0694 -0.2200  0.4325
35885OCT     C171769   2.959   3.305  21.134  0.0020  0.1247 -0.0690
35885OCT     C271770   3.241   3.646  20.992  0.0393  0.0235  0.0120
35886OCT     C171771  17.054   2.361  13.990  0.0717 -0.2444  0.2154
35886OCT     C271772  16.733   2.075  13.743  0.0654  0.1280 -0.1605
35887OCT     C171773   4.823  10.647   6.662  0.1924 -0.4826 -0.1385
35887OCT     C271774   4.341  10.666   6.799  0.1698  0.0608 -0.2019
35888OCT     C171775  14.293  10.189  10.099 -0.0243 -0.1202 -0.0999
35888OCT     C271776  13.905  10.010   9.974 -0.2709 -0.0097  0.0973
35889OCT     C171777   6.450  13.401  12.527 -0.0310  0.2616  0.1442
35889OCT     C271778   6.440  13.888  12.468  0.1751 -0.3213 -0.0973
35890OCT     C171779   8.583  17.062   6.389  0.3457  0.2389 -0.3508
35890OCT     C271780   8.551  17.387   6.149 -0.0177 -0.0439  0.0204
35891OCT     C171781  11.443  21.475  23.701  0.4164 -0.0440 -0.0386
35891OCT     C271782  11.127  21.592   0.340 -0.0977 -0.3046 -0.3885
35892OCT     C171783   9.480  14.146   7.875 -0.1435 -0.2669 -0.2689
35892OCT     C271784   9.621  14.611   7.857 -0.0603 -0.3080  0.2512
35893OCT     C171785  21.376  16.241  21.617  0.4114  0.0007  0.0210
35893OCT     C271786  21.400  16.497  21.198 -0.1806 -0.0646 -0.3021
35894OCT     C171787   6.041  12.739  21.919 -0.3455 -0.0473 -0.3438
35894OCT     C271788   6.219  13.042  22.242  0.1166 -0.2404 -0.3145
35895OCT     C171789  13.899   9.112   3.928  0.3435 -0.2002  0.0134
35895OCT     C271790  14.068   8.869   4.230 -0.0088 -0.4544 -0.1019
35896OCT     C171791   4.049  15.122  22.551 -0.1456  0.2488 -0.3717
35896OCT     C271792   3.977  15.538  22.389 -0.0214  0.0688  0.0712
35897OCT     C171793  13.486  13.687  21.009  0.1262 -0.0462 -0.4691
35897OCT     C271794  13.255  13.926  21.352 -0.0953  0.1923 -0.1276
35898OCT     C171795   4.882  10.363  19.796 -0.2819  0.0224  0.1180
35898OCT     C271796   4.796  10.769  19.539  0.1710  0.1552 -0.0371
35899OCT     C171797  10.329  13.850   7.360 -0.3534 -0.0768  0.0945
35899OCT     C271798  10.767  13.807   7.410  0.2722 -0.4036  0.0612
35900OCT     C171799   1.220   3.379  12.776 -0.0351 -0.2522 -0.0904
35900OCT     C271800   1.055   3.020  12.637 -0.2408  0.4323  0.2642
35901OCT     C171801  18.641   0.443   4.586  0.2762  0.0505 -0.1398
35901OCT     C271802  18.702   0.210   4.943 -0.1924 -0.4740 -0.2015
35902OCT     C171803   0.116  10.809  12.991  0.1667  0.2661  0.2420
35902OCT     C271804   0.497  10.475  12.952  0.2426 -0.0401 -0.1523
35903OCT     C171805  21.235  14.953  22.152 -0.2278  0.1316 -0.0043
35903OCT     C271806  21.490  14.944  22.544 -0.0611 -0.0151 -0.0437
35904OCT     C171807   1.545  22.950   6.980  0.2950 -0.1881 -0.2327
35904OCT     C271808   1.685  23.333   6.862 -0.5442  0.2272  0.1101
35905OCT     C171809  15.852   4.867  22.647  0.2194 -0.1046  0.0601
35905OCT     C271810  15.970   4.854  22.219 -0.0432 -0.0100 -0.0704
35906OCT     C171811   2.119   9.779  14.016 -0.0579 -0.4907 -0.2793
35906OCT     C271812   1.739   9.530  14.130  0.1493  0.1488 -0.0472
35907OCT     C171813  11.676  11.486   8.724 -0.2895 -0.0151 -0.1349
35907OCT     C271814  11.929  11.882   8.642  0.3414  0.0887 -0.3293
35908OCT     C171815   3.028  23.305  12.975 -0.0672  0.0499  0.2806
35908OCT     C271816   3.226  23.336  12.577  0.0824  0.1664  0.3419
35909OCT     C171817   9.253   7.810  21.872 -0.1762  0.1391  0.2107
35909OCT     C271818   9.207   7.587  21.466 -0.0570  0.1596 -0.3373
35910OCT     C171819  17.031  10.172  16.717  0.1191  0.3953 -0.2820
35910OCT     C271820  17.047  10.177  17.181 -0.1534  0.1438 -0.0964
35911OCT     C171821  22.232  17.626   0.879 -0.1886 -0.2344  0.1524
35911OCT     C271822  22.442  17.485   1.284 -0.0447  0.2675  0.1440
35912OCT     C171823  21.709   2.906  21.185  0.0448 -0.3419 -0.0588
35912OCT     C271824  21.656   2.578  20.852  0.0335  0.1407  0.0190
35913OCT     C171825  20.281  19.684  10.950  0.3467 -0.1984 -0.0880
35913OCT     C271826  20.265  19.425  10.523 -0.1159 -0.1903  0.0454
35914OCT     C171827   5.403   9.829   5.159 -0.3762 -0.2008 -0.1481
35914OCT     C271828   5.099  10.157   5.027  0.1953 -0.1289  0.2679
35915OCT     C171829   5.096   3.208  20.887 -0.0903  0.3180 -0.0922
35915OCT     C271830   4.745   3.489  21.051 -0.1398 -0.0595 -0.0589
35916OCT     C171831  20.883   3.192  19.301  0.0812 -0.1454  0.0733
35916OCT     C271832  20.408   3.178  19.280 -0.2655  0.0915 -0.1803
35917OCT     C171833  16.036  17.168  21.069  0.4202 -0.1821  0.2000
35917OCT     C271834  16.268  17.567  20.947 -0.2660 -0.1968 -0.0607
35918OCT     C171835   4.533  13.549  12.268 -0.0583  0.2001  0.1194
35918OCT     C271836   4.755  13.975  12.409  0.3479 -0.1992  0.5537
35919OCT     C171837   9.645   9.995   1.526 -0.0647  0.2730 -0.0027
35919OCT     C271838  10.044  10.166   1.515  0.2430  0.0936  0.1696
35920OCT     C171839  11.177   1.148   2.638  0.2391  0.3594  0.4608
35920OCT     C271840  11.000   0.753   2.794 -0.0730 -0.5033  0.2891
35921OCT     C171841  22.325   4.799   8.327 -0.1252  0.2589  0.1386
35921OCT     C271842  22.244   5.237   8.444  0.1590  0.0070  0.0478
35922OCT     C171843   1.323   2.747   1.731 -0.2492 -0.1464  0.1526
35922OCT     C271844   1.643   2.570   2.004 -0.2056  0.0587 -0.3599
35923OCT     C171845   9.401  16.545  14.360 -0.1702 -0.1241 -0.1000
35923OCT     C271846   9.196  16.327  14.687  0.2526  0.3622 -0.0360
35924OCT     C171847  21.813  20.151  21.436  0.0707  0.0942 -0.1474
35924OCT     C271848  21.786  20.620  21.628  0.1890  0.1803  0.3470
35925OCT     C171849   8.429  20.803  16.469 -0.0331  0.3276 -0.1655
35925OCT     C271850   8.477  20.339  16.327  0.1636 -0.1267 -0.0651
35926OCT     C171851  16.098   8.921   2.915 -0.0282 -0.5261  0.0327
35926OCT     C271852  16.197   9.036   3.402  0.1725 -0.2393  0.1128
35927OCT     C171853  20.182   0.143  22.068 -0.0706  0.2475  0.0222
35927OCT     C271854  20.145   0.120  21.629  0.0907 -0.1234 -0.1173
35928OCT     C171855   1.828  12.930  10.746 -0.2085  0.2251 -0.0291
35928OCT     C271856   1.567  12.718  10.426 -0.0531  0.4446  0.0045
35929OCT     C171857  22.818  12.019  15.963  0.0889 -0.0152 -0.1454
35929OCT     C271858  22.859  12.260  15.560  0.0976 -0.1568 -0.0607
35930OCT     C171859   4.910  19.130  10.346 -0.2486  0.2830 -0.0418
35930OCT     C271860   5.098  19.220   9.949  0.0003  0.0644 -0.0453
35931OCT     C171861  18.127   9.036   4.799 -0.0253  0.0445  0.0874
35931OCT     C271862  18.540   9.265   4.724  0.0508  0.1590 -0.1180
35932OCT     C171863  17.423   0.163   2.680 -0.0333  0.4111  0.1859
35932OCT     C271864  17.017   0.094   2.420  0.1185 -0.0454 -0.2671
35933OCT     C171865   3.858   8.648   5.952 -0.1104  0.2696  0.1274
35933OCT     C271866   4.240   8.732   6.219  0.1332  0.0661  0.0973
35934OCT     C171867  14.354  13.588  20.390  0.3272 -0.3137  0.2451
35934OCT     C271868  14.306  13.373  19.949  0.0690 -0.0616 -0.3252
35935OCT     C171869  13.253  16.913  18.405 -0.0518 -0.1458 -0.1065
35935OCT     C271870  12.944  17.229  18.242  0.0588  0.2471  0.0226
35936OCT     C171871  11.233   7.184  13.621 -0.4351  0.0586  0.1291
35936OCT     C271872  11.182   6.666  13.642 -0.0921  0.0644  0.2141
35937OCT     C171873  13.789   4.794   8.396  0.6272 -0.1992  0.4331
35937OCT     C271874  13.711   5.169   8.172 -0.1852  0.0546 -0.0642
35938OCT     C171875  23.044   3.196  11.573  0.3195  0.0259 -0.2441
35938OCT     C271876  23.150   3.408  11.991 -0.0112 -0.2160  0.0477
35939OCT     C171877   6.192   9.547   1.028 -0.0623 -0.0472 -0.0402
35939OCT     C271878   6.182   9.157   1.315 -0.0310  0.0363 -0.0760
35940OCT     C171879   5.739   6.678  16.932  0.2774 -0.0988  0.4686
35940OCT     C271880   5.837   6.897  17.352 -0.0903  0.1466  0.3067
35941OCT     C171881  17.200  19.818   2.442 -0.1879 -0.1785 -0.1228
35941OCT     C271882  16.726  19.954   2.467 -0.0437  0.0564 -0.1890
35942OCT     C171883  12.521   4.453  13.706  0.0232  0.0423  0.1304
35942OCT     C271884  12.277   4.406  14.063  0.2382  0.3921 -0.1309
35943OCT     C171885  22.033  14.178  18.512 -0.1556  0.1342  0.0487
35943OCT     C271886  21.744  13.810  18.486 -0.0546  0.4567  0.1122
35944OCT     C171887   5.717   7.113  18.812  0.1859  0.3430 -0.2945
35944OCT     C271888   5.757   6.788  19.216  0.2705 -0.0354  0.2993
35945OCT     C171889   2.558   6.601  17.872 -0.0570  0.1267 -0.2008
35945OCT     C271890   2.426   6.720  17.416  0.3845 -0.0510 -0.0726
35946OCT     C171891  22.032   4.094  22.486  0.0764  0.1998  0.1247
35946OCT     C271892  22.176   4.415  22.194 -0.0455 -0.0120 -0.1883
35947OCT     C171893  22.200  20.724   2.847 -0.1505  0.2447  0.0535
35947OCT     C271894  21.761  20.782   2.867  0.2439  0.1819 -0.2814
35948OCT     C171895   6.387   8.307  13.950  0.1860  0.2079 -0.2604
35948OCT     C271896   5.954   8.387  13.743 -0.1685  0.1163 -0.0172
35949OCT     C171897   3.152  12.037  10.354 -0.0068  0.0514 -0.4323
35949OCT     C271898   3.302  11.646  10.639 -0.4268 -0.2335 -0.4325
35950OCT     C171899   1.506   6.624   5.941 -0.2042 -0.0990  0.1806
35950OCT     C271900   1.933   6.846   5.947 -0.0946  0.1257  0.1648
35951OCT     C171901   0.882  17.752  15.613  0.0364  0.0456 -0.0862
35951OCT     C271902   1.252  18.003  15.745  0.1274 -0.1176  0.2184
35952OCT     C171903   5.815  13.776  15.883 -0.1627  0.4219  0.4851
35952OCT     C271904   6.141  14.100  15.901  0.0784  0.1650 -0.0922
35953OCT     C171905   7.855  18.118  16.049 -0.1308 -0.1043 -0.0434
35953OCT     C271906   8.051  17.876  16.443 -0.1789 -0.0000 -0.3401
35954OCT     C171907   2.058  19.411  14.555  0.0464 -0.1081  0.0196
35954OCT     C271908   1.746  19.259  14.870 -0.1057 -0.1230 -0.3297
35955OCT     C171909   7.337   6.046   1.517 -0.0440  0.1825 -0.1194
35955OCT     C271910   7.142   6.013   1.095  0.3764 -0.1577  0.3790
35956OCT     C171911   1.470   6.529  13.947  0.1168 -0.2738 -0.0013
35956OCT     C271912   1.456   6.040  14.005  0.1825 -0.5847  0.1758
35957OCT     C171913  23.512  10.984   8.636  0.0883  0.5015  0.3597
35957OCT     C271914  23.304  10.977   9.077  0.0480 -0.3305 -0.0185
35958OCT     C171915  19.745  13.832  21.977  0.0910 -0.2025 -0.1484
35958OCT     C271916  19.955  13.556  22.289 -0.0753  0.0446 -0.1182
35959OCT     C171917   6.877   9.864   7.677  0.0906  0.1054  0.0111
35959OCT     C271918   7.105  10.225   7.835 -0.2857 -0.0263  0.1411
35960OCT     C171919   8.391   3.952   0.336 -0.4105 -0.2016 -0.1018
35960OCT     C271920   8.455   3.547   0.599 -0.3568 -0.1101  0.0523
35961OCT     C171921   4.408  11.773  23.541  0.1198 -0.1239  0.1477
35961OCT     C271922   4.639  11.488   0.132  0.3793  0.0325  0.0361
35962OCT     C171923  21.887  13.442  17.847  0.0990  0.2744 -0.1561
35962OCT     C271924  21.903  13.813  17.541 -0.1078  0.1229  0.1000
35963OCT     C171925  20.650   7.933  13.210  0.2288  0.1611 -0.1862
35963OCT     C271926  20.611   7.816  13.655 -0.2249 -0.0142  0.0619
35964OCT     C171927   8.004  17.889  21.854  0.1585 -0.0718 -0.0527
35964OCT     C271928   8.474  17.968  21.933  0.1821  0.0717  0.1083
35965OCT     C171929   0.284   6.012  14.663  0.1318  0.0216  0.3952
35965OCT     C271930   0.458   5.961  14.176  0.3062  0.2076  0.1208
35966OCT     C171931   4.757  17.745  18.101 -0.1222  0.3248 -0.1444
35966OCT     C271932   4.769  17.644  17.667 -0.4396 -0.1189 -0.2857
35967OCT     C171933  18.673   4.727  17.339  0.1012 -0.2181 -0.1024
35967OCT     C271934  18.420   4.362  17.274 -0.0784 -0.0588 -0.1385
35968OCT     C171935  22.256   2.892   7.852  0.2929  0.0995  0.0307
35968OCT     C271936  21.918   3.083   8.163 -0.0336 -0.0198 -0.1059
35969OCT     C171937   2.120   6.764  13.323 -0.1877  0.0840  0.4115
35969OCT     C271938   2.115   6.982  12.877 -0.0537 -0.1709 -0.0079
35970OCT     C171939  11.637   9.944  21.043 -0.0749  0.0182 -0.0212
35970OCT     C271940  11.544   9.794  21.483 -0.1191  0.1421 -0.2266
35971OCT     C171941   8.797   7.490  13.864  0.1310  0.0417 -0.1042
35971OCT     C271942   8.621   7.490  14.313  0.0152 -0.1159 -0.2037
35972OCT     C171943  15.257  12.126   1.435 -0.1952  0.1966 -0.2255
35972OCT     C271944  15.624  12.399   1.625  0.1495  0.0891  0.1470
35973OCT     C171945  13.250  10.964   6.483  0.0870  0.2459  0.1857
35973OCT     C271946  13.470  10.948   6.897 -0.1980 -0.1366  0.2278
35974OCT     C171947  13.772  15.099  12.576  0.0934 -0.4746  0.0835
35974OCT     C271948  14.032  14.792  12.843 -0.2816 -0.1542  0.0506
35975OCT     C171949   9.919  13.275   3.196 -0.1212 -0.2468 -0.0794
35975OCT     C271950  10.067  13.353   2.735  0.1510  0.1810 -0.1189
35976OCT     C171951  13.957   0.509  22.252 -0.4112  0.0835 -0.3881
35976OCT     C271952  14.158   0.680  22.620  0.1591  0.3371 -0.0290
35977OCT     C171953  11.853  14.732   5.398 -0.1732 -0.3734 -0.0269
35977OCT     C271954  11.441  14.959   5.413  0.1340 -0.0077 -0.1816
35978OCT     C171955   6.725  15.656  21.961 -0.4277  0.1689  0.0231
35978OCT     C271956   6.559  15.971  21.643 -0.0566 -0.1859  0.4202
35979OCT     C171957   8.778  15.767  20.707 -0.3193 -0.1351 -0.4149
35979OCT     C271958   8.942  15.446  20.415 -0.1357 -0.0138 -0.1850
35980OCT     C171959  22.358   7.349   6.884 -0.2908  0.1042 -0.2110
35980OCT     C271960  22.820   7.399   6.818 -0.0149 -0.0257 -0.2732
35981OCT     C171961   1.520   5.391  11.475  0.2228  0.0453  0.1371
35981OCT     C271962   1.725   5.793  11.661  0.0464 -0.0319  0.1077
35982OCT     C171963  10.374  19.539  20.768  0.3117  0.2436  0.2429
35982OCT     C271964  10.266  19.096  20.845 -0.0783  0.3336  0.3336
35983OCT     C171965  14.942   9.698  12.493  0.0308 -0.3365  0.0096
35983OCT     C271966  14.789   9.229  12.558  0.0019 -0.0944 -0.1180
35984OCT     C171967  13.255  19.472  21.830 -0.0994  0.0380 -0.1518
35984OCT     C271968  12.911  19.138  21.829 -0.4166 -0.3695  0.0178
35985OCT     C171969  17.075  21.707  12.414 -0.5349 -0.1825 -0.2217
35985OCT     C271970  17.100  22.091  12.696 -0.2677 -0.2897  0.1724
35986OCT     C171971   8.202  13.684  13.236 -0.1250  0.2768  0.1217
35986OCT     C271972   8.041  14.060  13.433 -0.0021 -0.2053  0.2944
35987OCT     C171973  17.590   4.618   5.076  0.0705 -0.3051 -0.0654
35987OCT     C271974  17.731   4.461   5.469 -0.1374  0.1839 -0.3163
35988OCT     C171975  22.454   7.736   0.587  0.0623  0.0019  0.0283
35988OCT     C271976  22.490   7.889   1.045  0.1263 -0.0979 -0.0281
35989OCT     C171977  16.528  16.593  12.273 -0.1476 -0.4028  0.0474
35989OCT     C271978  16.307  16.289  12.537 -0.0136 -0.1760  0.1979
35990OCT     C171979   3.921  11.388  17.172  0.3061 -0.0891 -0.0056
35990OCT     C271980   4.352  11.608  17.341 -0.0493  0.0463 -0.3891
35991OCT     C171981  12.440   8.059   1.423  0.0541 -0.0630 -0.0676
35991OCT     C271982  12.337   7.802   1.845 -0.3712  0.1174  0.0717
35992OCT     C171983  10.601   9.318  21.714  0.4437  0.0832 -0.3145
35992OCT     C271984  10.133   9.272  21.523 -0.0393  0.1093  0.0517
35993OCT     C171985   0.434  11.949   9.703 -0.1459  0.3767  0.0402
35993OCT     C271986   0.359  12.415   9.720 -0.4277 -0.1422  0.0171
35994OCT     C171987   3.617  22.824  22.130  0.2135  0.0919 -0.2700
35994OCT     C271988   3.346  23.015  22.498  0.0280  0.1124 -0.0402
35995OCT     C171989   1.036  18.329   6.986  0.1060 -0.5682  0.0792
35995OCT     C271990   0.696  18.041   7.041 -0.1675  0.2339  0.1807
35996OCT     C171991   2.316  10.366  10.420  0.2689 -0.0629 -0.2876
35996OCT     C271992   2.033  10.225  10.742  0.3535 -0.0301  0.1337
35997OCT     C171993   1.278   2.470  11.516 -0.3722 -0.5246  0.3374
35997OCT     C271994   0.841   2.557  11.477  0.5526  0.0466 -0.2082
35998OCT     C171995   4.452  20.875  12.470  0.4549 -0.0949  0.0181
35998OCT     C271996   3.991  20.857  12.455 -0.2121 -0.2543 -0.0112
35999OCT     C171997  15.532   5.985   4.878  0.1728 -0.2341 -0.1226
35999OCT     C271998  15.413   5.545   4.804 -0.1238  0.0733 -0.1290
36000OCT     C171999  21.470  13.227  14.989 -0.1266  0.4051  0.0979
36000OCT     C272000  21.272  13.055  15.416  0.2247 -0.1293 -0.1850
36001OCT     C172001  14.833  10.371  12.733  0.0832  0.2026  0.0326
36001OCT     C272002  15.006  10.367  13.184  0.0561  0.0502  0.1668
36002OCT     C172003  17.353  19.935  17.759 -0.2669  0.4090 -0.0059
36002OCT     C272004  17.756  20.206  17.732  0.1831  0.0747  0.2606
36003OCT     C172005   2.204   1.599  14.045  0.1896  0.0190  0.1411
36003OCT     C272006   2.485   1.192  14.072  0.4006 -0.0509 -0.0744
36004OCT     C172007   5.192  19.328   5.693 -0.4727  0.1847  0.0507
36004OCT     C272008   4.965  18.896   5.634 -0.0582  0.1844 -0.3393
36005OCT     C172009   4.610   8.195  13.054  0.1958  0.1409 -0.2421
36005OCT     C272010   4.979   8.224  12.795  0.1330  0.2842  0.1075
36006OCT     C172011  13.260  19.977   2.777  0.2806 -0.0046 -0.1101
36006OCT     C272012  13.343  19.580   3.044  0.3803 -0.1323  0.0515
36007OCT     C172013  16.750   3.096  18.664 -0.3378  0.1704  0.0993
36007OCT     C272014  16.306   3.083  18.422 -0.2736  0.0462 -0.1318
36008OCT     C172015  14.882   2.235   6.524  0.1333  0.1405 -0.5867
36008OCT     C272016  14.933   2.598   6.815  0.1827 -0.0434  0.3612
36009OCT     C172017  19.903  22.133   8.346  0.0723 -0.1963  0.2406
36009OCT     C272018  19.858  22.001   8.794  0.1231 -0.0822  0.2607
36010OCT     C172019   4.605  15.982   3.373 -0.0726  0.2242  0.4977
36010OCT     C272020   4.513  16.304   3.024  0.1080 -0.0302  0.2682
36011OCT     C172021  14.251  14.102   3.745  0.5147 -0.4599 -0.2014
36011OCT     C272022  14.576  13.794   3.815 -0.0837 -0.1697 -0.3963
36012OCT     C172023  16.660  14.879   2.517 -0.1526 -0.0886 -0.2353
36012OCT     C272024  16.786  14.516   2.277  0.1734  0.0802  0.1803
36013OCT     C172025  17.640  21.650  11.483  0.5643 -0.3364 -0.0450
36013OCT     C272026  17.439  21.412  11.860 -0.0810  0.0072  0.3286
36014OCT     C172027   5.151   4.520  14.755  0.2320  0.1332 -0.0782
36014OCT     C272028   5.413   4.366  15.113 -0.0047 -0.1695  0.0736
36015OCT     C172029  21.494  12.083  23.304  0.0470 -0.0648 -0.1112
36015OCT     C272030  21.560  12.412  23.014  0.3207  0.0752 -0.2807
36016OCT     C172031  11.623   6.512  15.972  0.0561  0.3071  0.1512
36016OCT     C272032  11.333   6.109  15.941 -0.0292 -0.2244  0.1128
36017OCT     C172033  10.344   1.700  13.413  0.0107  0.2061 -0.0433
36017OCT     C272034  10.225   1.378  13.788 -0.0806  0.6542 -0.1257
36018OCT     C172035  14.034   5.851   4.720 -0.1319  0.6357  0.1364
36018OCT     C272036  13.629   5.990   4.909  0.0875 -0.1056  0.1265
36019OCT     C172037   2.843  13.796   2.501  0.1591  0.2605 -0.0093
36019OCT     C272038   2.732  13.411   2.296  0.2289 -0.2181  0.0196
36020OCT     C172039  16.891  14.432  23.726 -0.1086  0.1533  0.2483
36020OCT     C272040  16.540  14.356  23.403 -0.1420  0.0003 -0.0135
36021OCT     C172041   5.094   8.981  13.141  0.1845  0.0137  0.1184
36021OCT     C272042   5.430   9.313  13.258  0.0936 -0.3205 -0.0696
36022OCT     C172043   9.957  17.371  10.920 -0.0604  0.0694 -0.0542
36022OCT     C272044   9.874  17.778  10.833  0.1546 -0.1286 -0.2138
36023OCT     C172045   4.069  17.701   5.716 -0.2101 -0.0284  0.0043
36023OCT     C272046   3.886  17.346   5.497 -0.1611 -0.1070  0.0326
36024OCT     C172047   1.270   5.563   2.546  0.3308 -0.3867 -0.5360
36024OCT     C272048   1.185   5.919   2.900  0.0568 -0.0779 -0.1302
36025OCT     C172049  12.649  17.036   7.829 -0.0185 -0.2286 -0.0647
36025OCT     C272050  12.455  16.809   8.221  0.2301  0.0198  0.1540
36026OCT     C172051  13.458  15.672   3.663  0.2814 -0.0418 -0.0303
36026OCT     C272052  13.641  15.812   4.064 -0.2106 -0.2127  0.3614
36027OCT     C172053  23.365   5.695  16.022 -0.1901 -0.4775  0.1935
36027OCT     C272054  23.271   5.545  15.587 -0.0092  0.1295 -0.0019
36028OCT     C172055   7.844   0.002   7.559  0.2967  0.2908 -0.2193
36028OCT     C272056   7.926  23.293   7.314 -0.1353 -0.0386 -0.1344
36029OCT     C172057   1.755  21.064  18.523  0.0354 -0.0109  0.0677
36029OCT     C272058   1.755  21.311  18.957  0.0061 -0.1725  0.2602
36030OCT     C172059  10.276   2.163  18.320  0.2051 -0.0591  0.1099
36030OCT     C272060  10.509   2.462  18.574  0.2515 -0.3315 -0.0527
36031OCT     C172061  14.103   4.105   0.239 -0.1909 -0.0464 -0.1022
36031OCT     C272062  13.905   3.742   0.300 -0.2189 -0.1719 -0.2652
36032OCT     C172063  12.278   1.392   7.784  0.4918  0.1247  0.1471
36032OCT     C272064  11.956   1.424   7.490 -0.2683  0.1078  0.1476
36033OCT     C172065  20.984  13.645  11.355  0.0298 -0.1656 -0.2642
36033OCT     C272066  21.136  13.265  11.156  0.0349 -0.0153  0.1597
36034OCT     C172067   9.888   2.620  13.196  0.3589 -0.1910 -0.0527
36034OCT     C272068   9.686   2.275  13.449  0.2755 -0.1496  0.0010
36035OCT     C172069   3.115  12.928  17.135  0.0489 -0.1396 -0.0020
36035OCT     C272070   3.458  12.887  17.450 -0.3119  0.3029 -0.0303
36036OCT     C172071  16.349  14.093   2.569  0.3418 -0.2526 -0.1417
36036OCT     C272072  16.284  13.759   2.914 -0.0963  0.0582  0.1601
36037OCT     C172073  17.909  23.069  13.157 -0.0207  0.2422  0.2956
36037OCT     C272074  17.778  22.586  13.220  0.2627  0.0809 -0.0006
36038OCT     C172075  10.689   7.178   5.992 -0.2428 -0.5079  0.0322
36038OCT     C272076  10.430   7.568   5.786 -0.2185  0.2199  0.1288
36039OCT     C172077   4.076  16.054   5.813  0.1861 -0.1026 -0.0796
36039OCT     C272078   4.237  16.499   5.709  0.1108  0.1870  0.2393
36040OCT     C172079   8.361  18.688  13.429  0.1451  0.0782  0.3091
36040OCT     C272080   8.731  18.946  13.426 -0.1196  0.1548 -0.0909
36041OCT     C172081  22.630   2.514  10.448 -0.1787 -0.1252 -0.0229
36041OCT     C272082  22.503   2.359  10.032 -0.1199  0.0273 -0.2255
36042OCT     C172083  22.076   2.798  12.615  0.1686 -0.1935  0.0360
36042OCT     C272084  22.035   2.842  12.149 -0.0586 -0.2172 -0.0332
36043OCT     C172085  23.139   5.277   9.767  0.1364 -0.0312  0.1632
36043OCT     C272086  23.139   4.840   9.947 -0.1339  0.4754 -0.0077
36044OCT     C172087  16.892  19.819   4.944  0.1018  0.0038  0.0128
36044OCT     C272088  16.500  20.044   5.096  0.3152  0.2449 -0.0489
36045OCT     C172089  11.539   7.684   6.153  0.0349  0.1164 -0.0772
36045OCT     C272090  11.227   7.368   6.121 -0.5674 -0.2278 -0.1345
36046OCT     C172091  16.579  18.465  16.024 -0.4225 -0.3047 -0.0446
36046OCT     C272092  16.945  18.128  15.889  0.0567  0.1300  0.0638
36047OCT     C172093  17.697  18.029  14.376 -0.0592 -0.0274 -0.0850
36047OCT     C272094  18.108  17.896  14.584  0.1247  0.0886  0.0446
36048OCT     C172095   6.893  23.075  15.751 -0.0276  0.0230  0.0159
36048OCT     C272096   6.978  22.569  15.662 -0.2088 -0.1063 -0.2152
36049OCT     C172097   7.581  19.551  10.690  0.3205 -0.0597 -0.0770
36049OCT     C272098   7.138  19.665  10.584  0.0175 -0.0922  0.0800
36050OCT     C172099   3.181  14.652  22.924  0.1175 -0.0309  0.2447
36050OCT     C272100   3.481  14.534  22.570 -0.0215  0.0811  0.0577
36051OCT     C172101  16.526  15.825  12.194 -0.1493 -0.1588  0.0514
36051OCT     C272102  16.633  15.461  12.480 -0.3089 -0.1377 -0.0349
36052OCT     C172103  13.738  19.741   8.669  0.1551 -0.0930 -0.0625
36052OCT     C272104  13.604  19.486   8.293  0.1951  0.1068 -0.2525
36053OCT     C172105  18.695  17.218  18.352 -0.1808 -0.2484 -0.2354
36053OCT     C272106  18.678  17.668  18.215 -0.1311 -0.1415 -0.0984
36054OCT     C172107  13.157  20.767   9.509 -0.0001 -0.2604 -0.3122
36054OCT     C272108  12.865  20.411   9.728 -0.2789 -0.1416  0.0667
36055OCT     C172109  12.849   2.566  18.676  0.1343 -0.4473  0.2960
36055OCT     C272110  12.473   2.816  18.836 -0.3516 -0.0494 -0.1648
36056OCT     C172111   8.518   4.878   1.205 -0.0492  0.2180 -0.1777
36056OCT     C272112   8.863   4.856   1.500  0.2728 -0.1973 -0.0399
36057OCT     C172113  10.087   1.496   1.469  0.4878  0.1239  0.0358
36057OCT     C272114   9.830   1.900   1.416 -0.1040  0.1822  0.2398
36058OCT     C172115  23.502  16.318   1.190 -0.2908  0.0616 -0.1836
36058OCT     C272116   0.113  16.412   0.901  0.1159 -0.0050  0.5085
36059OCT     C172117   5.746  10.345  12.035  0.2698 -0.2254 -0.1367
36059OCT     C272118   5.522  10.611  12.361 -0.4552  0.1846 -0.0831
36060OCT     C172119   6.474  15.602  18.754 -0.2141  0.0304 -0.1138
36060OCT     C272120   6.192  15.917  18.634  0.4975 -0.0142  0.2263
36061OCT     C172121  17.212  12.972   4.346  0.1677 -0.0479 -0.0575
36061OCT     C272122  16.959  12.765   4.697  0.2094  0.0063  0.0643
36062OCT     C172123   3.507  22.537  23.355  0.1780  0.1951  0.1070
36062OCT     C272124   3.989  22.490  23.371 -0.0009  0.0744  0.1320
36063OCT     C172125   2.242  11.940   5.678 -0.0639  0.0670 -0.2393
36063OCT     C272126   1.855  12.160   5.621  0.0822 -0.2168 -0.0284
36064OCT     C172127   6.578   3.289  18.718 -0.0433  0.1619  0.2690
36064OCT     C272128   6.604   3.734  18.545 -0.1590  0.1798  0.5176
36065OCT     C172129  10.706   7.471  18.466  0.0092 -0.1962  0.1588
36065OCT     C272130  11.040   7.147  18.584  0.0483  0.1009  0.0910
36066OCT     C172131  22.411  22.835  15.032  0.0495 -0.0339 -0.4665
36066OCT     C272132  22.862  22.739  15.039  0.0766 -0.0152  0.0046
36067OCT     C172133   6.486  15.120  23.285  0.1765  0.1822  0.3555
36067OCT     C272134   6.437  14.833  22.942  0.0182 -0.0095  0.3004
36068OCT     C172135  17.814  12.307  22.575  0.0557 -0.3948  0.1443
36068OCT     C272136  18.079  12.317  22.939  0.1210 -0.3508  0.3379
36069OCT     C172137   9.081  12.658  23.144 -0.1069 -0.1944  0.0221
36069OCT     C272138   8.625  12.866  23.161 -0.1411  0.1518 -0.2565
36070OCT     C172139   5.696  15.909  10.326 -0.2042 -0.0544  0.1539
36070OCT     C272140   5.384  15.534  10.342 -0.4387  0.3566  0.0259
36071OCT     C172141  11.732   2.383   2.769 -0.3361 -0.0371 -0.1773
36071OCT     C272142  11.640   2.652   3.144 -0.1825 -0.1572  0.0803
36072OCT     C172143  19.971  20.210   5.670  0.0314 -0.0356 -0.0896
36072OCT     C272144  19.718  20.594   5.547 -0.4146  0.2672 -0.1933
36073OCT     C172145   2.824   4.009  17.966 -0.0028 -0.5261 -0.4679
36073OCT     C272146   3.063   3.713  18.285 -0.2121  0.2416 -0.1935
36074OCT     C172147  19.158  12.017   4.711  0.0942  0.1311  0.4188
36074OCT     C272148  18.899  11.775   4.416  0.1500  0.3120  0.0352
36075OCT     C172149   4.173  12.369  18.115  0.3166  0.2245  0.0916
36075OCT     C272150   3.927  12.026  18.143  0.2101 -0.0505  0.1475
36076OCT     C172151  19.070  22.287   0.661 -0.2716 -0.1206  0.5668
36076OCT     C272152  18.673  22.235   0.726  0.1794  0.0905 -0.0673
36077OCT     C172153   8.632   9.011   3.077  0.0572  0.0360  0.2098
36077OCT     C272154   8.621   8.834   3.488 -0.2997  0.1443 -0.1302
36078OCT     C172155  20.280   3.651   8.031 -0.1770 -0.1178  0.2231
36078OCT     C272156  19.916   3.924   8.237 -0.3724  0.2032  0.1488
36079OCT     C172157  11.513   2.209   9.647 -0.1756 -0.2358  0.1356
36079OCT     C272158  11.312   1.868   9.898  0.1089  0.0988  0.1663
36080OCT     C172159   0.061  16.096   3.584 -0.0205 -0.1282  0.0635
36080OCT     C272160  23.537  15.920   3.222 -0.0705 -0.0921  0.0581
36081OCT     C172161  23.117  15.523  17.142  0.0280  0.3009  0.4310
36081OCT     C272162  23.091  15.351  17.574  0.0355  0.2014  0.1153
36082OCT     C172163  22.379  14.716   0.339 -0.3696 -0.0972 -0.2986
36082OCT     C272164  22.631  14.878   0.693  0.0693 -0.1536  0.1165
36083OCT     C172165  23.123  20.104  18.149  0.1036  0.1570  0.1758
36083OCT     C272166  22.955  20.536  17.946  0.2588  0.2823 -0.0229
36084OCT     C172167  12.695   2.777  12.416  0.1526  0.0032  0.0770
36084OCT     C272168  13.139   2.788  12.413  0.2492  0.1471  0.1374
36085OCT     C172169   2.536  12.773  18.415 -0.0475  0.0443  0.2999
36085OCT     C272170   2.597  12.444  18.721  0.1450  0.2397 -0.1315
36086OCT     C172171   7.696  23.372   6.837 -0.0192  0.1367  0.1577
36086OCT     C272172   7.617  22.903   6.916  0.0691  0.2128 -0.1248
36087OCT     C172173  14.028  21.724   8.292 -0.0353 -0.0768  0.3136
36087OCT     C272174  13.942  21.755   7.833 -0.1238  0.1683 -0.2210
36088OCT     C172175   1.549   0.463   0.028 -0.0220 -0.0779 -0.0620
36088OCT     C272176   1.718   0.831   0.250  0.0462  0.3281  0.4091
36089OCT     C172177   6.781  19.678  21.049 -0.5283  0.1829  0.3139
36089OCT     C272178   6.717  20.127  20.962 -0.1153 -0.1304  0.2436
36090OCT     C172179   6.238   4.183  20.364 -0.2008 -0.1277  0.3155
36090OCT     C272180   6.149   3.824  20.608 -0.0639 -0.2137  0.4387
36091OCT     C172181   6.631   1.411   3.723 -0.1599 -0.0185 -0.0003
36091OCT     C272182   6.580   1.822   4.009 -0.0484 -0.2221  0.1774
36092OCT     C172183  22.473   8.351  19.779  0.0345 -0.0435  0.3113
36092OCT     C272184  22.689   7.936  19.753 -0.1944  0.0668 -0.1751
36093OCT     C172185  20.841  16.000  17.089  0.0796 -0.1349 -0.5601
36093OCT     C272186  20.489  16.239  17.035  0.0346  0.0782  0.3400
36094OCT     C172187   2.540  12.272   1.845  0.4226  0.0432 -0.1198
36094OCT     C272188   2.788  12.488   2.140  0.2610 -0.1210  0.0258
36095OCT     C172189  20.312  12.054  16.850 -0.0741  0.1003  0.2400
36095OCT     C272190  20.768  12.087  16.719 -0.0773  0.2808  0.0221
36096OCT     C172191   5.156  14.251  16.187 -0.1084 -0.0840 -0.2559
36096OCT     C272192   5.277  14.330  16.612  0.0989 -0.0099  0.1152
36097OCT     C172193  14.397   9.271   2.369 -0.1591  0.2397  0.1108
36097OCT     C272194  14.687   9.582   2.528  0.3125  0.5309 -0.1473
36098OCT     C172195   7.742  14.095   2.514  0.1743 -0.2547  0.0574
36098OCT     C272196   8.025  14.365   2.747 -0.0752  0.1404  0.1235
36099OCT     C172197   1.509   7.636  22.846 -0.1307 -0.1806 -0.2717
36099OCT     C272198   1.898   7.480  23.118  0.0290  0.4696  0.0038
36100OCT     C172199   6.708  10.991   3.194  0.1737  0.3908  0.0421
36100OCT     C272200   6.267  10.892   3.079 -0.3864  0.0722 -0.4683
36101OCT     C172201  21.922  23.581   2.400 -0.0534 -0.0789 -0.4205
36101OCT     C272202  21.702  23.341   2.742  0.6137 -0.3305  0.2758
36102OCT     C172203  15.707  22.201  12.058 -0.3576 -0.1091  0.0140
36102OCT     C272204  15.661  22.106  12.537 -0.0829 -0.1696  0.1393
36103OCT     C172205  19.445  11.960  10.879  0.1877  0.2864  0.0166
36103OCT     C272206  19.240  11.629  11.129  0.0848  0.1203  0.0366
36104OCT     C172207  15.797  16.323  18.606 -0.2910 -0.0947 -0.0428
36104OCT     C272208  15.881  16.277  19.066  0.1438 -0.0149 -0.0208
36105OCT     C172209   3.432   2.167  19.110 -0.3029 -0.0362  0.3043
36105OCT     C272210   3.554   2.655  19.109  0.3041 -0.0875  0.2493
36106OCT     C172211  10.463  13.853  19.716 -0.2022  0.0979  0.2510
36106OCT     C272212  10.291  13.427  19.736  0.0394 -0.3239  0.1032
36107OCT     C172213  10.696  14.330  15.374 -0.0004  0.2594 -0.3641
36107OCT     C272214  10.797  14.254  14.919  0.1107 -0.3906  0.2670
36108OCT     C172215   3.561  17.844  13.053  0.3411 -0.4255  0.1215
36108OCT     C272216   3.150  17.888  13.265 -0.1251 -0.1625 -0.0041
36109OCT     C172217  21.195   0.973   6.519  0.0025 -0.0433 -0.2463
36109OCT     C272218  20.860   0.853   6.830  0.1533 -0.1063 -0.0633
36110OCT     C172219  14.179   6.564   4.171  0.2451  0.2641 -0.1357
36110OCT     C272220  14.428   6.172   4.345 -0.1292 -0.0794  0.1004
36111OCT     C172221  21.817   5.630   4.464 -0.3635 -0.1709  0.0305
36111OCT     C272222  21.568   5.356   4.240  0.1951  0.1552  0.1981
36112OCT     C172223   7.648   7.896  10.338  0.2513  0.0936  0.2650
36112OCT     C272224   7.915   8.019  10.689 -0.0338  0.1689 -0.1063
36113OCT     C172225   4.207  23.729  21.572 -0.2738 -0.0006  0.0555
36113OCT     C272226   4.471   0.354  21.745  0.1028 -0.0465  0.0837
36114OCT     C172227  23.664   1.993  20.101  0.1150  0.3048  0.0936
36114OCT     C272228  23.563   2.433  20.236 -0.0219 -0.0469 -0.4054
36115OCT     C172229  13.013   9.882  13.694  0.3879  0.1902  0.1610
36115OCT     C272230  13.470   9.777  13.820  0.1958 -0.0003 -0.3253
36116OCT     C172231   2.283  23.327  10.500 -0.1264 -0.2806 -0.1468
36116OCT     C272232   2.698  23.439  10.315  0.0721  0.1570  0.0186
36117OCT     C172233  21.208   9.337  16.269 -0.0638 -0.2444  0.1913
36117OCT     C272234  21.305   9.161  15.870 -0.3134  0.1802 -0.0041
36118OCT     C172235  17.233  18.514  12.688 -0.0294 -0.1096  0.0309
36118OCT     C272236  16.773  18.496  12.511 -0.0122 -0.2437  0.1710
36119OCT     C172237   2.935  22.249   0.886  0.0649 -0.1114 -0.1644
36119OCT     C272238   3.175  21.838   0.818 -0.0633 -0.1996  0.2359
36120OCT     C172239   6.315  21.502   7.069 -0.1646 -0.0833 -0.1911
36120OCT     C272240   6.139  21.857   7.354 -0.2000  0.0737 -0.1286
36121OCT     C172241  22.515   2.272   1.998 -0.5826 -0.3696 -0.2493
36121OCT     C272242  22.725   2.105   1.607  0.0763  0.2092  0.0239
36122OCT     C172243  14.628  15.762   9.459 -0.1071  0.4001 -0.1543
36122OCT     C272244  14.552  16.110   9.277 -0.1201 -0.2689  0.0208
36123OCT     C172245   4.495  15.597  13.225  0.1505  0.0459  0.0419
36123OCT     C272246   4.822  15.453  12.815  0.1733  0.4225 -0.2790
36124OCT     C172247   2.696  14.758   2.345 -0.0603  0.2780 -0.2419
36124OCT     C272248   2.934  14.898   2.734  0.2196  0.3592 -0.2362
36125OCT     C172249  20.500  23.678   8.671 -0.0949 -0.1528  0.0109
36125OCT     C272250  20.897   0.013   8.943  0.1515  0.1939  0.4112
36126OCT     C172251   2.007  22.325   0.162 -0.1580 -0.1363  0.1427
36126OCT     C272252   1.568  22.218   0.159  0.1531  0.2732  0.3327
36127OCT     C172253   1.177   1.048   1.757  0.1938  0.2310 -0.2055
36127OCT     C272254   1.598   1.226   1.679 -0.1114 -0.1413  0.0851
36128OCT     C172255  12.983   8.760  14.609 -0.0415  0.0767  0.1523
36128OCT     C272256  13.209   8.495  14.316  0.0665 -0.3490  0.1752
36129OCT     C172257   0.854  16.269   9.223 -0.2903 -0.5005  0.0042
36129OCT     C272258   0.609  16.162   9.630 -0.2642  0.2423  0.1822
36130OCT     C172259   5.148  10.461   2.929  0.2853  0.0158 -0.1481
36130OCT     C272260   4.994  10.892   2.883 -0.0468 -0.0862  0.4789
36131OCT     C172261   2.073   2.157  13.127 -0.0869  0.5916  0.3252
36131OCT     C272262   2.508   2.319  13.092 -0.0422  0.3636  0.0525
36132OCT     C172263  15.051   7.806  19.095  0.1094  0.0252  0.0342
36132OCT     C272264  15.432   7.612  18.961  0.2474 -0.1008  0.0999
36133OCT     C172265  21.562  20.740   5.293 -0.3293 -0.1007 -0.0414
36133OCT     C272266  21.482  21.079   5.662 -0.1996 -0.1377  0.3118
36134OCT     C172267   5.705   2.591  21.629  0.2314  0.5303  0.4313
36134OCT     C272268   5.641   2.993  21.814 -0.1163 -0.0666  0.1657
36135OCT     C172269   3.738   2.500   2.341  0.0202  0.3425 -0.2457
36135OCT     C272270   3.666   2.716   1.991  0.0493 -0.0356  0.0213
36136OCT     C172271  23.017   8.122  12.205 -0.2863  0.2528 -0.1766
36136OCT     C272272  22.687   8.472  12.164 -0.1593 -0.1372 -0.2889
36137OCT     C172273   9.572   5.791  12.224  0.1208  0.0446 -0.1638
36137OCT     C272274   9.434   5.721  11.809 -0.1872 -0.2332 -0.0494
36138OCT     C172275   5.540   3.195  21.023 -0.2376  0.1729 -0.2959
36138OCT     C272276   5.862   3.453  20.920  0.1651 -0.2663  0.1759
36139OCT     C172277  22.307  15.631  23.402 -0.1599  0.2886 -0.1985
36139OCT     C272278  22.095  15.996  23.542  0.0073  0.0350 -0.1664
36140OCT     C172279  16.697   7.807   7.084 -0.4038  0.0108  0.2352
36140OCT     C272280  16.358   7.896   6.797 -0.3557 -0.0782  0.1492
36141OCT     C172281   3.837   4.927  13.976 -0.0408 -0.1360  0.0267
36141OCT     C272282   3.962   5.107  14.373  0.1613 -0.1113 -0.4404
36142OCT     C172283  10.794  17.264  12.804 -0.3574 -0.2182 -0.1916
36142OCT     C272284  10.997  17.013  12.457  0.3610  0.0196  0.0638
36143OCT     C172285  15.898  14.326   1.239  0.3325 -0.1622 -0.2718
36143OCT     C272286  15.759  14.357   0.825  0.2254  0.2131 -0.1049
36144OCT     C172287  12.156  14.332   5.548  0.4127 -0.2122 -0.0266
36144OCT     C272288  12.148  14.011   5.271  0.2179  0.0174  0.0689
36145OCT     C172289  19.615   5.764   9.340  0.0791  0.0579  0.1736
36145OCT     C272290  20.076   5.667   9.260 -0.2188 -0.0805 -0.0251
36146OCT     C172291  11.870  11.413  15.182  0.1914 -0.1010 -0.2611
36146OCT     C272292  12.060  11.028  15.339  0.1653  0.3130  0.1494
36147OCT     C172293   7.799   9.274  19.003 -0.2470  0.0812 -0.3215
36147OCT     C272294   7.838   9.032  18.547  0.2345 -0.0510 -0.1044
36148OCT     C172295  16.947  19.356  10.387  0.0763 -0.0480 -0.1040
36148OCT     C272296  17.317  19.180  10.167  0.1053  0.1080  0.1084
36149OCT     C172297  13.249   9.579  11.110 -0.2212 -0.0347 -0.0097
36149OCT     C272298  13.730   9.619  11.055 -0.4449 -0.4036  0.0148
36150OCT     C172299  21.988   3.228  12.443  0.2287 -0.1270 -0.0388
36150OCT     C272300  21.620   3.457  12.649  0.1502 -0.5214  0.0439
36151OCT     C172301   7.993   9.110   0.380 -0.1036  0.0655 -0.1493
36151OCT     C272302   8.338   9.410   0.278  0.0846 -0.0080  0.0166
36152OCT     C172303  12.724  14.456  18.772  0.4841 -0.1497  0.0415
36152OCT     C272304  12.702  13.951  18.791  0.2358  0.0675 -0.0978
36153OCT     C172305  17.361  19.553   9.143  0.3332  0.1532 -0.1980
36153OCT     C272306  17.660  19.871   9.017  0.1762 -0.0899 -0.2150
36154OCT     C172307  20.178  16.347   1.901 -0.2771 -0.0624 -0.3029
36154OCT     C272308  20.032  16.621   1.575  0.2521  0.3294 -0.3307
36155OCT     C172309   0.914  20.988  23.713 -0.1510 -0.1573  0.5260
36155OCT     C272310   0.696  21.204   0.325  0.0302  0.3504 -0.1800
36156OCT     C172311   4.021  10.166   2.141 -0.3114  0.3560 -0.0038
36156OCT     C272312   3.790  10.508   2.418  0.0034  0.2935 -0.2219
36157OCT     C172313  17.204  23.282  13.958 -0.1853 -0.1718  0.1125
36157OCT     C272314  16.789  23.153  13.821 -0.3513 -0.0456 -0.0313
36158OCT     C172315  13.094  17.327   7.797 -0.0458 -0.3849 -0.1623
36158OCT     C272316  12.786  17.557   8.070  0.6205 -0.3225 -0.1306
36159OCT     C172317  11.734  10.801   3.201 -0.2083 -0.0968 -0.1838
36159OCT     C272318  11.688  10.947   2.775  0.0024  0.1114  0.0375
36160OCT     C172319   6.352  13.363   7.423  0.1615 -0.6302 -0.1244
36160OCT     C272320   6.163  13.551   7.056  0.1651 -0.1512 -0.3136
36161OCT     C172321   9.918   6.947   5.486 -0.3693  0.2674 -0.2151
36161OCT     C272322  10.265   7.120   5.729  0.2173 -0.0030 -0.1035
36162OCT     C172323  21.268   9.716  22.633  0.1787  0.0410 -0.0642
36162OCT     C272324  21.102   9.313  22.545 -0.0001 -0.1379 -0.0697
36163OCT     C172325  10.802  19.924   9.676 -0.1030  0.0752  0.1129
36163OCT     C272326  10.821  19.450   9.634  0.3885 -0.0434 -0.0070
36164OCT     C172327   0.731  11.834  12.257 -0.0500  0.1056  0.0096
36164OCT     C272328   0.518  11.986  12.623 -0.0416  0.2362  0.3273
36165OCT     C172329  11.984  19.898   4.984  0.1220  0.2365  0.2625
36165OCT     C272330  11.949  19.509   5.287  0.2679  0.1641  0.5078
36166OCT     C172331  21.357  13.596   8.853  0.2698 -0.0551 -0.1244
36166OCT     C272332  20.931  13.699   8.750 -0.3510  0.2802  0.0813
36167OCT     C172333   9.947   6.466   4.068  0.0977 -0.1629 -0.1959
36167OCT     C272334   9.585   6.192   3.908 -0.0480 -0.0338  0.2331
36168OCT     C172335  16.307  11.307  20.008 -0.4201 -0.1016 -0.2364
36168OCT     C272336  15.893  11.115  20.182  0.2390 -0.3103  0.2824
36169OCT     C172337   0.386  13.676   7.046  0.2819  0.1049 -0.0822
36169OCT     C272338   0.063  13.439   6.767  0.2202  0.3180  0.2521
36170OCT     C172339   1.835  12.165   7.816 -0.1270  0.1923 -0.0053
36170OCT     C272340   1.633  11.991   8.246 -0.3037  0.1939 -0.0940
36171OCT     C172341  13.042   5.715  18.220 -0.0549 -0.0370 -0.1117
36171OCT     C272342  12.982   5.355  17.919  0.0485  0.1637  0.4003
36172OCT     C172343  21.645  22.032  11.387 -0.3442 -0.1770 -0.4189
36172OCT     C272344  21.200  22.125  11.279  0.1365 -0.2481 -0.0638
36173OCT     C172345  12.202  19.333   2.182  0.0666  0.0376 -0.0890
36173OCT     C272346  11.749  19.267   2.317 -0.1881 -0.3676  0.1773
36174OCT     C172347  17.634   5.989  17.205 -0.2531  0.0805 -0.0976
36174OCT     C272348  17.362   6.111  16.822  0.3354 -0.0249 -0.1644
36175OCT     C172349  12.666   4.782  11.110 -0.2139  0.1467  0.4114
36175OCT     C272350  13.076   4.550  10.982 -0.0100  0.0396  0.1786
36176OCT     C172351  17.307  15.638  10.848 -0.5073 -0.0644 -0.4647
36176OCT     C272352  17.224  16.022  10.576  0.1731  0.1632  0.1600
36177OCT     C172353   3.112   1.014   2.716 -0.3354 -0.0917 -0.1409
36177OCT     C272354   3.367   1.361   2.921  0.1422 -0.0042 -0.1017
36178OCT     C172355  17.418  21.801  17.219 -0.0269 -0.4244 -0.1832
36178OCT     C272356  16.988  21.737  17.297  0.2966 -0.0048 -0.1312
36179OCT     C172357   8.997   6.451   6.797 -0.0294  0.1087 -0.0291
36179OCT     C272358   9.221   6.757   7.097 -0.1183 -0.2638 -0.1821
36180OCT     C172359  14.060  13.241   8.815  0.0192  0.3416  0.1192
36180OCT     C272360  14.358  13.278   8.454 -0.1587  0.1301 -0.2010
36181OCT     C172361  17.793  22.182  20.763 -0.2751  0.0525  0.1236
36181OCT     C272362  18.241  22.003  20.784 -0.4437  0.3129 -0.1866
36182OCT     C172363  13.824  16.736  15.454  0.1014 -0.0326  0.2063
36182OCT     C272364  14.150  17.053  15.707 -0.2765  0.2088  0.1001
36183OCT     C172365  16.920  19.388  15.284 -0.0187 -0.2724 -0.0061
36183OCT     C272366  16.616  19.547  15.545  0.4290 -0.2149 -0.1106
36184OCT     C172367  12.082  17.441   9.724  0.1771 -0.4203  0.1232
36184OCT     C272368  11.683  17.464   9.971  0.2999  0.1958  0.0449
36185OCT     C172369  17.038   1.609  13.537  0.1279  0.4146  0.0369
36185OCT     C272370  17.262   2.001  13.617  0.0703 -0.0323 -0.2435
36186OCT     C172371  18.604   0.972  20.115  0.0312  0.0755 -0.2593
36186OCT     C272372  18.349   0.692  19.806 -0.2092  0.2255 -0.0424
36187OCT     C172373  19.976   8.295   9.919 -0.2867 -0.4306  0.1251
36187OCT     C272374  19.822   8.772   9.731  0.0344  0.1736 -0.1521
36188OCT     C172375   0.616  23.512   4.806  0.0184  0.0968  0.1410
36188OCT     C272376   0.214   0.036   4.787  0.1700  0.0365  0.3005
36189OCT     C172377   5.687   6.801  15.631  0.0965 -0.5052  0.0474
36189OCT     C272378   5.989   6.518  15.900  0.0651  0.2687 -0.0643
36190OCT     C172379   3.259  21.569  10.582 -0.3685 -0.2361 -0.0516
36190OCT     C272380   2.909  21.329  10.339  0.0042 -0.2982  0.0800
36191OCT     C172381  16.843   4.790  18.484 -0.1257 -0.2040  0.0312
36191OCT     C272382  16.524   4.455  18.583  0.1452  0.0983  0.1521
36192OCT     C172383  17.547  16.686  18.196  0.2111 -0.1789 -0.2612
36192OCT     C272384  17.420  16.790  17.733  0.0919  0.0485  0.2339
36193OCT     C172385   3.155  11.915   6.488 -0.1466  0.0491  0.2746
36193OCT     C272386   3.382  11.957   6.898  0.2551  0.1034  0.0957
36194OCT     C172387   5.018   3.239   3.714 -0.3168 -0.1240 -0.2045
36194OCT     C272388   4.831   3.315   4.128  0.0862  0.2631 -0.2284
36195OCT     C172389  21.492   4.269   6.399 -0.0762  0.1117 -0.0545
36195OCT     C272390  21.860   4.380   6.648 -0.3557 -0.1992  0.4222
36196OCT     C172391   5.823   3.691   6.585 -0.0097 -0.3312  0.2772
36196OCT     C272392   5.961   4.035   6.347 -0.2767 -0.3919  0.4543
36197OCT     C172393  12.730  21.332  21.282 -0.2145  0.5269 -0.0896
36197OCT     C272394  13.153  21.255  21.380  0.0304  0.1292  0.0247
36198OCT     C172395  10.958  12.712   5.224 -0.3794 -0.0060  0.0505
36198OCT     C272396  10.925  12.415   4.858  0.1046 -0.2194  0.2627
36199OCT     C172397   2.443  19.416   1.878  0.2559  0.3065  0.0223
36199OCT     C272398   2.590  19.005   2.155 -0.1585  0.0677  0.0610
36200OCT     C172399  21.165   8.263   8.670 -0.2273 -0.1273  0.1011
36200OCT     C272400  21.113   8.675   8.990  0.0481 -0.1909  0.0461
36201OCT     C172401  20.246  10.668   2.911 -0.1135  0.0553  0.1791
36201OCT     C272402  20.613  10.367   2.831  0.2208 -0.1139 -0.0718
36202OCT     C172403   8.137   6.826  20.145  0.0449  0.2714  0.4343
36202OCT     C272404   8.538   6.767  20.339 -0.0945  0.1336  0.0589
36203OCT     C172405  13.357  15.528   1.196  0.2137  0.3098 -0.0134
36203OCT     C272406  13.826  15.658   1.284 -0.2358 -0.2836 -0.1959
36204OCT     C172407  19.434  19.270   3.946 -0.0164 -0.0033  0.1367
36204OCT     C272408  19.008  19.093   3.759 -0.0117  0.7006  0.0880
36205OCT     C172409   9.178  11.335   7.151 -0.0711  0.1133 -0.0430
36205OCT     C272410   8.775  11.134   7.386  0.1115 -0.1603 -0.1141
36206OCT     C172411  14.494   9.782  21.159  0.1575 -0.0160 -0.0162
36206OCT     C272412  14.161   9.716  20.870  0.2231 -0.1661 -0.1798
36207OCT     C172413   0.663  19.154  22.023 -0.4208 -0.0541  0.2945
36207OCT     C272414   0.843  19.470  22.293  0.0929 -0.0581 -0.1929
36208OCT     C172415  12.838  17.975  10.618  0.0478 -0.1905  0.2997
36208OCT     C272416  12.539  17.865  10.215  0.2129 -0.0680 -0.0690
36209OCT     C172417   1.040   6.011  18.084 -0.4374 -0.1983  0.0973
36209OCT     C272418   1.120   5.821  18.502  0.0875 -0.1099  0.3688
36210OCT     C172419  22.111   3.502   0.948  0.3736 -0.0576  0.0885
36210OCT     C272420  22.117   3.191   1.285  0.2018  0.1064  0.1508
36211OCT     C172421   0.350  22.759   0.581  0.1197  0.2046 -0.0939
36211OCT     C272422   0.522  23.132   0.768  0.2686 -0.2879 -0.3321
36212OCT     C172423   2.602   7.171  16.072  0.1160  0.1443  0.1026
36212OCT     C272424   2.812   7.222  16.406 -0.2086 -0.1600 -0.3091
36213OCT     C172425   8.093   1.748   3.950 -0.1238 -0.0353 -0.0443
36213OCT     C272426   7.894   1.721   3.556 -0.2451  0.1537 -0.1515
36214OCT     C172427   3.101   8.880  21.030  0.4245 -0.1424 -0.4031
36214OCT     C272428   3.375   8.560  21.038  0.1883  0.1342 -0.1462
36215OCT     C172429   7.429   4.743   0.271 -0.1153  0.2689  0.3041
36215OCT     C272430   7.846   4.610   0.160 -0.0331  0.4277  0.3575
36216OCT     C172431   2.616  22.406  15.917 -0.0052  0.0636  0.5074
36216OCT     C272432   2.882  22.144  16.155  0.0037  0.2674 -0.2586
36217OCT     C172433  20.819  15.392  18.829 -0.3147 -0.0098  0.2211
36217OCT     C272434  20.971  15.680  19.142  0.0823 -0.0890 -0.1674
36218OCT     C172435  15.311  17.802  21.765 -0.0332 -0.2010 -0.1263
36218OCT     C272436  15.485  17.847  22.236  0.2826 -0.1088  0.3900
36219OCT     C172437  21.972  16.199   2.816  0.0300 -0.0670  0.0434
36219OCT     C272438  22.093  16.428   3.206 -0.0328 -0.1812  0.0227
36220OCT     C172439  21.647   6.176  10.623  0.1270  0.2127  0.0699
36220OCT     C272440  21.295   6.474  10.501 -0.0590 -0.0303 -0.1521
36221OCT     C172441   8.648   3.000  13.338  0.0596  0.0311 -0.3376
36221OCT     C272442   8.161   2.834  13.178 -0.1837 -0.3259  0.4155
36222OCT     C172443  13.466  14.308  19.131 -0.1692  0.1389  0.3084
36222OCT     C272444  13.933  14.254  19.149 -0.1535 -0.4345  0.0759
36223OCT     C172445   4.861  15.246  17.850  0.0099 -0.2229  0.0288
36223OCT     C272446   4.947  14.983  18.259  0.4132 -0.1088 -0.2439
36224OCT     C172447  22.583   2.106  18.878 -0.5536  0.0777  0.4670
36224OCT     C272448  22.231   1.968  18.748  0.1136  0.1855 -0.1712
36225OCT     C172449   5.301  13.820   1.427  0.1036  0.1380 -0.1788
36225OCT     C272450   5.529  13.992   1.016  0.2266  0.0717  0.0494
36226OCT     C172451  12.143  18.543   9.579  0.2497  0.0707 -0.0301
36226OCT     C272452  12.269  18.755   9.170 -0.1876 -0.0918  0.1784
36227OCT     C172453   8.048   9.577  20.795  0.0339 -0.1304  0.0880
36227OCT     C272454   7.754   9.614  20.421  0.0105 -0.0620 -0.0112
36228OCT     C172455  12.237  12.487  16.690 -0.0710 -0.1898 -0.3561
36228OCT     C272456  11.836  12.279  16.907 -0.2021  0.3049 -0.3858
36229OCT     C172457   8.309  21.787  20.710  0.0496 -0.0715  0.0753
36229OCT     C272458   8.759  21.950  20.578  0.0228  0.5207  0.0573
36230OCT     C172459   0.651  15.982  22.177 -0.1043  0.0608 -0.3433
36230OCT     C272460   0.252  16.030  22.439 -0.2950 -0.1601 -0.4642
36231OCT     C172461   0.427   7.768  23.345 -0.1547  0.1940  0.2398
36231OCT     C272462   0.744   7.716  23.639 -0.1114 -0.2116 -0.1254
36232OCT     C172463   7.635  15.192  16.296  0.5594 -0.3607 -0.1848
36232OCT     C272464   7.223  15.307  16.194 -0.1760 -0.4361  0.0943
36233OCT     C172465  15.218  17.809  19.303  0.0851  0.1230  0.1913
36233OCT     C272466  15.277  17.725  18.850  0.0479 -0.0674  0.0372
36234OCT     C172467   3.458   7.920   0.046  0.0232 -0.3861 -0.1679
36234OCT     C272468   3.769   8.189   0.210  0.0728  0.0484 -0.1608
36235OCT     C172469   6.447   8.226  19.491 -0.2404  0.1295 -0.2759
36235OCT     C272470   6.711   8.405  19.119  0.1713  0.2358  0.0078
36236OCT     C172471  10.620   2.553  20.027 -0.0848 -0.1548 -0.0445
36236OCT     C272472  10.776   2.204  20.347 -0.1990 -0.1109  0.1119
36237OCT     C172473   3.091  10.209   9.865  0.1348  0.1440 -0.0578
36237OCT     C272474   2.705  10.023   9.657 -0.0290  0.0442  0.0597
36238OCT     C172475   1.003  10.939  11.730 -0.2284 -0.1804 -0.2095
36238OCT     C272476   0.707  10.764  11.464  0.1548 -0.0875 -0.0674
36239OCT     C172477  12.895   1.213  23.300 -0.2541  0.1188  0.1288
36239OCT     C272478  12.996   0.788  23.461 -0.0789 -0.0052  0.1367
36240OCT     C172479   7.734  18.086   3.726 -0.1792 -0.0208  0.0986
36240OCT     C272480   7.953  17.695   3.526 -0.1963 -0.1747  0.1942
36241OCT     C172481  15.512  22.758   4.819 -0.0277  0.0120 -0.2056
36241OCT     C272482  15.326  22.446   5.114  0.1474  0.0188  0.3022
36242OCT     C172483  14.661  15.995   4.837  0.1991  0.0527  0.2291
36242OCT     C272484  14.838  16.024   4.412  0.0987  0.1128  0.2064
36243OCT     C172485  18.693   2.196  10.094 -0.1384  0.2116 -0.2339
36243OCT     C272486  18.585   1.994   9.697 -0.1186 -0.1994  0.1898
36244OCT     C172487  18.675   3.450   0.984  0.1437  0.0379 -0.1580
36244OCT     C272488  18.533   3.721   0.600  0.0642 -0.1508  0.1542
36245OCT     C172489   0.465   2.552   2.956  0.3443 -0.3041  0.5835
36245OCT     C272490   0.762   2.296   3.197  0.0657 -0.2387  0.1783
36246OCT     C172491   4.837   1.469   6.231 -0.2587  0.2940  0.0381
36246OCT     C272492   5.020   1.698   5.888  0.0856 -0.0862  0.4341
36247OCT     C172493   2.908   4.804   9.031  0.0822  0.2049  0.2007
36247OCT     C272494   2.447   4.874   9.050  0.0421 -0.1429  0.3018
36248OCT     C172495  20.760  10.344  14.931  0.1213 -0.0836  0.1117
36248OCT     C272496  21.006  10.185  15.294 -0.1175 -0.1022 -0.0930
36249OCT     C172497  18.293   7.425  16.474 -0.0420 -0.2420  0.0636
36249OCT     C272498  18.672   7.642  16.283  0.3318 -0.0527  0.0283
36250OCT     C172499   9.302  12.882   4.658 -0.2968 -0.2939 -0.0172
36250OCT     C272500   9.622  12.531   4.572 -0.0206  0.1002 -0.4996
36251OCT     C172501  17.173  19.770   3.455  0.0315 -0.4838  0.0429
36251OCT     C272502  17.458  19.458   3.443 -0.1529 -0.0211  0.2092
36252OCT     C172503  20.455  21.871   6.797 -0.0929  0.1647  0.0632
36252OCT     C272504  20.083  22.068   6.951 -0.4017 -0.1133  0.0008
36253OCT     C172505  23.420  14.247   2.116 -0.0432 -0.3205  0.2563
36253OCT     C272506   0.170  14.209   2.189  0.0287  0.3895 -0.6301
36254OCT     C172507  14.510  19.835  21.360  0.0307  0.0160  0.4262
36254OCT     C272508  14.619  19.904  21.805 -0.3590 -0.1642 -0.2843
36255OCT     C172509  10.083  10.985  19.050  0.0330  0.0077 -0.5775
36255OCT     C272510  10.253  11.137  18.685  0.1584 -0.0589 -0.2512
36256OCT     C172511   3.862   7.133   9.117 -0.0134  0.0870  0.4644
36256OCT     C272512   4.003   6.843   8.725  0.1411  0.0923  0.0256
36257OCT     C172513   6.521  19.945  20.104  0.1443 -0.3079  0.2280
36257OCT     C272514   6.814  19.597  20.122  0.3535  0.1386  0.2196
36258OCT     C172515   6.520  11.825  18.915 -0.0888 -0.2501 -0.2834
36258OCT     C272516   6.601  11.484  19.166 -0.2872  0.4940  0.6699
36259OCT     C172517   8.518  19.824   7.935  0.1491  0.0801 -0.4224
36259OCT     C272518   8.595  19.904   7.485  0.2552  0.3067 -0.3498
36260OCT     C172519   5.222  17.919  14.992 -0.3555  0.1185 -0.1917
36260OCT     C272520   5.017  17.619  15.287 -0.2247  0.0566 -0.1993
36261OCT     C172521   7.031   4.511   2.862  0.2038 -0.1584  0.1542
36261OCT     C272522   6.831   4.868   2.718  0.1173  0.1821  0.0387
36262OCT     C172523  11.854   1.361  18.863  0.2832 -0.0185 -0.2639
36262OCT     C272524  11.962   1.807  18.674 -0.0064 -0.2265 -0.1047
36263OCT     C172525  18.784   6.051   5.151 -0.0355 -0.1808  0.1704
36263OCT     C272526  18.353   5.820   5.045  0.0287 -0.2357  0.2025
36264OCT     C172527  20.015   3.284  18.325  0.1521  0.3622  0.3343
36264OCT     C272528  19.648   3.356  17.970  0.1184  0.3296  0.2016
36265OCT     C172529  23.538  20.949  16.307  0.2570 -0.2136  0.1225
36265OCT     C272530   0.065  21.230  16.041  0.1738  0.1480  0.0899
36266OCT     C172531  17.544   1.794   2.341 -0.0116 -0.0348 -0.0841
36266OCT     C272532  17.447   2.242   2.332 -0.3083  0.3806  0.1986
36267OCT     C172533   4.943   3.776   2.541  0.4396 -0.2748 -0.0278
36267OCT     C272534   5.201   4.140   2.464  0.2650 -0.1258  0.1527
36268OCT     C172535  20.422  16.652  16.598  0.2588  0.0837 -0.1077
36268OCT     C272536  20.787  16.650  16.852 -0.1488  0.3267  0.1364
36269OCT     C172537  10.743  22.928  23.529 -0.0933 -0.0751 -0.0071
36269OCT     C272538  10.764  23.371  23.703 -0.2643  0.1242  0.2556
36270OCT     C172539  11.782  19.535  18.188  0.2379  0.4476  0.1871
36270OCT     C272540  11.725  19.061  18.122 -0.0889 -0.0267  0.1740
36271OCT     C172541  22.830  17.282  19.786 -0.1328  0.1708  0.1803
36271OCT     C272542  22.804  16.867  19.636  0.1127  0.0900 -0.3957
36272OCT     C172543   1.583   8.033   5.121  0.0683  0.2126  0.1168
36272OCT     C272544   1.617   7.735   5.498 -0.1142  0.3104 -0.0319
36273OCT     C172545  19.419  13.695  14.756 -0.1997 -0.2994 -0.0500
36273OCT     C272546  19.806  14.038  14.790 -0.2457  0.1767  0.0501
36274OCT     C172547   9.243   8.254  21.085 -0.0951  0.1707  0.2967
36274OCT     C272548   9.477   7.914  21.179  0.1373 -0.3759 -0.2444
36275OCT     C172549  22.665  19.155  12.325 -0.1622 -0.0341  0.1488
36275OCT     C272550  23.155  18.932  12.303  0.1982 -0.0213  0.1084
36276OCT     C172551   7.961   8.410  20.860  0.0667  0.1430 -0.0292
36276OCT     C272552   8.291   8.400  20.475 -0.0188 -0.1269  0.0584
36277OCT     C172553  19.542   1.257  13.247  0.0011 -0.3580 -0.0597
36277OCT     C272554  19.443   1.700  13.370 -0.0173  0.0339 -0.1674
36278OCT     C172555   0.779  20.068  14.101  0.1713  0.1619  0.3598
36278OCT     C272556   0.629  20.413  13.823  0.1622  0.0661 -0.1232
36279OCT     C172557  12.534   8.705  18.321  0.1880 -0.0401  0.3086
36279OCT     C272558  12.188   8.665  17.934 -0.3716 -0.0027 -0.0340
36280OCT     C172559   5.422  10.369  20.236  0.0301  0.1964  0.2071
36280OCT     C272560   4.947  10.385  20.370  0.1285 -0.3783 -0.2135
36281OCT     C172561   9.487   7.544  16.641  0.3386  0.1050  0.0801
36281OCT     C272562   9.056   7.298  16.497  0.2521  0.0346  0.3012
36282OCT     C172563  10.255  22.104  19.565 -0.3618 -0.0471 -0.2353
36282OCT     C272564  10.556  21.807  19.676  0.1029 -0.0473 -0.4216
36283OCT     C172565  13.321   8.529   6.376  0.2031 -0.1728 -0.4353
36283OCT     C272566  13.648   8.507   6.682 -0.1531 -0.0646 -0.0191
36284OCT     C172567   5.311  10.800   7.959  0.1909 -0.1114  0.0538
36284OCT     C272568   5.012  11.156   7.894 -0.1876 -0.2969  0.1186
36285OCT     C172569  11.064   0.209  12.329  0.3000 -0.0030  0.0770
36285OCT     C272570  11.296   0.509  12.152 -0.1795  0.0814  0.0106
36286OCT     C172571  23.586   6.642   8.452 -0.1475  0.0605  0.0105
36286OCT     C272572  23.488   6.221   8.261 -0.0003  0.4789 -0.0688
36287OCT     C172573  19.477   9.901   6.477 -0.2692  0.0908 -0.0511
36287OCT     C272574  19.614  10.300   6.734  0.2142  0.0714 -0.1675
36288OCT     C172575  16.702   8.904  16.694  0.0621  0.1944  0.1373
36288OCT     C272576  16.337   9.039  16.487 -0.0323  0.0481 -0.1978
36289OCT     C172577   7.244   5.270   0.957 -0.0031 -0.0361 -0.2195
36289OCT     C272578   7.634   5.079   1.146  0.0871 -0.0242  0.1523
36290OCT     C172579  14.782   0.600   0.573  0.1537  0.1459  0.0218
36290OCT     C272580  14.825   1.043   0.432 -0.1208  0.1849 -0.1465
36291OCT     C172581   7.217   1.071   5.569  0.2861 -0.2056 -0.0196
36291OCT     C272582   7.342   1.475   5.720  0.1475  0.1642 -0.4202
36292OCT     C172583   0.708   8.582  11.788 -0.3248 -0.2769  0.2063
36292OCT     C272584   0.752   8.659  12.227  0.0711 -0.1709 -0.4334
36293OCT     C172585   3.385   9.027   5.285  0.1656  0.0353  0.0532
36293OCT     C272586   3.058   9.416   5.099  0.1569 -0.2262 -0.1272
36294OCT     C172587   6.079   2.876   7.194 -0.1952 -0.0377 -0.1230
36294OCT     C272588   5.765   3.012   7.497  0.0515 -0.1087 -0.0697
36295OCT     C172589  19.196   8.701   6.121 -0.0642 -0.1360 -0.1719
36295OCT     C272590  19.351   8.400   6.397  0.0983 -0.2445  0.0305
36296OCT     C172591  18.713  11.982   2.721 -0.0420  0.0669 -0.4819
36296OCT     C272592  19.186  12.018   2.700  0.0713 -0.0675 -0.2092
36297OCT     C172593   3.679   4.855  19.852 -0.1406  0.1245 -0.1763
36297OCT     C272594   3.294   4.556  19.803  0.0558  0.0594 -0.1998
36298OCT     C172595  10.662   1.133   2.621  0.0641  0.2311 -0.1514
36298OCT     C272596  10.227   0.964   2.758 -0.2377 -0.0974  0.3181
36299OCT     C172597   4.190   9.932  23.498 -0.2367 -0.0329 -0.0638
36299OCT     C272598   3.852   9.996  23.114 -0.0864  0.1239 -0.2372
36300OCT     C172599   8.452  12.858  14.673  0.1031  0.0502 -0.2098
36300OCT     C272600   8.613  12.564  15.027  0.2649 -0.2896  0.1813
36301OCT     C172601   1.186  16.811  21.643  0.0535  0.0641  0.3516
36301OCT     C272602   1.269  17.277  21.636 -0.1537 -0.3360 -0.0793
36302OCT     C172603  22.225  11.151  13.701 -0.0444 -0.0585 -0.0460
36302OCT     C272604  22.356  11.546  13.506 -0.4634 -0.0515 -0.0151
36303OCT     C172605  14.811   5.137  10.715  0.4205  0.1236  0.3295
36303OCT     C272606  14.817   5.576  10.757  0.2136  0.0506  0.1026
36304OCT     C172607  18.659  21.284   7.872 -0.2160  0.0069  0.0074
36304OCT     C272608  18.601  20.848   7.714  0.1035  0.0401 -0.0948
36305OCT     C172609  12.035  15.217   5.298 -0.1508 -0.1035  0.1541
36305OCT     C272610  12.370  14.882   5.252 -0.0242  0.3275 -0.4837
36306OCT     C172611   1.480  22.108  15.244 -0.1942 -0.0998 -0.1060
36306OCT     C272612   1.365  22.600  15.206  0.0377 -0.0365  0.0581
36307OCT     C172613   5.215   1.751   6.330 -0.4703 -0.1918  0.0851
36307OCT     C272614   5.645   1.716   6.509  0.1909  0.2883 -0.0386
36308OCT     C172615   5.447  19.562   7.969  0.0233 -0.1574 -0.2408
36308OCT     C272616   5.355  19.243   8.283 -0.2017 -0.1304 -0.1074
36309OCT     C172617  21.977  11.445  11.949  0.0128 -0.0336  0.0175
36309OCT     C272618  21.547  11.350  12.022 -0.1672 -0.1182  0.1265
36310OCT     C172619   8.493   1.450  19.197 -0.2257 -0.0697  0.2592
36310OCT     C272620   8.194   1.663  18.930  0.3483  0.2834  0.2903
36311OCT     C172621  11.343  20.103  22.892  0.1310 -0.3586 -0.0626
36311OCT     C272622  11.429  20.236  23.384  0.0948  0.3196  0.1120
36312OCT     C172623  14.735  16.482   3.619 -0.1457 -0.2113 -0.0779
36312OCT     C272624  15.000  16.454   4.033 -0.1443 -0.1002 -0.1657
36313OCT     C172625   5.642   7.409   5.299  0.0839 -0.1254 -0.0670
36313OCT     C272626   5.285   7.145   5.292  0.1088  0.1366 -0.0584
36314OCT     C172627   5.833  21.165   4.762 -0.0041 -0.1523  0.0199
36314OCT     C272628   6.137  21.139   4.337  0.2292 -0.1268  0.4545
36315OCT     C172629  11.432  17.143   1.240 -0.4211 -0.1334 -0.0690
36315OCT     C272630  11.290  16.725   1.188 -0.0498  0.0508  0.3257
36316OCT     C172631  14.848  11.656   1.463  0.0300  0.5819 -0.1463
36316OCT     C272632  14.790  12.117   1.650  0.0022  0.1543  0.0242
36317OCT     C172633  22.021  21.478  14.981 -0.4695 -0.3038  0.1112
36317OCT     C272634  22.470  21.530  14.896 -0.2874  0.3000  0.0031
36318OCT     C172635  15.129   0.026   5.373 -0.4098  0.3353  0.3879
36318OCT     C272636  15.075  23.716   5.816 -0.0001 -0.1731  0.0226
36319OCT     C172637   3.819   3.344  15.105 -0.2024  0.1144  0.0905
36319OCT     C272638   3.892   3.527  14.650  0.1818 -0.3649  0.1670
36320OCT     C172639  10.215  22.821   3.375  0.2935  0.0968  0.2147
36320OCT     C272640   9.766  22.674   3.427 -0.4202  0.1396  0.3973
36321OCT     C172641  20.947  14.933  14.745 -0.0363  0.0345 -0.0954
36321OCT     C272642  21.209  15.073  14.334  0.1497  0.0656  0.1916
36322OCT     C172643  15.224  22.079   9.464 -0.2577 -0.3061 -0.0949
36322OCT     C272644  15.428  22.290   9.867  0.0516  0.0760  0.2238
36323OCT     C172645  17.448  14.703  10.468 -0.0338  0.5915  0.1346
36323OCT     C272646  17.648  14.545  10.082 -0.1116  0.1508  0.2159
36324OCT     C172647  10.250   2.718   9.579 -0.4853  0.4819 -0.0189
36324OCT     C272648  10.353   3.187   9.699 -0.1446  0.2939 -0.5061
36325OCT     C172649  12.921  14.327  22.293  0.0114 -0.0254 -0.3135
36325OCT     C272650  12.926  14.751  22.165  0.2265 -0.0928 -0.0847
36326OCT     C172651   6.611  20.439  17.109 -0.1945  0.0736  0.3740
36326OCT     C272652   6.432  20.025  16.980  0.0140  0.1103 -0.0484
36327OCT     C172653   6.096  19.055   7.260  0.1852 -0.1100 -0.0007
36327OCT     C272654   5.777  19.068   7.618  0.0454 -0.0387  0.0333
36328OCT     C172655  10.709  10.461  19.024  0.3678  0.0559 -0.0848
36328OCT     C272656  11.000  10.016  18.951 -0.2301 -0.2280 -0.3751
36329OCT     C172657  12.496  16.145  19.824 -0.1211 -0.2874  0.0854
36329OCT     C272658  12.089  16.002  20.003 -0.1838  0.1006 -0.2980
36330OCT     C172659  12.016  15.195  22.433  0.3570  0.0331 -0.3714
36330OCT     C272660  11.691  15.519  22.248 -0.0164 -0.1189  0.3216
36331OCT     C172661   9.299   8.853  18.613 -0.0115  0.3041 -0.1092
36331OCT     C272662   9.439   8.798  18.139 -0.1180 -0.1647  0.2597
36332OCT     C172663  20.974  17.405   4.654  0.2129  0.0512 -0.4091
36332OCT     C272664  20.573  17.578   4.486  0.0656  0.2042 -0.1370
36333OCT     C172665   4.964  13.769  15.507 -0.0324  0.0596  0.1227
36333OCT     C272666   4.786  13.683  15.084 -0.1907 -0.4016  0.1041
36334OCT     C172667   8.726   3.622  11.021  0.2644  0.5987 -0.2549
36334OCT     C272668   9.080   3.608  11.316 -0.2379 -0.0987 -0.0242
36335OCT     C172669   0.313  11.509  13.506 -0.0392  0.1152 -0.1671
36335OCT     C272670   0.794  11.540  13.518 -0.0788 -0.1138 -0.2238
36336OCT     C172671   2.554   7.000  23.323  0.2539  0.5153  0.2210
36336OCT     C272672   2.127   6.890  23.057  0.4097 -0.3241  0.0322
36337OCT     C172673  17.852  16.031  15.227 -0.0187 -0.1728 -0.0796
36337OCT     C272674  17.839  15.673  15.575  0.0850  0.2154 -0.1303
36338OCT     C172675  18.651  13.601   5.429  0.3834  0.0634  0.1205
36338OCT     C272676  18.432  13.636   5.021  0.1223  0.3442 -0.0982
36339OCT     C172677   7.805  20.804   6.525 -0.1062 -0.0589  0.0324
36339OCT     C272678   7.465  20.697   6.865 -0.0780  0.2953  0.0953
36340OCT     C172679  20.492   1.660  13.574  0.0099  0.1302 -0.2801
36340OCT     C272680  20.369   1.961  13.251  0.1756  0.1995  0.0443
36341OCT     C172681   2.804  20.077   3.044  0.2437  0.1286 -0.1993
36341OCT     C272682   2.954  20.449   3.252  0.1228  0.2157 -0.0382
36342OCT     C172683   6.721  14.600  14.623 -0.0330  0.0779 -0.0807
36342OCT     C272684   6.807  14.262  14.921 -0.0933 -0.3170 -0.1337
36343OCT     C172685  22.501   9.333  19.754 -0.0519 -0.0433  0.2754
36343OCT     C272686  22.819   9.550  20.060  0.1114  0.5809 -0.0478
36344OCT     C172687  11.164   9.795  21.023 -0.0948  0.2999  0.1223
36344OCT     C272688  10.960  10.211  21.034  0.0009  0.1399 -0.3253
36345OCT     C172689  11.245   9.784   0.044  0.1517 -0.0346 -0.0291
36345OCT     C272690  11.416  10.253   0.149  0.2936 -0.1030 -0.0375
36346OCT     C172691   1.789   4.714  23.586 -0.2094  0.0755 -0.2394
36346OCT     C272692   1.807   5.137  23.423  0.0687 -0.2210  0.2212
36347OCT     C172693  17.156  11.091   6.854  0.1329 -0.3109  0.0641
36347OCT     C272694  17.477  10.856   6.586  0.1155  0.0934 -0.1568
36348OCT     C172695  21.710  11.095   3.195  0.3392  0.3227 -0.1350
36348OCT     C272696  21.407  11.416   3.422 -0.1073 -0.1648  0.2221
36349OCT     C172697  11.720   0.016  20.716 -0.0656  0.2926 -0.0822
36349OCT     C272698  12.025   0.197  20.450 -0.0575 -0.2200 -0.0522
36350OCT     C172699  10.482  17.584  13.970  0.1674  0.2995  0.1430
36350OCT     C272700  10.412  17.822  13.539  0.1587 -0.3886  0.0509
36351OCT     C172701  22.629   6.509   0.138  0.0498  0.0660  0.1994
36351OCT     C272702  22.140   6.523   0.095  0.2008 -0.0572  0.4540
36352OCT     C172703  15.410   0.547  20.494  0.0250  0.3615 -0.0028
36352OCT     C272704  15.385   0.118  20.253 -0.1447 -0.0978  0.1551
36353OCT     C172705  16.377  20.374   0.557 -0.1189 -0.3733 -0.0697
36353OCT     C272706  16.870  20.283   0.686 -0.1042  0.2319  0.2457
36354OCT     C172707   3.446   8.263  12.605 -0.2536  0.0573 -0.0700
36354OCT     C272708   3.493   8.181  12.171 -0.0210 -0.0488  0.5493
36355OCT     C172709   9.083  22.541   9.304  0.2117 -0.0246 -0.0866
36355OCT     C272710   9.198  22.974   9.303 -0.1506 -0.0504 -0.0537
36356OCT     C172711  18.108   5.741   0.414 -0.4290  0.0561  0.1346
36356OCT     C272712  17.645   5.857   0.396 -0.1949  0.1031  0.1980
36357OCT     C172713   2.935   4.553  20.722  0.1737  0.3351  0.0965
36357OCT     C272714   3.221   4.814  20.957 -0.3146  0.1589 -0.4282
36358OCT     C172715  22.446   1.774  11.370 -0.0431  0.3451  0.1293
36358OCT     C272716  22.543   2.015  10.917 -0.3321  0.0296  0.0467
36359OCT     C172717  22.804   1.264  11.169  0.0577 -0.1808  0.0846
36359OCT     C272718  22.582   1.253  11.615  0.1582  0.1012  0.1339
36360OCT     C172719   1.770  14.922  19.362 -0.0456  0.1924 -0.3865
36360OCT     C272720   1.341  14.945  19.178  0.1798  0.0587 -0.1152
36361OCT     C172721   4.199  12.372  21.516  0.2817  0.1412  0.2548
36361OCT     C272722   4.327  11.914  21.711  0.1029  0.1401  0.0977
36362OCT     C172723  14.402  12.914   0.921 -0.1066  0.1069  0.0681
36362OCT     C272724  14.805  13.113   0.727  0.0931  0.1706  0.1436
36363OCT     C172725   2.990  15.757  15.687 -0.0855  0.0796  0.0731
36363OCT     C272726   3.356  15.583  15.461 -0.3863  0.2116  0.3457
36364OCT     C172727  10.838  22.682  11.958 -0.0252  0.0818  0.0329
36364OCT     C272728  10.655  23.026  12.252 -0.0725  0.0605 -0.0960
36365OCT     C172729   5.733  10.065  16.077 -0.1097 -0.0647  0.1365
36365OCT     C272730   5.337  10.247  16.137 -0.1491  0.1883  0.4062
36366OCT     C172731  20.064   2.852  17.338  0.3426 -0.0789 -0.3547
36366OCT     C272732  19.707   2.538  17.162  0.0437  0.0303 -0.1873
36367OCT     C172733   7.987  18.755  18.238 -0.0348 -0.1954 -0.1719
36367OCT     C272734   8.018  19.156  18.099  0.1367 -0.1144 -0.6344
36368OCT     C172735   0.344  12.946  18.854 -0.2101 -0.0507  0.2037
36368OCT     C272736  23.652  13.158  18.969  0.2107  0.0918  0.0557
36369OCT     C172737   8.453  18.968   1.114  0.1703  0.1396 -0.1741
36369OCT     C272738   8.944  18.962   0.994  0.2853 -0.1357 -0.1035
36370OCT     C172739   6.323   9.459   2.685  0.1147  0.1008 -0.0928
36370OCT     C272740   6.074   9.515   2.256 -0.0369 -0.1780 -0.0420
36371OCT     C172741  15.700   8.802  14.312  0.0821  0.0100  0.4145
36371OCT     C272742  15.691   8.402  14.551 -0.3190  0.0851  0.0306
36372OCT     C172743  11.402   2.769   6.791 -0.2718  0.1154  0.0705
36372OCT     C272744  11.238   3.025   7.145 -0.2982 -0.0969 -0.0741
36373OCT     C172745  22.586  13.912  17.244 -0.1327 -0.1150  0.2222
36373OCT     C272746  22.614  14.275  17.483 -0.0595 -0.3286 -0.2417
36374OCT     C172747   2.714   5.481  22.751  0.2628 -0.0299  0.0506
36374OCT     C272748   2.629   5.544  23.177  0.0966 -0.0335  0.0990
36375OCT     C172749   2.142  21.747  20.019 -0.3946  0.3769 -0.0123
36375OCT     C272750   2.334  22.004  20.359  0.1323  0.0153 -0.0054
36376OCT     C172751   2.012  23.137  12.029 -0.1671 -0.1253  0.2437
36376OCT     C272752   1.833  23.513  11.738  0.0285  0.0515  0.5612
36377OCT     C172753  18.185  13.673   7.087 -0.0949 -0.3538  0.1629
36377OCT     C272754  17.887  14.020   7.092 -0.1713 -0.1438 -0.3841
36378OCT     C172755  21.351  10.377   6.459 -0.4326  0.1788 -0.0033
36378OCT     C272756  21.126  10.644   6.737  0.2883  0.1692  0.1125
36379OCT     C172757  20.124  12.227  23.571 -0.0797 -0.2185 -0.1449
36379OCT     C272758  19.954  12.012  23.144 -0.2268 -0.4386 -0.0767
36380OCT     C172759  20.121   2.042  16.309 -0.1720 -0.2657  0.0046
36380OCT     C272760  20.480   2.042  16.667  0.5050  0.0241 -0.1770
36381OCT     C172761  12.296   1.111  12.845 -0.1238 -0.0596 -0.3447
36381OCT     C272762  12.214   1.534  12.641 -0.0375  0.3008 -0.1871
36382OCT     C172763  15.411  19.686   8.652 -0.3563  0.0144  0.1415
36382OCT     C272764  15.825  19.712   8.822 -0.0710 -0.0973  0.2294
36383OCT     C172765  14.619   5.486  16.602 -0.0365  0.0596 -0.2979
36383OCT     C272766  14.195   5.296  16.467  0.0033 -0.2752  0.2878
36384OCT     C172767  11.075   1.349  11.602 -0.1567 -0.1655  0.3218
36384OCT     C272768  10.626   1.434  11.664 -0.1853 -0.1792  0.2343
36385OCT     C172769  14.531   1.819   5.136  0.0728  0.4315  0.2032
36385OCT     C272770  14.109   1.944   4.910 -0.0864 -0.1479 -0.0966
36386OCT     C172771   9.688  23.609  19.985  0.2586  0.2387  0.2492
36386OCT     C272772   9.867  23.499  19.592  0.5890  0.3377 -0.1548
36387OCT     C172773  22.894  12.224  13.945  0.0682  0.0840 -0.0533
36387OCT     C272774  22.574  11.945  13.752 -0.1579  0.0475 -0.2703
36388OCT     C172775   0.006  11.643  22.929 -0.0954  0.0565  0.0422
36388OCT     C272776   0.182  12.027  23.171 -0.1117 -0.1389  0.0520
36389OCT     C172777   6.887   0.498  15.701  0.0837 -0.1768  0.0513
36389OCT     C272778   6.617   0.067  15.713  0.2682 -0.0335  0.2893
36390OCT     C172779   2.170   7.949  20.938  0.2922 -0.3046  0.0516
36390OCT     C272780   1.762   7.907  21.144 -0.0891 -0.0720 -0.2465
36391OCT     C172781   6.514  14.663   1.830  0.2495 -0.0867 -0.2450
36391OCT     C272782   6.650  14.450   2.214  0.1440  0.0164 -0.1604
36392OCT     C172783  17.997  19.562   2.414  0.0451  0.1220  0.1970
36392OCT     C272784  17.858  19.728   1.989  0.0085 -0.1370  0.1951
36393OCT     C172785  18.172  12.292  14.253  0.1538 -0.1027 -0.0137
36393OCT     C272786  18.022  11.820  14.159 -0.1018 -0.0253  0.0415
36394OCT     C172787  15.490   5.970  20.828 -0.1726 -0.0697 -0.2075
36394OCT     C272788  15.572   5.576  21.023  0.1068 -0.1729 -0.1225
36395OCT     C172789   8.385  20.529   0.605  0.1330  0.2361 -0.1293
36395OCT     C272790   8.658  20.312   0.318 -0.2146 -0.0225  0.2365
36396OCT     C172791   7.286  14.538   9.033  0.3479 -0.3169 -0.2035
36396OCT     C272792   7.605  14.213   9.176 -0.2626 -0.0023  0.1222
36397OCT     C172793  21.814  12.820   3.438  0.1458  0.3774  0.0202
36397OCT     C272794  21.648  12.387   3.623  0.0098  0.0046 -0.0396
36398OCT     C172795  14.144   1.823  18.129 -0.0826 -0.3646  0.1546
36398OCT     C272796  14.197   2.111  17.737 -0.1372  0.0717  0.0174
36399OCT     C172797   9.729  11.195  23.187  0.3352 -0.1245 -0.3649
36399OCT     C272798   9.829  11.574  22.998 -0.2054 -0.1581  0.1950
36400OCT     C172799   0.327  13.108  17.470  0.1481  0.1553  0.2640
36400OCT     C272800   0.504  12.695  17.605 -0.1282 -0.1638  0.0147
36401OCT     C172801   4.071  12.789   3.127 -0.1592  0.4036  0.1316
36401OCT     C272802   4.124  12.388   2.841  0.1433 -0.1185 -0.1713
36402OCT     C172803   6.202  12.243  21.485  0.1676 -0.0088 -0.0219
36402OCT     C272804   6.427  12.263  21.105  0.0424 -0.1249 -0.2686
36403OCT     C172805   6.447  17.592  15.617  0.2688 -0.3265 -0.1596
36403OCT     C272806   6.158  17.543  15.980  0.4180  0.1797 -0.2529
36404OCT     C172807  20.822  21.585  12.671  0.2216 -0.0788 -0.0942
36404OCT     C272808  20.554  21.196  12.606  0.0759  0.1736 -0.1125
36405OCT     C172809   3.777  14.884  14.307 -0.4394 -0.1617  0.0270
36405OCT     C272810   3.713  14.586  14.714 -0.5389  0.0658  0.2607
36406OCT     C172811   8.239   1.689  17.589  0.0881 -0.0725  0.1232
36406OCT     C272812   7.894   1.543  17.829  0.1464  0.0703 -0.0803
36407OCT     C172813   8.971   8.941   1.447  0.1119  0.0625 -0.2784
36407OCT     C272814   9.005   9.360   1.517 -0.0125 -0.2837 -0.0044
36408OCT     C172815   3.814   6.373   5.807 -0.3339  0.2245  0.2265
36408OCT     C272816   4.141   6.753   5.869 -0.2300  0.1107  0.0527
36409OCT     C172817  10.768  16.943   4.977  0.2244 -0.1924 -0.0902
36409OCT     C272818  10.889  16.507   4.713 -0.0877 -0.2075  0.5437
36410OCT     C172819  17.179  16.882  18.570  0.1017  0.1355  0.3603
36410OCT     C272820  17.390  17.207  18.797  0.2805  0.0137  0.2030
36411OCT     C172821  22.780   8.019  17.844  0.1758  0.1612 -0.0027
36411OCT     C272822  22.922   7.704  17.505  0.2319  0.1442  0.2815
36412OCT     C172823  17.079  11.326  14.482  0.1101  0.1101  0.0058
36412OCT     C272824  16.791  11.287  14.162 -0.0910 -0.1914  0.0591
36413OCT     C172825   4.056  15.656  11.748 -0.1085 -0.0566  0.2683
36413OCT     C272826   4.364  15.992  11.629  0.0903 -0.2927  0.0107
36414OCT     C172827  16.984   3.439  17.065  0.0129  0.0831  0.1708
36414OCT     C272828  16.850   3.798  17.232 -0.2580 -0.1844  0.0152
36415OCT     C172829   3.822  20.395   2.942  0.1354 -0.1817  0.1118
36415OCT     C272830   3.744  20.706   2.651 -0.5297  0.0851 -0.0846
36416OCT     C172831   1.727  16.577  11.459 -0.3477  0.0387 -0.1801
36416OCT     C272832   1.913  16.250  11.717 -0.1131  0.1759  0.0641
36417OCT     C172833   1.392  20.780   0.980  0.2592 -0.0779  0.0312
36417OCT     C272834   1.334  20.986   1.400 -0.1580  0.1351 -0.2907
36418OCT     C172835  20.323  14.450  23.130 -0.2561  0.1953  0.3827
36418OCT     C272836  20.076  14.659  22.837  0.0432  0.2580  0.0650
36419OCT     C172837  16.859  21.434   7.921  0.1378 -0.2235 -0.3115
36419OCT     C272838  16.967  21.632   8.329  0.0094  0.1439 -0.0472
36420OCT     C172839  15.022  21.924   0.305 -0.1041 -0.6091 -0.0858
36420OCT     C272840  15.181  21.807   0.715  0.0277  0.2746  0.0463
36421OCT     C172841   5.110  23.561   8.825  0.3978  0.1424 -0.1334
36421OCT     C272842   4.640  23.521   8.974  0.3353 -0.0951  0.0379
36422OCT     C172843   0.972  15.096   5.872 -0.3777  0.5141 -0.2634
36422OCT     C272844   1.435  15.160   5.960 -0.5932 -0.2523  0.3058
36423OCT     C172845  21.769  16.396   8.817  0.0738  0.1470 -0.1087
36423OCT     C272846  22.030  15.963   8.752 -0.2473 -0.1618 -0.2670
36424OCT     C172847   0.393   7.110  11.577  0.0337 -0.0005 -0.0704
36424OCT     C272848   0.212   6.963  11.983 -0.1461 -0.2834 -0.3732
36425OCT     C172849  20.936  18.385  12.107  0.0488 -0.1716 -0.4504
36425OCT     C272850  20.707  18.295  11.741  0.1332  0.0114 -0.0771
36426OCT     C172851  12.752  22.260  20.283 -0.1977 -0.1695  0.1706
36426OCT     C272852  12.975  22.711  20.320 -0.0443  0.1851  0.1947
36427OCT     C172853  11.923  23.394  20.372 -0.1454  0.0009  0.3177
36427OCT     C272854  11.519  23.225  20.124  0.0276  0.1570 -0.2798
36428OCT     C172855   0.772  12.878   6.550 -0.0447 -0.3471 -0.0950
36428OCT     C272856   0.246  12.953   6.612 -0.4407  0.1486  0.0810
36429OCT     C172857   9.187   7.073   5.987  0.0353 -0.0757 -0.0713
36429OCT     C272858   9.285   7.255   5.586 -0.2777 -0.1566  0.1373
36430OCT     C172859  13.695  20.175   6.406  0.1241 -0.3461 -0.1208
36430OCT     C272860  13.899  20.045   6.778 -0.1264 -0.1693 -0.1804
36431OCT     C172861  12.621  11.800  22.538  0.0128 -0.3177  0.0275
36431OCT     C272862  13.025  11.567  22.720  0.0020 -0.1834  0.0053
36432OCT     C172863   8.476  18.933  19.867  0.0662 -0.1505  0.2119
36432OCT     C272864   8.868  18.871  19.559  0.0148 -0.0706  0.1538
36433OCT     C172865   8.399   4.522  18.876 -0.0829 -0.2275 -0.2991
36433OCT     C272866   8.248   4.226  18.526  0.1127  0.0549  0.1988
36434OCT     C172867   5.506  12.192  23.619 -0.1165  0.0910 -0.1592
36434OCT     C272868   5.783  11.987   0.229 -0.2754  0.2246 -0.4554
36435OCT     C172869  23.227   2.525  15.614  0.2758  0.1903  0.1464
36435OCT     C272870  23.190   2.458  15.186 -0.0687  0.1621 -0.1052
36436OCT     C172871  22.289  18.975  16.663  0.3112  0.2468 -0.0144
36436OCT     C272872  22.079  19.219  16.307  0.3024  0.1161 -0.0711
36437OCT     C172873  19.053  20.235  23.099 -0.0531 -0.2920  0.0270
36437OCT     C272874  19.247  19.878  23.336 -0.0006 -0.0639 -0.1700
36438OCT     C172875  18.001  11.638  11.607  0.1736 -0.0147  0.1015
36438OCT     C272876  18.035  11.831  11.198  0.2213  0.2262  0.0398
36439OCT     C172877  17.055   9.782  12.680 -0.1249  0.0551  0.0004
36439OCT     C272878  16.699   9.957  12.758  0.1515 -0.0481 -0.2543
36440OCT     C172879  11.573  20.828  14.467 -0.0265 -0.0350  0.1680
36440OCT     C272880  11.562  20.709  14.895  0.2471  0.0916 -0.0821
36441OCT     C172881   0.690   4.821  19.019  0.0958  0.5005 -0.0511
36441OCT     C272882   1.106   4.545  19.081  0.0510  0.2109 -0.0601
36442OCT     C172883  14.077   1.596  13.409  0.0015 -0.1234 -0.1258
36442OCT     C272884  13.931   2.025  13.462  0.0778  0.1356  0.1536
36443OCT     C172885  15.365   8.203  14.888  0.1320 -0.1771  0.0505
36443OCT     C272886  15.820   8.140  14.985  0.0140  0.0773  0.2442
36444OCT     C172887   3.095   7.521  19.316 -0.2224  0.0986 -0.1867
36444OCT     C272888   2.847   7.128  19.270  0.0689 -0.0677  0.1410
36445OCT     C172889  12.497  12.663   6.273 -0.0714  0.1189  0.1419
36445OCT     C272890  12.547  12.207   6.194  0.3044 -0.2062  0.0431
36446OCT     C172891   7.026  10.998  17.314  0.0640  0.1729 -0.3817
36446OCT     C272892   7.366  11.120  17.650  0.3120 -0.0827 -0.0334
36447OCT     C172893  16.117   0.974  13.083 -0.0624 -0.0424 -0.0154
36447OCT     C272894  15.776   1.087  12.749 -0.4037 -0.2619 -0.1497
36448OCT     C172895  11.338   7.873  23.339  0.1529 -0.1035  0.2158
36448OCT     C272896  10.928   7.650  23.382  0.1485  0.0491  0.0980
36449OCT     C172897  23.617  15.496  23.728 -0.1796  0.0442  0.1642
36449OCT     C272898   0.087  15.399   0.350  0.1846 -0.4558 -0.0985
36450OCT     C172899  20.494  15.264   4.331 -0.1366 -0.2027 -0.0026
36450OCT     C272900  20.254  15.518   4.015  0.0718  0.1356  0.1731
36451OCT     C172901   7.184  16.140   5.671 -0.1115 -0.3309  0.1599
36451OCT     C272902   7.428  16.459   5.841  0.2705 -0.0641  0.0627
36452OCT     C172903  20.603  22.772   9.938  0.2273 -0.1694  0.0208
36452OCT     C272904  20.815  22.954  10.322  0.0891 -0.7294 -0.2124
36453OCT     C172905   0.739   7.714  12.236  0.0651 -0.2081  0.0466
36453OCT     C272906   0.478   7.635  12.592  0.0339  0.0964 -0.1432
36454OCT     C172907   0.688   7.084   8.102  0.1421  0.3802  0.1994
36454OCT     C272908   0.250   6.987   8.273 -0.1705  0.0425  0.0765
36455OCT     C172909  15.321  10.382  12.039 -0.0158 -0.0236 -0.4225
36455OCT     C272910  15.549  10.773  12.107  0.1719 -0.4841 -0.0136
36456OCT     C172911  18.336  16.642  15.800 -0.3316  0.2020  0.1102
36456OCT     C272912  18.580  16.913  15.499  0.2873  0.3872 -0.0377
36457OCT     C172913  10.842  17.206   8.607 -0.0664 -0.0385 -0.1748
36457OCT     C272914  10.691  16.958   8.965  0.0248 -0.0990 -0.0552
36458OCT     C172915  12.877  14.136   4.862 -0.1796 -0.2218 -0.0328
36458OCT     C272916  13.023  14.141   4.461  0.0771 -0.4248 -0.2444
36459OCT     C172917  22.265   8.773  20.224  0.1388  0.2110  0.0111
36459OCT     C272918  22.535   9.130  20.249 -0.0462 -0.0121 -0.1858
36460OCT     C172919  15.176   0.954  10.742 -0.1565 -0.0181  0.3487
36460OCT     C272920  15.206   1.008  11.213  0.3228 -0.0016  0.2663
36461OCT     C172921   2.719  21.075  23.453  0.0769  0.2400  0.0483
36461OCT     C272922   2.555  21.488  23.692 -0.1234  0.0480  0.2215
36462OCT     C172923  21.502  13.783   9.977  0.4091  0.2248  0.0199
36462OCT     C272924  21.892  13.605  10.113  0.1342 -0.4076  0.0525
36463OCT     C172925  14.357  20.687  11.446  0.5516  0.0189 -0.1148
36463OCT     C272926  14.142  20.348  11.188  0.0892 -0.0059 -0.1864
36464OCT     C172927   6.850   9.612   9.490 -0.1129  0.2139 -0.1896
36464OCT     C272928   7.190   9.951   9.365 -0.2367 -0.2433 -0.3355
36465OCT     C172929   9.636   7.906  11.103  0.3717 -0.2297 -0.0413
36465OCT     C272930   9.952   8.156  11.268 -0.3802 -0.2020 -0.1377
36466OCT     C172931  11.253   6.368  16.549 -0.1847  0.0161  0.2302
36466OCT     C272932  11.099   6.545  16.936  0.1322  0.1427 -0.2408
36467OCT     C172933   6.444   8.097  18.024 -0.2387 -0.0789  0.3115
36467OCT     C272934   6.326   7.736  17.725 -0.0360  0.1772 -0.2643
36468OCT     C172935   5.913   9.335   6.813 -0.4173  0.4083 -0.1960
36468OCT     C272936   6.359   9.435   6.700 -0.1922  0.0456 -0.0237
36469OCT     C172937   7.116   3.358   7.695 -0.1150 -0.2350  0.1223
36469OCT     C272938   7.491   3.107   7.586  0.0192  0.2195  0.0274
36470OCT     C172939  10.633  12.150   9.950  0.1314  0.2040 -0.0244
36470OCT     C272940  10.421  12.174  10.329 -0.1036 -0.0684 -0.1441
36471OCT     C172941  14.602   6.387   5.392  0.2914 -0.2781  0.2685
36471OCT     C272942  14.946   6.535   5.701 -0.4095  0.2363 -0.0869
36472OCT     C172943  20.287  11.890   4.111 -0.4036  0.0953 -0.4405
36472OCT     C272944  20.279  12.158   3.692 -0.3272 -0.2140  0.4237
36473OCT     C172945  10.176   0.804  13.014 -0.1301  0.1573 -0.0762
36473OCT     C272946  10.431   1.113  13.328 -0.0342 -0.3782 -0.1995
36474OCT     C172947   7.603  10.605  11.741  0.1511  0.1882  0.1404
36474OCT     C272948   7.930  10.888  11.842 -0.2901 -0.5055 -0.3205
36475OCT     C172949   3.268  16.152   5.710  0.1527 -0.1076  0.0671
36475OCT     C272950   3.238  16.041   6.146  0.0541 -0.1408 -0.3165
36476OCT     C172951   3.965   5.363  18.962  0.3778  0.1218  0.2505
36476OCT     C272952   3.861   5.660  19.235  0.0019 -0.2075  0.0202
36477OCT     C172953  20.933  19.854   0.459  0.0636  0.0732  0.0984
36477OCT     C272954  20.988  20.099   0.082 -0.0422 -0.0390 -0.0212
36478OCT     C172955  13.258  22.510   7.025  0.0220  0.0382  0.0228
36478OCT     C272956  13.019  22.881   6.995  0.2952 -0.1277 -0.0058
36479OCT     C172957   1.908   7.904  12.637 -0.0665  0.2237 -0.0978
36479OCT     C272958   2.029   7.660  12.236 -0.0710 -0.0843 -0.1679
36480OCT     C172959   2.569  12.882   4.442  0.2800 -0.5147  0.5237
36480OCT     C272960   2.620  13.281   4.218  0.1055 -0.3049 -0.1222
36481OCT     C172961  18.846  10.420  20.806 -0.0471 -0.2546  0.1613
36481OCT     C272962  18.620  10.043  21.045  0.1331  0.2139  0.0639
36482OCT     C172963  10.158  21.279  18.632  0.3676  0.2043 -0.3977
36482OCT     C272964   9.852  21.670  18.680 -0.1612  0.2345 -0.1768
36483OCT     C172965   1.139  17.892   9.533  0.1245 -0.1546  0.1406
36483OCT     C272966   1.465  18.255   9.532 -0.2499 -0.0844 -0.0323
36484OCT     C172967  17.500   2.630   8.373  0.0374  0.1076 -0.1978
36484OCT     C272968  17.800   2.437   8.632  0.1663 -0.0701 -0.1261
36485OCT     C172969   6.548  10.731   4.824  0.1541 -0.2652 -0.0728
36485OCT     C272970   6.774  10.693   5.215 -0.0957 -0.1032  0.4019
36486OCT     C172971   3.779  21.310  14.194  0.3085  0.4253  0.1345
36486OCT     C272972   3.414  21.547  14.465 -0.2288  0.0675  0.1161
36487OCT     C172973   1.758   7.174   6.997  0.1793  0.0846 -0.2667
36487OCT     C272974   1.946   7.464   6.733 -0.3476  0.0802  0.1775
36488OCT     C172975   8.908   8.804   9.106 -0.2599  0.2016  0.0681
36488OCT     C272976   8.986   8.509   8.683 -0.2337  0.1762  0.4131
36489OCT     C172977   7.915   1.468  22.166 -0.4417 -0.3721 -0.2646
36489OCT     C272978   7.713   1.745  21.808 -0.1007 -0.0668  0.2660
36490OCT     C172979   1.625   3.080   9.675  0.0865  0.2979  0.1577
36490OCT     C272980   2.108   2.993   9.616  0.0965 -0.1524 -0.2891
36491OCT     C172981   4.061  12.314  21.037  0.0805  0.1801  0.1403
36491OCT     C272982   3.957  11.935  21.288  0.0929  0.2043  0.1026
36492OCT     C172983  20.293  16.434  11.234 -0.1353 -0.0159  0.1137
36492OCT     C272984  20.400  16.765  10.909 -0.3058  0.1380 -0.2300
36493OCT     C172985  15.095  14.855   4.907 -0.5636 -0.0769  0.1966
36493OCT     C272986  15.546  14.995   4.907 -0.1982 -0.2138 -0.0741
36494OCT     C172987  17.531  17.144  14.736 -0.1950  0.0424  0.0104
36494OCT     C272988  17.634  17.637  14.674  0.0661  0.3677 -0.0571
36495OCT     C172989  12.570  13.539  16.669  0.4827 -0.0118  0.1452
36495OCT     C272990  12.581  13.479  17.150  0.0879 -0.0303 -0.0807
36496OCT     C172991   5.528  14.183  22.366 -0.1623  0.1224  0.0860
36496OCT     C272992   5.124  14.121  22.493  0.2725  0.1071  0.3219
36497OCT     C172993  22.560  18.991   1.638 -0.1033  0.0076 -0.0319
36497OCT     C272994  22.946  19.264   1.556 -0.1225  0.3017 -0.0979
36498OCT     C172995  19.478  13.730   0.508 -0.1982  0.1817 -0.0197
36498OCT     C272996  19.631  13.884   0.898 -0.0430 -0.0330  0.4917
36499OCT     C172997   5.812   7.132   2.679  0.1458 -0.2749  0.2582
36499OCT     C272998   5.326   7.089   2.811 -0.1189  0.2874 -0.2862
36500OCT     C172999  22.721   6.185   7.707  0.3978  0.3829  0.1097
36500OCT     C273000  22.953   6.447   7.975 -0.2781  0.0736  0.1919
36501OCT     C173001   8.568   6.809  10.099 -0.1229 -0.1081 -0.1552
36501OCT     C273002   8.697   6.405  10.363 -0.0656 -0.2170  0.0494
36502OCT     C173003  12.910   1.266  10.687  0.1021 -0.2502 -0.2389
36502OCT     C273004  12.620   1.647  10.544 -0.2506  0.1988  0.1339
36503OCT     C173005   2.323   0.882   6.171  0.1076 -0.3346 -0.1191
36503OCT     C273006   2.505   1.221   5.868  0.1788  0.1650 -0.0627
36504OCT     C173007  10.095   5.004   4.929  0.3443 -0.0205 -0.4227
36504OCT     C273008   9.931   4.619   4.829 -0.1714 -0.0560 -0.0507
36505OCT     C173009   3.342   5.350  22.319  0.3844 -0.2069  0.1817
36505OCT     C273010   3.645   5.664  22.543  0.1967 -0.3365  0.0033
36506OCT     C173011   4.130  21.211  18.735  0.2185 -0.1178 -0.0531
36506OCT     C273012   4.295  20.838  18.920  0.5404 -0.2985 -0.1051
36507OCT     C173013  12.913   2.048   4.436  0.0436  0.2804 -0.0424
36507OCT     C273014  13.209   1.919   4.748 -0.0990 -0.0429 -0.1135
36508OCT     C173015   6.890  16.749  10.604 -0.4262  0.1773 -0.2317
36508OCT     C273016   7.178  16.984  10.309 -0.1343  0.0213  0.6183
36509OCT     C173017  21.517  20.828   6.486  0.0433  0.0459 -0.4647
36509OCT     C273018  21.755  21.201   6.647 -0.3413  0.0556  0.0727
36510OCT     C173019  15.670   9.694   5.147 -0.1194 -0.0768  0.1040
36510OCT     C273020  15.759   9.213   5.117 -0.0812  0.0047 -0.1136
36511OCT     C173021   3.119  22.927  19.320 -0.0245 -0.1374  0.0753
36511OCT     C273022   2.766  22.759  19.520  0.2441  0.1025  0.2636
36512OCT     C173023  12.291  11.945  12.272  0.2878 -0.0079 -0.2973
36512OCT     C273024  12.569  12.206  12.549 -0.0046 -0.3682 -0.0486
36513OCT     C173025  22.651  14.796   9.301 -0.0582 -0.1168 -0.0206
36513OCT     C273026  22.636  14.978   9.724 -0.2009 -0.1193  0.1695
36514OCT     C173027  21.962   3.102   2.275 -0.1089  0.1693 -0.0996
36514OCT     C273028  21.636   2.814   2.067  0.0620 -0.0797 -0.2078
36515OCT     C173029   6.640  20.943   1.629 -0.0511  0.2295 -0.0075
36515OCT     C273030   6.685  20.651   2.019  0.0821  0.0549 -0.0834
36516OCT     C173031   7.011  18.959  14.445 -0.2643 -0.2832 -0.3453
36516OCT     C273032   7.358  18.692  14.352 -0.4223 -0.3389 -0.2892
36517OCT     C173033  19.907   2.225  19.993  0.5473  0.1659 -0.0756
36517OCT     C273034  19.786   1.770  20.124 -0.2779 -0.0949  0.0456
36518OCT     C173035  20.420  10.083   5.610  0.2579 -0.0704  0.1974
36518OCT     C273036  20.875  10.143   5.629  0.0208 -0.4673 -0.5092
36519OCT     C173037   7.877   2.455  14.423 -0.4920 -0.1843  0.0282
36519OCT     C273038   7.516   2.218  14.615  0.0699 -0.3418 -0.1447
36520OCT     C173039  22.163  20.511  21.904 -0.0453  0.2931  0.0519
36520OCT     C273040  22.036  20.947  21.884 -0.0657  0.3505 -0.4387
36521OCT     C173041   6.608  11.044   6.792 -0.0600 -0.2106  0.3623
36521OCT     C273042   6.961  11.108   6.473 -0.1154 -0.2659  0.0997
36522OCT     C173043  10.410   3.370   5.506  0.0568 -0.1588 -0.2372
36522OCT     C273044  10.864   3.392   5.373  0.1031  0.1125  0.0693
36523OCT     C173045   7.766   5.360   2.873  0.1212  0.0152 -0.0481
36523OCT     C273046   7.858   5.790   3.086  0.1461  0.2242 -0.0704
36524OCT     C173047  10.062  18.754  11.763  0.2745 -0.2441 -0.3301
36524OCT     C273048  10.436  18.683  11.470  0.3278 -0.0683 -0.0795
36525OCT     C173049   3.747   9.543  15.809 -0.0115 -0.0411  0.3204
36525OCT     C273050   3.877   9.418  15.359  0.0033  0.1182 -0.0899
36526OCT     C173051  17.333  16.147   9.647  0.1544  0.0898 -0.0892
36526OCT     C273052  17.470  15.746   9.412  0.1528  0.1119 -0.1343
36527OCT     C173053  21.382  17.117  12.433 -0.1400 -0.0396 -0.5389
36527OCT     C273054  21.323  16.611  12.523 -0.2804  0.0976 -0.0005
36528OCT     C173055  16.023  16.621  17.836  0.1795 -0.1171 -0.4966
36528OCT     C273056  15.763  16.966  18.068  0.1089 -0.1799 -0.0491
36529OCT     C173057   7.880   4.143   0.316  0.1606  0.0972 -0.0354
36529OCT     C273058   7.440   4.228   0.436 -0.1320 -0.0653 -0.0388
36530OCT     C173059  21.890  10.338   1.858  0.0735  0.1508  0.2692
36530OCT     C273060  22.040  10.037   2.144  0.0846 -0.4603 -0.2257
36531OCT     C173061  23.359   2.297   0.193 -0.1423 -0.0145  0.0550
36531OCT     C273062  23.121   1.920   0.153 -0.0480  0.0226 -0.2065
36532OCT     C173063  16.385  22.229  15.073  0.4238 -0.1890  0.2482
36532OCT     C273064  16.194  22.521  15.428 -0.2563 -0.1486  0.0329
36533OCT     C173065   3.805   2.696  15.159  0.0727  0.1217 -0.1674
36533OCT     C273066   3.430   2.832  15.315 -0.0552 -0.4890 -0.0210
36534OCT     C173067  15.239  19.250   7.230 -0.5402 -0.0197 -0.3576
36534OCT     C273068  15.137  19.675   7.094 -0.3053 -0.2705  0.1180
36535OCT     C173069   7.873   9.807  23.297  0.1244 -0.0184  0.3324
36535OCT     C273070   7.566  10.136  23.116  0.4982 -0.2019  0.2782
36536OCT     C173071  11.783  17.950  19.687 -0.1642 -0.0627 -0.1926
36536OCT     C273072  12.193  17.769  19.730 -0.0397 -0.1055 -0.2336
36537OCT     C173073   2.912   0.418  14.940  0.1037  0.0513 -0.2510
36537OCT     C273074   2.862   0.515  15.385 -0.0355  0.0179 -0.1569
36538OCT     C173075  21.605   6.024  21.772  0.3500  0.0022 -0.2470
36538OCT     C273076  21.224   6.118  21.708 -0.0421  0.1353 -0.2968
36539OCT     C173077  15.963  13.736   5.511 -0.1409  0.0297 -0.1783
36539OCT     C273078  15.967  13.529   5.078 -0.0786 -0.1656 -0.2407
36540OCT     C173079  12.432  15.998  11.724 -0.4356  0.0072  0.2374
36540OCT     C273080  12.110  15.626  11.874  0.1934 -0.1383 -0.2114
36541OCT     C173081  22.904   8.580  10.732  0.1782 -0.0591  0.1316
36541OCT     C273082  22.499   8.382  10.815  0.0199  0.0557 -0.1682
36542OCT     C173083  17.923  13.786  18.782  0.0667  0.0348  0.0321
36542OCT     C273084  17.541  13.930  18.973  0.1291 -0.0420 -0.2530
36543OCT     C173085   3.551   3.382  20.652 -0.2072  0.1410 -0.1012
36543OCT     C273086   3.897   3.674  20.819 -0.5313 -0.4306  0.3898
36544OCT     C173087   4.534   4.765  13.620 -0.0744  0.1061  0.1485
36544OCT     C273088   4.109   4.831  13.429  0.0871 -0.3757 -0.1808
36545OCT     C173089  12.074   5.225  21.219 -0.0142  0.2193  0.0464
36545OCT     C273090  12.321   5.319  20.801 -0.0583 -0.4760  0.0609
36546OCT     C173091  20.551  14.679  19.256 -0.3611  0.3331 -0.2066
36546OCT     C273092  20.368  15.045  19.474 -0.4017  0.3263 -0.1913
36547OCT     C173093   0.461  16.905  10.970  0.0862 -0.1531  0.2611
36547OCT     C273094   0.747  16.873  11.311  0.1601  0.0900 -0.0348
36548OCT     C173095   6.442   5.904   7.286  0.2055 -0.1883 -0.0341
36548OCT     C273096   6.835   5.620   7.153 -0.1377  0.1427 -0.1659
36549OCT     C173097   3.248  19.262   7.862  0.0706  0.0050  0.1075
36549OCT     C273098   2.842  19.297   8.041  0.3950 -0.4692 -0.1646
36550OCT     C173099  22.320  10.865  19.035 -0.0351  0.1276  0.1527
36550OCT     C273100  21.947  10.931  18.802 -0.4455 -0.0489  0.1173
36551OCT     C173101   2.482  11.642  19.236  0.0026  0.0894 -0.0239
36551OCT     C273102   2.155  11.406  19.131 -0.1261  0.2867  0.3363
36552OCT     C173103   1.891   2.246   9.130  0.1569  0.1434  0.3263
36552OCT     C273104   1.580   2.468   8.902  0.1596  0.0027  0.2412
36553OCT     C173105   4.871  18.006   1.296 -0.0399  0.4133 -0.2282
36553OCT     C273106   4.887  18.369   1.017 -0.1252 -0.2377  0.1121
36554OCT     C173107  10.479   7.022  16.953  0.1884  0.1549 -0.2049
36554OCT     C273108  10.783   6.831  17.176 -0.3812 -0.0791  0.3919
36555OCT     C173109   6.094   7.888   3.435 -0.0082 -0.2514 -0.0669
36555OCT     C273110   5.818   8.284   3.492 -0.0912  0.2923  0.1184
36556OCT     C173111   5.912   5.253   1.170 -0.2056  0.1915  0.2037
36556OCT     C273112   6.090   4.851   0.979  0.3770  0.0587  0.0816
36557OCT     C173113  15.645  10.072  17.637 -0.0868 -0.0419 -0.1331
36557OCT     C273114  15.298   9.759  17.556  0.0544 -0.3002 -0.0535
36558OCT     C173115   1.585  22.787  14.205 -0.2470  0.0005  0.0828
36558OCT     C273116   1.482  23.162  14.458 -0.0392  0.2553  0.0971
36559OCT     C173117  19.035   4.265  17.911 -0.0467 -0.0205  0.0212
36559OCT     C273118  19.420   4.548  17.937 -0.0652  0.0473  0.0830
36560OCT     C173119   2.760   0.200  16.304 -0.0086  0.0165  0.0417
36560OCT     C273120   3.042  23.721  16.650  0.1809 -0.0368 -0.4016
36561OCT     C173121   8.186   5.298  23.327 -0.0486 -0.0671  0.0226
36561OCT     C273122   8.477   4.916  23.178  0.1943  0.1091 -0.2690
36562OCT     C173123   0.030  16.190  23.296 -0.0926 -0.0003 -0.2621
36562OCT     C273124  23.343  16.018  23.182 -0.0453  0.0084  0.0871
36563OCT     C173125  18.725   5.728  17.270  0.5204  0.2902  0.0670
36563OCT     C273126  18.504   5.549  16.913 -0.0513  0.0202  0.3182
36564OCT     C173127  20.761  22.596  20.008  0.1549 -0.0042 -0.3725
36564OCT     C273128  20.609  22.246  20.269  0.2446 -0.2584  0.1931
36565OCT     C173129  19.903   6.797  21.315 -0.0236 -0.1770  0.2801
36565OCT     C273130  19.991   7.188  21.074  0.3841  0.1093 -0.5322
36566OCT     C173131  11.939   7.929  13.831 -0.1142  0.2198 -0.1028
36566OCT     C273132  12.124   8.304  13.925 -0.2034 -0.1445  0.3287
36567OCT     C173133   8.091   5.259  18.288  0.1045 -0.2373 -0.2767
36567OCT     C273134   7.626   5.451  18.319  0.1065 -0.2718 -0.0598
36568OCT     C173135  21.009   1.074  10.686 -0.3217  0.0011  0.2646
36568OCT     C273136  21.084   1.458  10.487 -0.0326  0.2314 -0.4697
36569OCT     C173137  13.705   7.992  19.482 -0.5836  0.0662 -0.2909
36569OCT     C273138  13.453   8.344  19.446 -0.0314 -0.1210 -0.0758
36570OCT     C173139   6.559  22.212  19.446 -0.1662 -0.4176  0.1575
36570OCT     C273140   6.694  22.607  19.230  0.2620 -0.4675 -0.1570
36571OCT     C173141  13.243   7.855  12.302  0.0516 -0.0694  0.1506
36571OCT     C273142  13.319   7.682  11.866 -0.0574  0.2548  0.0538
36572OCT     C173143   1.675   4.265  20.296 -0.0309 -0.4499 -0.2354
36572OCT     C273144   1.488   4.534  20.656  0.2388 -0.1068 -0.0317
36573OCT     C173145  14.237   8.641   0.727  0.1087 -0.0406  0.5856
36573OCT     C273146  14.651   8.430   0.703  0.5739  0.2890 -0.0144
36574OCT     C173147  22.098   9.715  22.164 -0.0544 -0.0315  0.3522
36574OCT     C273148  22.162   9.691  22.586  0.3850  0.5278  0.0127
36575OCT     C173149   4.130   6.035   3.777  0.1591 -0.2416 -0.1139
36575OCT     C273150   4.118   5.578   3.752  0.0265 -0.0765  0.1716
36576OCT     C173151   6.389  18.538   2.612 -0.1934  0.3947 -0.0326
36576OCT     C273152   6.751  18.543   2.492 -0.1157  0.2874 -0.1401
36577OCT     C173153   0.030  18.902   7.197  0.3048 -0.2209 -0.0680
36577OCT     C273154  23.663  18.773   6.775 -0.2093 -0.3473  0.0855
36578OCT     C173155   2.709  15.645   2.153  0.7887  0.0815  0.2327
36578OCT     C273156   2.253  15.629   2.075  0.2411  0.1869  0.0365
36579OCT     C173157  17.253  10.044   4.812 -0.0383  0.1062 -0.2519
36579OCT     C273158  16.790   9.934   4.726  0.1039 -0.3304 -0.0038
36580OCT     C173159  19.936  14.560   6.565 -0.0240  0.2306 -0.0871
36580OCT     C273160  19.513  14.468   6.786  0.2980  0.2496 -0.0895
36581OCT     C173161  20.073  15.850   1.817 -0.0374  0.1169  0.2902
36581OCT     C273162  19.905  15.545   2.124 -0.2514 -0.0878 -0.3302
36582OCT     C173163   3.635   2.585  22.329  0.1212  0.0430 -0.2119
36582OCT     C273164   3.541   2.117  22.309 -0.0031  0.0384  0.4784
36583OCT     C173165   0.367   1.429   7.606 -0.2701 -0.1093  0.1533
36583OCT     C273166   0.793   1.484   7.576 -0.1716 -0.0424  0.1543
36584OCT     C173167  19.875  15.843  21.305 -0.1072 -0.1205  0.0892
36584OCT     C273168  19.409  15.740  21.253  0.2607  0.1588 -0.0517
36585OCT     C173169   9.685  19.492   7.400 -0.2434  0.3103  0.0949
36585OCT     C273170   9.296  19.722   7.640  0.1707  0.1517 -0.1239
36586OCT     C173171  23.399   9.762  17.380 -0.0946  0.2264 -0.1728
36586OCT     C273172   0.135   9.753  17.314 -0.1650  0.1487  0.1003
36587OCT     C173173  22.730  19.970  14.433 -0.1756 -0.1496  0.1549
36587OCT     C273174  23.112  19.704  14.449 -0.1956 -0.5991  0.3870
36588OCT     C173175  10.186  19.400  15.905 -0.2108  0.4598  0.0020
36588OCT     C273176  10.342  19.520  15.503  0.0638  0.0176 -0.2123
36589OCT     C173177  18.837   2.185   9.158  0.3422 -0.0679 -0.1822
36589OCT     C273178  18.398   2.024   8.987 -0.3797 -0.0764  0.2117
36590OCT     C173179   4.047  16.327   8.178 -0.0411  0.4047 -0.0131
36590OCT     C273180   4.166  16.131   8.608 -0.1372 -0.2912 -0.1701
36591OCT     C173181  19.868   2.449  17.618  0.0159 -0.0145 -0.0732
36591OCT     C273182  19.961   2.191  17.959  0.0191  0.0175  0.2193
36592OCT     C173183  21.782  15.787   4.360 -0.3798  0.1190  0.0089
36592OCT     C273184  22.139  16.029   4.136 -0.1154 -0.1749 -0.2507
36593OCT     C173185   6.010   0.064   9.086  0.5254  0.0764 -0.2164
36593OCT     C273186   5.518  23.652   9.094 -0.3450  0.0415  0.2055
36594OCT     C173187   9.257  16.985   6.485 -0.0996 -0.0262  0.0035
36594OCT     C273188   9.357  16.889   6.037  0.0653 -0.3579 -0.1997
36595OCT     C173189   2.446  16.282  21.973  0.3419  0.2843  0.0129
36595OCT     C273190   2.645  16.034  21.680 -0.1350 -0.0377 -0.0882
36596OCT     C173191   6.821  16.140  16.677  0.0802 -0.0671 -0.3747
36596OCT     C273192   6.966  16.309  16.263 -0.1661  0.1405 -0.2134
36597OCT     C173193   8.969   1.048   3.520  0.1321 -0.0014  0.2706
36597OCT     C273194   8.603   0.829   3.283  0.2634 -0.2756 -0.0208
36598OCT     C173195  20.283   5.593  22.097  0.3318 -0.1523  0.0651
36598OCT     C273196  20.376   5.180  21.915  0.2363 -0.0722  0.0854
36599OCT     C173197  15.441  18.546  14.273 -0.0723 -0.2426  0.0322
36599OCT     C273198  15.067  18.305  14.457 -0.2876  0.0330  0.1592
36600OCT     C173199  17.288  12.412   6.536 -0.1509  0.3539 -0.0199
36600OCT     C273200  17.134  12.010   6.732 -0.4695 -0.1171 -0.4198
36601OCT     C173201  12.224  10.400  19.377  0.1577 -0.0958 -0.3789
36601OCT     C273202  12.645  10.428  19.508  0.0982 -0.0216  0.2684
36602OCT     C173203  15.724  11.889   9.921 -0.1833 -0.0902 -0.0732
36602OCT     C273204  15.323  11.717   9.994 -0.0553  0.8076  0.4256
36603OCT     C173205  15.951   3.771   1.101  0.1331  0.2663 -0.1952
36603OCT     C273206  16.419   3.701   1.308  0.1916  0.2473  0.0087
36604OCT     C173207  22.189  10.707   5.770 -0.0383  0.2929 -0.0597
36604OCT     C273208  21.871  10.822   6.124  0.4309 -0.4215  0.1198
36605OCT     C173209  13.827  16.945  14.965 -0.0824  0.0777  0.1036
36605OCT     C273210  14.238  17.081  15.170  0.0268  0.1511  0.0007
36606OCT     C173211  22.869   6.010  12.980  0.2287 -0.1132  0.1056
36606OCT     C273212  22.569   6.342  12.752  0.3624 -0.2856  0.1605
36607OCT     C173213  18.766   5.047   5.941 -0.1304 -0.2437  0.2432
36607OCT     C273214  18.336   5.232   5.873  0.3800 -0.3541  0.1354
36608OCT     C173215  13.460  22.297   5.857  0.1156 -0.3148  0.0916
36608OCT     C273216  13.720  22.442   5.459 -0.0178  0.5122 -0.1843
36609OCT     C173217   2.236  20.903   5.633 -0.2056  0.1288  0.0493
36609OCT     C273218   1.868  21.036   5.899  0.3983 -0.4684  0.2533
36610OCT     C173219   8.318  20.389   7.589 -0.0720 -0.0642  0.0486
36610OCT     C273220   8.027  20.686   7.825  0.2829  0.2387  0.1315
36611OCT     C173221  15.240   0.149  17.044  0.3682 -0.4276 -0.0239
36611OCT     C273222  15.430   0.318  17.439 -0.2499 -0.1166  0.3708
36612OCT     C173223  22.204   2.005  14.301  0.5284  0.3984 -0.0250
36612OCT     C273224  22.476   1.779  13.983  0.0631  0.0964 -0.1644
36613OCT     C173225   4.105  14.995  18.261 -0.0088  0.1779 -0.0764
36613OCT     C273226   4.035  14.721  18.620 -0.1875  0.4960 -0.3191
36614OCT     C173227   9.318  12.270  13.107 -0.2067 -0.1004  0.1914
36614OCT     C273228   9.153  12.681  13.059  0.1814 -0.5810 -0.2786
36615OCT     C173229  22.832  22.009   5.824  0.0165 -0.1026  0.0016
36615OCT     C273230  22.947  22.257   6.199 -0.0618 -0.3006  0.0923
36616OCT     C173231   8.426   1.962   3.054 -0.2073  0.0391 -0.1461
36616OCT     C273232   8.028   2.218   3.037 -0.0535 -0.5869  0.0829
36617OCT     C173233   1.478  20.239   1.731  0.2986  0.2650 -0.1385
36617OCT     C273234   1.161  20.584   1.780  0.3683 -0.0554 -0.2373
36618OCT     C173235  20.871   8.448  17.620  0.0733 -0.3458  0.2152
36618OCT     C273236  20.797   8.730  17.232  0.2360 -0.1707 -0.0857
36619OCT     C173237   4.256   4.967   1.358  0.0849 -0.0007  0.0874
36619OCT     C273238   4.394   5.398   1.187 -0.0840  0.2004  0.0441
36620OCT     C173239   3.675   2.922   0.798  0.0583  0.1161  0.0564
36620OCT     C273240   3.515   2.472   0.787  0.0047  0.1386 -0.5261
36621OCT     C173241   6.213   1.261   3.943  0.1212 -0.0791  0.0667
36621OCT     C273242   5.967   0.944   3.683  0.0713  0.2882 -0.0817
36622OCT     C173243   6.009  21.681  10.571  0.3466  0.1424 -0.1996
36622OCT     C273244   6.326  21.970  10.715 -0.2044 -0.3966 -0.3702
36623OCT     C173245  14.346   4.440  15.411  0.0572  0.0661 -0.1549
36623OCT     C273246  14.678   4.485  15.034  0.0933  0.1220 -0.2768
36624OCT     C173247  21.296  14.056  21.655 -0.0590 -0.0379  0.2332
36624OCT     C273248  21.670  14.230  21.727  0.1152 -0.1020  0.0027
36625OCT     C173249   7.163  22.109  18.448 -0.3227  0.1772  0.0562
36625OCT     C273250   7.572  22.376  18.373 -0.0683  0.0255 -0.2533
36626OCT     C173251   1.280  15.117  13.219 -0.1984 -0.1169 -0.0736
36626OCT     C273252   1.257  15.018  12.718 -0.0016  0.0438  0.0439
36627OCT     C173253  14.320   6.297  16.975  0.3488  0.2095 -0.0196
36627OCT     C273254  14.161   6.047  17.358 -0.3310 -0.1608 -0.0974
36628OCT     C173255   8.557   3.825  16.193 -0.0225  0.0044 -0.2761
36628OCT     C273256   8.212   3.642  16.000 -0.1628 -0.1878  0.0712
36629OCT     C173257   2.792  11.852  14.218 -0.2620  0.1392 -0.1480
36629OCT     C273258   2.649  11.626  14.609  0.2926  0.0135  0.2278
36630OCT     C173259  14.554  21.352   8.683 -0.1033 -0.1365 -0.0939
36630OCT     C273260  14.409  21.054   9.011 -0.1643  0.3467  0.2978
36631OCT     C173261   0.009  12.899  17.073 -0.0559 -0.5372 -0.0559
36631OCT     C273262  23.383  12.846  16.758 -0.0761 -0.1659 -0.4072
36632OCT     C173263  11.469   0.784   5.597 -0.3127 -0.2735 -0.3403
36632OCT     C273264  11.838   0.820   5.864  0.1478  0.1295  0.2231
36633OCT     C173265  15.228   9.614   2.406  0.0010 -0.1474 -0.1264
36633OCT     C273266  15.300   9.279   2.121 -0.1671  0.1492 -0.6086
36634OCT     C173267  12.835  22.800  11.518 -0.3566  0.1596  0.2415
36634OCT     C273268  12.380  22.916  11.669  0.5344  0.0259  0.4031
36635OCT     C173269  23.450  18.009   4.758  0.7087  0.2778 -0.2195
36635OCT     C273270  23.661  17.805   4.405  0.1271  0.2784 -0.1053
36636OCT     C173271   8.657   6.855  11.259 -0.1344 -0.2392  0.2788
36636OCT     C273272   8.478   6.464  11.475 -0.0851  0.2846 -0.1659
36637OCT     C173273   7.601  17.191  17.661 -0.1245 -0.0084 -0.0848
36637OCT     C273274   7.680  17.037  17.231  0.3570 -0.0454 -0.0113
36638OCT     C173275   3.167  10.136  17.727  0.1617  0.2218  0.0007
36638OCT     C273276   3.349  10.311  17.382  0.0075  0.1135 -0.1530
36639OCT     C173277  20.892  12.344  13.348 -0.4072  0.0491  0.5161
36639OCT     C273278  21.317  12.333  13.610 -0.1068 -0.0060 -0.1448
36640OCT     C173279   1.735  10.668  16.154  0.2366  0.0808 -0.1348
36640OCT     C273280   2.091  10.649  16.457  0.1037 -0.2013  0.1008
36641OCT     C173281   6.913   7.305  17.052 -0.0169  0.3904 -0.0511
36641OCT     C273282   6.671   7.146  17.421 -0.0447 -0.2935  0.3345
36642OCT     C173283  21.020  14.574  19.217 -0.0265  0.0225  0.2687
36642OCT     C273284  21.422  14.520  18.985 -0.0725 -0.2526 -0.0811
36643OCT     C173285  21.969  17.683  21.564 -0.1751  0.2820  0.2675
36643OCT     C273286  21.880  18.147  21.476  0.0810 -0.3488  0.0799
36644OCT     C173287  20.406  13.627   4.802  0.0382  0.0433 -0.2285
36644OCT     C273288  20.065  13.714   4.508  0.2096 -0.0151  0.2965
36645OCT     C173289  16.945  10.260   7.354  0.3465 -0.1448  0.1487
36645OCT     C273290  17.178  10.027   7.667 -0.0785 -0.1410  0.1212
36646OCT     C173291  15.740   2.808   5.843 -0.0832 -0.0626  0.2943
36646OCT     C273292  15.326   2.978   5.622  0.0029  0.0323  0.2220
36647OCT     C173293  22.670  16.748  10.422  0.1121  0.3135 -0.2750
36647OCT     C273294  22.635  17.211  10.579  0.1021 -0.2629  0.0988
36648OCT     C173295  12.820   0.244  17.495 -0.0716  0.4253 -0.1940
36648OCT     C273296  12.934   0.565  17.751  0.0233 -0.0902 -0.0082
36649OCT     C173297   1.530  17.480  11.361  0.1860  0.2830  0.5130
36649OCT     C273298   1.981  17.592  11.167 -0.2208 -0.0528  0.0620
36650OCT     C173299   2.919  11.299  21.194 -0.0010 -0.1354 -0.4446
36650OCT     C273300   2.950  11.176  21.651 -0.2487 -0.2858  0.0427
36651OCT     C173301  19.166  21.630  11.851 -0.1590 -0.1100 -0.2125
36651OCT     C273302  19.360  21.687  11.453  0.4901  0.2585 -0.1607
36652OCT     C173303  17.164  20.522  13.752 -0.0441 -0.3714  0.0969
36652OCT     C273304  17.427  20.887  13.867 -0.0789 -0.1350 -0.3584
36653OCT     C173305   6.066  11.376   8.578 -0.2011 -0.1921  0.1668
36653OCT     C273306   6.250  11.413   8.112  0.0951 -0.0560  0.0310
36654OCT     C173307   8.548  18.183  18.824  0.4758  0.0771  0.1706
36654OCT     C273308   8.087  18.196  18.958  0.4148  0.1662 -0.1432
36655OCT     C173309   2.162   5.865   5.814  0.0711  0.0221 -0.0286
36655OCT     C273310   2.491   5.643   6.028 -0.2032 -0.3748 -0.0758
36656OCT     C173311  16.862   4.926   3.267 -0.0271 -0.1216 -0.0647
36656OCT     C273312  17.102   5.068   2.928 -0.0568 -0.2260  0.1172
36657OCT     C173313  16.932   3.045  17.312 -0.0867 -0.1739 -0.1139
36657OCT     C273314  17.055   2.591  17.087 -0.0861 -0.3404 -0.1290
36658OCT     C173315   7.491   0.201   8.141  0.0446 -0.2389 -0.0195
36658OCT     C273316   7.297  23.599   8.451 -0.2086  0.2600  0.0090
36659OCT     C173317   8.562  22.695  21.051  0.0487  0.0711  0.0013
36659OCT     C273318   8.364  22.410  21.300 -0.2387 -0.1145  0.1509
36660OCT     C173319  19.533  17.194  10.046 -0.0390  0.2684 -0.0633
36660OCT     C273320  19.803  17.563  10.205 -0.1929  0.3208  0.5392
36661OCT     C173321   1.381   8.244  16.269 -0.0505  0.0979 -0.0133
36661OCT     C273322   1.685   8.076  16.575  0.1972 -0.0078  0.1030
36662OCT     C173323   9.655  20.050   6.077 -0.0654 -0.0679 -0.1700
36662OCT     C273324   9.953  20.084   6.454 -0.2857 -0.1537 -0.0701
36663OCT     C173325  12.624   9.957   7.157  0.0184 -0.0489 -0.3264
36663OCT     C273326  12.968   9.609   7.091  0.0305  0.0845  0.0902
36664OCT     C173327   3.850  20.994  13.652 -0.0898 -0.1981  0.1162
36664OCT     C273328   3.579  21.371  13.670 -0.4025 -0.3244  0.0190
36665OCT     C173329  21.568   8.352  16.920 -0.0733 -0.2113 -0.0153
36665OCT     C273330  21.578   8.636  16.541  0.0204  0.3024  0.3070
36666OCT     C173331  21.364   1.715   8.603 -0.2323 -0.2520  0.1196
36666OCT     C273332  21.437   2.192   8.554 -0.2699  0.4868  0.0177
36667OCT     C173333   2.999  14.199   8.043 -0.0715  0.0602  0.0132
36667OCT     C273334   3.441  14.351   8.147 -0.0940  0.2346 -0.3394
36668OCT     C173335   7.883  23.421  21.828 -0.0818 -0.2660  0.2594
36668OCT     C273336   8.127  23.018  21.882  0.0863  0.2060  0.2221
36669OCT     C173337  20.908  11.644  16.989 -0.3881  0.0223 -0.2707
36669OCT     C273338  21.179  11.294  17.075  0.1918  0.0992  0.1268
36670OCT     C173339   4.782  16.299  17.803  0.1710 -0.2412 -0.2016
36670OCT     C273340   4.701  16.699  17.563  0.0329 -0.1311 -0.0815
36671OCT     C173341   5.261   6.772  12.735 -0.1236 -0.0307 -0.0579
36671OCT     C273342   5.374   6.646  13.166  0.2409 -0.3143 -0.0179
36672OCT     C173343  10.808   7.255  14.268 -0.2137 -0.0191 -0.2524
36672OCT     C273344  10.846   7.096  14.700  0.0131 -0.0587  0.1143
36673OCT     C173345   9.920   0.785   5.548  0.2601 -0.1271 -0.1025
36673OCT     C273346   9.807   0.520   5.152  0.1327 -0.0368  0.4971
36674OCT     C173347  18.654   9.824   8.260 -0.0076 -0.3428  0.1810
36674OCT     C273348  18.491  10.040   8.586 -0.0180  0.0657 -0.1664
36675OCT     C173349  23.291  19.135  12.726 -0.4020 -0.0304  0.0146
36675OCT     C273350  23.509  19.398  12.447 -0.1512 -0.0938  0.1407
36676OCT     C173351  19.913  13.498   8.245 -0.0833 -0.0710  0.0989
36676OCT     C273352  20.240  13.249   8.014 -0.1462  0.1371 -0.1248
36677OCT     C173353  21.387   9.884  21.069  0.0446  0.3792 -0.4708
36677OCT     C273354  21.456  10.216  20.730  0.0004  0.0102 -0.0581
36678OCT     C173355  17.070   6.252  17.671  0.1395  0.0693 -0.0552
36678OCT     C273356  17.117   6.044  17.285 -0.0366  0.0806  0.3228
36679OCT     C173357   7.791  15.766  21.394 -0.1547  0.4709  0.3194
36679OCT     C273358   7.638  16.170  21.600 -0.3166  0.2881 -0.3921
36680OCT     C173359   2.449  15.549  14.053 -0.3175 -0.0884 -0.2662
36680OCT     C273360   2.870  15.499  14.232 -0.1272 -0.0470 -0.1512
36681OCT     C173361   9.671  22.126  20.276  0.6489  0.0253 -0.1586
36681OCT     C273362   9.503  22.078  19.863 -0.2854  0.1831  0.0555
36682OCT     C173363   4.256   2.891  14.155 -0.0764 -0.5568  0.0627
36682OCT     C273364   4.644   3.133  13.966  0.2322  0.3579 -0.0357
36683OCT     C173365  15.863   0.062  22.721  0.4465 -0.1399 -0.3899
36683OCT     C273366  15.903   0.401  22.400 -0.0131  0.1899  0.0579
36684OCT     C173367   0.022   1.651  19.215 -0.1803  0.1983 -0.2035
36684OCT     C273368   0.319   1.368  19.563  0.0865 -0.2139  0.2744
36685OCT     C173369  21.150  12.744  13.882 -0.0091  0.0893  0.2786
36685OCT     C273370  20.998  12.710  14.321 -0.0838 -0.1499 -0.0858
36686OCT     C173371   0.479   4.445  18.153  0.2334  0.2870  0.4622
36686OCT     C273372   0.168   4.315  17.820  0.5412 -0.2261 -0.1069
36687OCT     C173373  10.904   3.921  14.643 -0.2692 -0.1986 -0.2082
36687OCT     C273374  10.961   3.764  15.111  0.3659  0.1434 -0.2057
36688OCT     C173375  14.841   8.954  10.538 -0.0138  0.2846 -0.1464
36688OCT     C273376  14.685   8.662  10.815 -0.1533  0.2106  0.1371
36689OCT     C173377  11.536  11.425  17.591 -0.1202 -0.3087  0.0158
36689OCT     C273378  11.340  11.486  17.135  0.1520 -0.2229 -0.0820
36690OCT     C173379   5.141   2.239   6.959  0.2207 -0.2386  0.6194
36690OCT     C273380   4.767   2.347   6.716  0.0943  0.2712 -0.0737
36691OCT     C173381  19.064  10.831  15.914  0.1037 -0.0274 -0.0132
36691OCT     C273382  19.448  11.042  15.794  0.0242 -0.0960  0.2381
36692OCT     C173383  23.490   6.656  12.669  0.1764  0.0266  0.0502
36692OCT     C273384   0.050   6.880  12.421  0.0426  0.2817  0.1533
36693OCT     C173385  18.641  17.953  11.035 -0.0905  0.1647 -0.2373
36693OCT     C273386  18.926  18.299  11.031 -0.0824  0.1751 -0.4037
36694OCT     C173387  16.181   8.760  11.093 -0.3715  0.0209 -0.1721
36694OCT     C273388  16.280   8.478  11.480 -0.2143  0.0651  0.2092
36695OCT     C173389   5.577  20.989   0.854  0.0060  0.1966 -0.2170
36695OCT     C273390   5.858  21.061   1.260  0.3511 -0.1343 -0.0586
36696OCT     C173391   5.929  12.753  14.118  0.2409  0.0793  0.0878
36696OCT     C273392   5.486  12.942  13.850  0.3277  0.1240 -0.3071
36697OCT     C173393  21.898   8.842  10.297 -0.1565 -0.0634  0.0671
36697OCT     C273394  21.613   9.108  10.045 -0.0452  0.2473  0.0647
36698OCT     C173395   9.774  11.269  14.379 -0.3729  0.1565 -0.0911
36698OCT     C273396   9.828  10.864  14.622  0.1518  0.3979  0.1102
36699OCT     C173397  10.914  22.450  20.772  0.0381  0.0651  0.2155
36699OCT     C273398  10.999  22.373  21.196  0.1524 -0.0117 -0.3772
36700OCT     C173399   9.607  13.722  13.901  0.1528 -0.5412 -0.0508
36700OCT     C273400   9.379  13.316  13.948  0.2310  0.0468  0.4180
36701OCT     C173401  10.436  18.357  18.758  0.2818 -0.2221 -0.1978
36701OCT     C273402  10.788  18.128  18.895  0.0223 -0.0302  0.4281
36702OCT     C173403  21.426  17.373  22.416 -0.4407  0.0195 -0.1446
36702OCT     C273404  20.980  17.394  22.445  0.0230  0.0971  0.0027
36703OCT     C173405  19.200  10.855  19.532  0.0305  0.1087 -0.0679
36703OCT     C273406  19.598  11.120  19.369  0.2098  0.0110  0.1972
36704OCT     C173407   5.836  15.234  19.345  0.1688  0.1042  0.3327
36704OCT     C273408   6.138  15.497  19.141  0.0857 -0.1881  0.0094
36705OCT     C173409  11.107  20.378  13.982  0.0554  0.1011 -0.2009
36705OCT     C273410  11.157  20.092  14.282  0.4512  0.1578 -0.3590
36706OCT     C173411  14.335  15.717  22.956  0.2074  0.1450 -0.0500
36706OCT     C273412  13.978  15.487  22.928 -0.1816  0.4236 -0.1803
36707OCT     C173413   4.269  14.136   6.078  0.0882  0.3002 -0.1002
36707OCT     C273414   3.819  14.039   5.938 -0.3419 -0.1919  0.0774
36708OCT     C173415   2.278  16.423  15.968  0.1028  0.3415 -0.1477
36708OCT     C273416   1.838  16.247  15.947 -0.2976  0.0069  0.0922
36709OCT     C173417  10.458   4.183   3.314 -0.1475  0.0473 -0.2000
36709OCT     C273418  10.102   4.512   3.242 -0.4023  0.6794 -0.0296
36710OCT     C173419  12.654   8.751   4.310 -0.1159  0.0449  0.2690
36710OCT     C273420  12.815   8.614   3.853 -0.1195  0.0093  0.0072
36711OCT     C173421   2.286   3.726  20.390  0.0216 -0.1854 -0.2261
36711OCT     C273422   2.708   3.844  20.196 -0.0142 -0.0692 -0.1591
36712OCT     C173423  10.971  11.825   4.184  0.0450  0.1114  0.0061
36712OCT     C273424  10.737  11.915   3.789  0.2609 -0.1043 -0.2002
36713OCT     C173425   9.444   6.412  11.405  0.1032  0.1196  0.0999
36713OCT     C273426   9.306   6.479  10.952 -0.0020  0.0125 -0.0600
36714OCT     C173427   5.730   0.814   9.462  0.1381 -0.0354 -0.0294
36714OCT     C273428   6.017   0.822   9.051 -0.2984  0.0463  0.0267
36715OCT     C173429  10.149   2.213  14.326  0.1741 -0.1848  0.0982
36715OCT     C273430  10.569   2.202  14.314 -0.0018  0.0761  0.2347
36716OCT     C173431  14.819   2.532   4.692 -0.1797 -0.0598 -0.0667
36716OCT     C273432  14.576   2.745   4.436  0.3613 -0.0555 -0.2388
36717OCT     C173433   9.569   5.742   1.097 -0.2747 -0.3578  0.0764
36717OCT     C273434   9.272   5.969   1.460 -0.0887  0.0654  0.0774
36718OCT     C173435   4.835   2.045  20.295 -0.4828  0.0794  0.2540
36718OCT     C273436   4.772   2.491  20.493 -0.1549 -0.2036  0.2586
36719OCT     C173437  14.543  23.291  18.771 -0.4444  0.2107 -0.1441
36719OCT     C273438  14.272  23.328  18.400 -0.0393  0.1212  0.2885
36720OCT     C173439  10.878  12.544   1.193  0.3327  0.3717  0.3467
36720OCT     C273440  11.155  12.939   1.163  0.1610  0.0177 -0.0252
36721OCT     C173441  18.433  19.101  17.118 -0.0215  0.2183 -0.1256
36721OCT     C273442  18.769  19.040  17.420  0.0186 -0.0901 -0.3832
36722OCT     C173443   8.514  23.069   6.537 -0.0119  0.0706 -0.0019
36722OCT     C273444   8.906  23.213   6.398 -0.0674 -0.0396  0.0445
36723OCT     C173445   5.653   7.330  13.888 -0.0153  0.3186 -0.1513
36723OCT     C273446   6.080   7.371  13.662 -0.0548  0.3739 -0.2708
36724OCT     C173447  19.523  16.396   5.612  0.2301 -0.0227  0.0602
36724OCT     C273448  19.425  16.391   6.052  0.1265  0.0068 -0.1096
36725OCT     C173449  10.151  17.135  16.323  0.2167  0.0421  0.0469
36725OCT     C273450  10.324  17.523  16.564  0.1429  0.1653  0.0043
36726OCT     C173451  17.513   7.575   3.824  0.0899  0.2778  0.1698
36726OCT     C273452  17.544   7.154   3.953  0.0551  0.1186 -0.1993
36727OCT     C173453  13.496  22.288  17.589  0.1060 -0.2802  0.0748
36727OCT     C273454  13.867  22.189  17.369  0.4521  0.3285 -0.0307
36728OCT     C173455   0.370   0.955  15.020 -0.4746  0.0667 -0.1596
36728OCT     C273456   0.724   0.682  15.042 -0.0648 -0.0075  0.3114
36729OCT     C173457   1.152   1.590  12.798  0.2236 -0.2191 -0.0739
36729OCT     C273458   1.143   1.947  12.512 -0.2701  0.2578 -0.2753
36730OCT     C173459   2.664   6.356   2.685 -0.0659  0.1462 -0.1188
36730OCT     C273460   2.512   6.352   2.198 -0.0131  0.1484  0.5266
36731OCT     C173461  16.064   1.124   2.301  0.2901  0.3625  0.0056
36731OCT     C273462  15.973   0.996   2.753  0.0067 -0.1309  0.3119
36732OCT     C173463  10.539   3.846  17.636 -0.1441  0.1262  0.2769
36732OCT     C273464  10.643   3.699  17.222 -0.1686  0.1291  0.2733
36733OCT     C173465   7.335  14.313  12.091  0.0619  0.3621 -0.0274
36733OCT     C273466   7.703  14.530  12.321  0.0445  0.1790  0.1622
36734OCT     C173467   5.622  22.836   0.970 -0.0815 -0.0507 -0.2487
36734OCT     C273468   5.511  22.629   0.579 -0.1749 -0.1718 -0.3258
36735OCT     C173469  14.885  11.674   4.693 -0.0196  0.0455  0.0672
36735OCT     C273470  14.803  11.168   4.676 -0.0539  0.3234 -0.0632
36736OCT     C173471  20.411  20.798  13.123 -0.0561 -0.4664 -0.2762
36736OCT     C273472  20.855  20.994  13.115 -0.0869  0.2228  0.3243
36737OCT     C173473   8.019   0.972  17.691  0.1343 -0.0530  0.1436
36737OCT     C273474   8.367   1.246  17.777 -0.2202  0.2809 -0.3632
36738OCT     C173475  20.007  15.243  14.985 -0.0886  0.0974 -0.0330
36738OCT     C273476  20.051  15.168  14.542 -0.1111  0.3406  0.0162
36739OCT     C173477  13.311  14.396   7.605 -0.2485 -0.0530 -0.1809
36739OCT     C273478  13.009  14.447   7.277  0.0461 -0.0762 -0.1951
36740OCT     C173479   8.661   9.570  15.488 -0.1571  0.0228 -0.1848
36740OCT     C273480   9.081   9.392  15.531 -0.2296  0.3342  0.1501
36741OCT     C173481   1.360  17.640   2.646  0.0782  0.0111  0.1192
36741OCT     C273482   1.193  17.872   3.055  0.0578  0.2021 -0.1230
36742OCT     C173483  20.593   4.718  10.407  0.3333  0.0754  0.0715
36742OCT     C273484  20.535   4.218  10.355 -0.1978 -0.4456  0.0816
36743OCT     C173485   0.106   2.385   1.288  0.4660 -0.2677  0.3585
36743OCT     C273486   0.254   2.090   0.930  0.0910 -0.0039  0.1359
36744OCT     C173487  18.291  21.428   4.190 -0.1456 -0.1940 -0.1377
36744OCT     C273488  18.272  21.119   4.483  0.3333  0.0159 -0.0515
36745OCT     C173489  12.953  12.089  21.402 -0.2428 -0.0203 -0.1714
36745OCT     C273490  12.772  11.736  21.134 -0.0751 -0.1093 -0.0182
36746OCT     C173491   9.046  11.388  20.851  0.2000  0.2586  0.1163
36746OCT     C273492   8.713  11.691  20.661 -0.0671 -0.0866 -0.2983
36747OCT     C173493   4.986   7.163  17.400 -0.3356  0.1753  0.0193
36747OCT     C273494   4.640   7.295  17.106 -0.1949  0.1348 -0.0877
36748OCT     C173495  11.756   0.646   4.588 -0.0491  0.0704 -0.3634
36748OCT     C273496  11.320   0.797   4.639 -0.0827 -0.2276  0.0841
36749OCT     C173497   4.838   9.320  15.166 -0.0659 -0.2959 -0.0789
36749OCT     C273498   4.448   9.478  14.985 -0.1828  0.0518 -0.0546
36750OCT     C173499   8.140  13.432  17.648  0.6399 -0.4383 -0.2507
36750OCT     C273500   8.204  13.105  17.287  0.2119  0.0341  0.0117
36751OCT     C173501  14.520  13.156  14.823  0.0067  0.1010 -0.3187
36751OCT     C273502  14.627  13.194  15.269  0.5750  0.1877  0.0066
36752OCT     C173503  15.629   0.989   4.382 -0.0812 -0.0376 -0.0632
36752OCT     C273504  15.702   1.298   4.726  0.0630  0.0399 -0.1758
36753OCT     C173505   8.419  20.088  17.137 -0.1807  0.1563 -0.0139
36753OCT     C273506   8.770  20.130  16.779 -0.1878 -0.1833  0.0902
36754OCT     C173507  22.001  12.688  18.966  0.1279 -0.2794 -0.2551
36754OCT     C273508  21.647  12.563  18.693 -0.0200 -0.0240 -0.0433
36755OCT     C173509  20.854   6.072  13.500 -0.2750  0.2552 -0.1236
36755OCT     C273510  21.338   6.112  13.538  0.0065 -0.1861 -0.3628
36756OCT     C173511   4.903   9.139   5.491  0.0893 -0.2098 -0.0169
36756OCT     C273512   4.564   9.447   5.673 -0.4309 -0.0286 -0.0167
36757OCT     C173513   7.160  21.880   5.585  0.1031  0.0404  0.0372
36757OCT     C273514   7.464  21.464   5.511  0.0911 -0.6927  0.2986
36758OCT     C173515  16.633   9.937  11.980 -0.0026 -0.3631 -0.2991
36758OCT     C273516  16.255  10.143  11.841  0.1456 -0.4107 -0.0069
36759OCT     C173517  10.346   9.104  14.345  0.1610  0.1468  0.0022
36759OCT     C273518  10.457   9.508  14.380  0.0985 -0.0294 -0.0342
36760OCT     C173519   6.170   8.110   1.703  0.2251 -0.2346 -0.1375
36760OCT     C273520   6.080   7.899   1.326  0.3748  0.0214 -0.0530
36761OCT     C173521   8.578  15.125  21.359  0.1212  0.0590  0.0952
36761OCT     C273522   8.506  15.555  21.588 -0.4030 -0.0272 -0.0702
36762OCT     C173523  16.001   1.731  18.015 -0.0002  0.0847  0.0573
36762OCT     C273524  15.601   1.985  17.971  0.0695 -0.0284  0.1732
36763OCT     C173525   0.875  16.802  10.497 -0.2523  0.0944 -0.0334
36763OCT     C273526   0.441  16.703  10.475 -0.1158 -0.2071  0.1671
36764OCT     C173527  20.582   1.102   9.569  0.4664  0.2574  0.0857
36764OCT     C273528  20.891   1.366   9.771  0.1445 -0.1227 -0.4034
36765OCT     C173529  21.637   3.904   6.805 -0.1020  0.4842  0.0430
36765OCT     C273530  21.960   4.094   7.095 -0.2508  0.1297  0.1726
36766OCT     C173531  14.513  19.405  21.695  0.2827 -0.2386 -0.2889
36766OCT     C273532  14.137  19.216  21.530  0.1359 -0.0324 -0.0478
36767OCT     C173533   9.887   2.234   4.203 -0.1845 -0.1808  0.0734
36767OCT     C273534  10.164   2.499   3.953 -0.1916 -0.4293 -0.2095
36768OCT     C173535   9.766  11.842   8.086 -0.1571 -0.2319  0.2048
36768OCT     C273536  10.121  11.807   8.400 -0.2001  0.1523  0.5787
36769OCT     C173537  18.183  22.141  13.237 -0.2032  0.1141 -0.1787
36769OCT     C273538  18.089  21.727  13.392  0.2445  0.0729  0.2899
36770OCT     C173539   9.868  18.214   1.986  0.1362 -0.1984 -0.1896
36770OCT     C273540  10.013  17.742   2.066  0.0371  0.1159 -0.3885
36771OCT     C173541   6.761   0.875   5.574  0.1076 -0.2357 -0.3434
36771OCT     C273542   6.450   0.765   5.933 -0.0909 -0.1126  0.0788
36772OCT     C173543   1.959  22.204  12.485  0.1411  0.1530  0.3668
36772OCT     C273544   1.710  21.980  12.199  0.0932  0.2492  0.0751
36773OCT     C173545   9.580   4.542  18.551 -0.3426 -0.2643 -0.0439
36773OCT     C273546   9.377   4.648  18.137  0.0328  0.2506 -0.1098
36774OCT     C173547   6.354  14.055   7.020 -0.0634 -0.2743  0.0906
36774OCT     C273548   6.652  14.298   7.363  0.0459  0.0878  0.1415
36775OCT     C173549  17.404   5.611  12.379  0.1435 -0.1858 -0.0209
36775OCT     C273550  17.704   5.270  12.589  0.0968 -0.4635  0.2245
36776OCT     C173551  22.997   2.824   4.679  0.2912  0.0761  0.0718
36776OCT     C273552  23.056   3.206   4.404 -0.3873  0.0535  0.4221
36777OCT     C173553   4.414  13.839   1.135 -0.2946 -0.2663 -0.2208
36777OCT     C273554   4.807  13.655   1.414 -0.2076 -0.2328 -0.0284
36778OCT     C173555   8.659   2.361  13.179  0.2754 -0.0032  0.0398
36778OCT     C273556   8.219   2.310  13.416 -0.1613  0.2646  0.0654
36779OCT     C173557   0.571   8.013  22.862 -0.0065 -0.0240  0.0336
36779OCT     C273558   0.232   7.734  22.906  0.0170  0.0569 -0.2152
36780OCT     C173559   8.773  14.884   3.293  0.1436  0.2658 -0.1743
36780OCT     C273560   8.815  14.697   2.945  0.0096 -0.2564  0.1058
36781OCT     C173561  14.143  16.206   7.323 -0.1434  0.0183  0.1383
36781OCT     C273562  14.031  16.536   6.989  0.0146 -0.3149 -0.1574
36782OCT     C173563  17.580  12.808  22.232 -0.0747  0.3497  0.1794
36782OCT     C273564  17.932  13.061  22.196  0.0623 -0.4649  0.2202
36783OCT     C173565  20.234  14.212  18.582 -0.0831 -0.1039 -0.3198
36783OCT     C273566  20.220  14.656  18.641  0.1601  0.0819  0.1087
36784OCT     C173567   1.087   9.655   0.577  0.0207  0.0976  0.1084
36784OCT     C273568   0.948  10.071   0.506 -0.2826  0.4002  0.0097
36785OCT     C173569  14.184  13.485   3.905 -0.0781  0.0827  0.4014
36785OCT     C273570  14.220  13.281   4.305 -0.2990 -0.0207  0.1856
36786OCT     C173571  21.747  19.517   7.988  0.1198  0.1219  0.1237
36786OCT     C273572  21.611  19.977   8.024 -0.2402 -0.2640  0.2268
36787OCT     C173573   9.332   4.782  13.261  0.2463 -0.0771  0.2531
36787OCT     C273574   9.238   5.120  12.988  0.0178 -0.1017 -0.1409
36788OCT     C173575   5.596   1.559  17.601  0.0203  0.4086  0.3598
36788OCT     C273576   6.005   1.661  17.427 -0.2061 -0.1798  0.0129
36789OCT     C173577  10.004   3.477  17.003 -0.2268 -0.1200  0.1829
36789OCT     C273578  10.433   3.302  16.954  0.4135  0.2331  0.0996
36790OCT     C173579  15.781   4.292  16.308  0.2735 -0.0586 -0.1274
36790OCT     C273580  15.814   4.131  15.861  0.2172 -0.1225  0.3658
36791OCT     C173581  16.069  21.900   8.060  0.0295  0.0284 -0.0317
36791OCT     C273582  16.088  21.409   7.946 -0.1681  0.3286 -0.0069
36792OCT     C173583   8.268  14.823   2.895 -0.2321  0.0217  0.0471
36792OCT     C273584   7.860  14.921   3.061 -0.0093 -0.0457  0.1319
36793OCT     C173585  19.478  14.519   6.259  0.0359  0.0724  0.0484
36793OCT     C273586  19.260  14.910   6.015  0.2740  0.1836  0.1769
36794OCT     C173587   0.733   9.932   2.367  0.1648 -0.2534  0.4384
36794OCT     C273588   0.843   9.796   1.914 -0.0735 -0.0288  0.0780
36795OCT     C173589   1.272  10.462   6.510  0.2439  0.3188  0.0735
36795OCT     C273590   1.421  10.790   6.195  0.0316  0.3210 -0.0160
36796OCT     C173591   9.954  23.608  11.791  0.1433  0.2403  0.0250
36796OCT     C273592   9.590   0.145  11.839 -0.4781 -0.0466 -0.2337
36797OCT     C173593   7.532  20.381   2.294  0.2847 -0.1205  0.0048
36797OCT     C273594   7.393  20.456   2.738 -0.2473  0.0622  0.5279
36798OCT     C173595   8.695  11.741   1.837 -0.0793  0.2223  0.1810
36798OCT     C273596   8.883  11.679   1.426 -0.0597  0.1028  0.3573
36799OCT     C173597  17.900   2.565   0.423 -0.0759 -0.3149 -0.1660
36799OCT     C273598  17.798   2.431   0.873  0.0914 -0.0028  0.0645
36800OCT     C173599  13.077   4.802   5.534  0.2280 -0.3013  0.1180
36800OCT     C273600  12.725   5.021   5.423 -0.2539 -0.1715 -0.0958
36801OCT     C173601   8.459  20.216   3.786 -0.0142  0.2891 -0.0936
36801OCT     C273602   8.413  20.649   3.638  0.0832 -0.2077 -0.1571
36802OCT     C173603  14.788  18.098   9.551 -0.3686  0.0211  0.1276
36802OCT     C273604  15.112  17.760   9.398  0.2288  0.2701 -0.0736
36803OCT     C173605   8.940  20.410  13.858  0.2525  0.2995  0.0296
36803OCT     C273606   9.127  20.886  13.870 -0.0001 -0.0226 -0.5380
36804OCT     C173607  12.738   2.891   9.123  0.0566 -0.4874  0.3192
36804OCT     C273608  12.594   3.095   9.573  0.1384 -0.0937  0.0993
36805OCT     C173609   5.138   0.588  23.031  0.1113  0.0365  0.4781
36805OCT     C273610   4.751   0.654  22.786 -0.1722 -0.0051 -0.2263
36806OCT     C173611  23.304   3.742  13.308 -0.3261  0.2001 -0.2717
36806OCT     C273612   0.007   3.856  13.239  0.0726  0.2541 -0.1642
36807OCT     C173613  16.546   2.901  15.653 -0.2272 -0.0286  0.0452
36807OCT     C273614  16.092   2.909  15.714  0.1168  0.3661 -0.0157
36808OCT     C173615  20.258   6.584   5.065 -0.0721  0.2128  0.0346
36808OCT     C273616  20.122   6.922   4.852  0.0588 -0.0949  0.2747
36809OCT     C173617  19.746  18.545  22.219 -0.1335  0.1025 -0.1713
36809OCT     C273618  19.827  18.097  22.313  0.5673  0.0699  0.0154
36810OCT     C173619  21.140   3.879   9.149 -0.2687 -0.2313 -0.1945
36810OCT     C273620  21.316   3.798   8.714 -0.1877 -0.0666  0.0218
36811OCT     C173621   7.375   5.199   8.807 -0.0833  0.2091  0.1283
36811OCT     C273622   7.468   4.872   8.488  0.0288 -0.5356 -0.3226
36812OCT     C173623   7.577   1.051  16.150 -0.2563  0.1780 -0.0040
36812OCT     C273624   7.301   0.727  16.283 -0.0687  0.0764 -0.0441
36813OCT     C173625   2.858  15.248  17.952 -0.1018 -0.3463  0.1214
36813OCT     C273626   2.995  15.678  18.186  0.1845  0.0273  0.2414
36814OCT     C173627   8.423   4.779   8.415  0.0830  0.0060 -0.2278
36814OCT     C273628   8.024   4.808   8.614 -0.1072 -0.0301  0.0406
36815OCT     C173629   1.823  22.644  17.547 -0.2727  0.0566 -0.1735
36815OCT     C273630   2.079  22.748  17.925  0.2379 -0.1137 -0.2218
36816OCT     C173631  21.504  15.091  21.775 -0.0079 -0.0546  0.1505
36816OCT     C273632  21.811  15.050  22.104  0.0862  0.1353 -0.2931
36817OCT     C173633   3.205  12.598  19.770 -0.0232 -0.1033 -0.1574
36817OCT     C273634   3.240  12.176  19.572  0.0112 -0.2022 -0.0306
36818OCT     C173635  21.520   2.644  16.342  0.0043  0.4341 -0.1955
36818OCT     C273636  21.174   2.729  16.023  0.1249 -0.3527 -0.2416
36819OCT     C173637  12.616   8.622  17.457 -0.1292 -0.4966  0.0186
36819OCT     C273638  12.471   8.242  17.263 -0.1095  0.3773  0.1460
36820OCT     C173639  22.619  22.644  22.270  0.0638  0.1241  0.0936
36820OCT     C273640  22.285  22.640  22.605  0.3513  0.0354  0.2697
36821OCT     C173641  19.158  10.771  17.026 -0.1916  0.0506  0.1387
36821OCT     C273642  18.795  10.949  17.356 -0.0518 -0.1513  0.0349
36822OCT     C173643  15.034  22.002   2.995 -0.1512 -0.0072  0.1293
36822OCT     C273644  15.244  22.085   2.571  0.1000  0.0241  0.0686
36823OCT     C173645   6.230  10.429   8.557 -0.1702 -0.4030 -0.0283
36823OCT     C273646   6.658  10.684   8.460  0.0463  0.2521 -0.0571
36824OCT     C173647   4.405   4.999  20.209 -0.0623  0.3200 -0.2261
36824OCT     C273648   4.433   5.130  20.614  0.1018 -0.3054 -0.2359
36825OCT     C173649  13.187   8.172   7.517 -0.1023 -0.3281 -0.0373
36825OCT     C273650  13.499   8.437   7.717 -0.1158 -0.0173 -0.3311
36826OCT     C173651   1.127  11.445   8.885 -0.2705 -0.0612  0.1281
36826OCT     C273652   1.536  11.378   8.749 -0.1144 -0.0865 -0.0019
36827OCT     C173653  17.303  10.734  21.234  0.0216  0.2775 -0.0524
36827OCT     C273654  17.081  10.884  20.835  0.2574  0.1483 -0.0366
36828OCT     C173655  11.159   3.350  18.733 -0.0535 -0.3514 -0.2362
36828OCT     C273656  11.173   2.972  18.479  0.0544  0.1174 -0.0159
36829OCT     C173657  10.141   4.697   9.034 -0.1144  0.0310  0.5855
36829OCT     C273658   9.896   4.835   8.701 -0.3079 -0.1999  0.1554
36830OCT     C173659   1.593   5.960   8.223  0.0813  0.1625 -0.0165
36830OCT     C273660   1.356   5.558   8.018  0.0600 -0.0677  0.2495
36831OCT     C173661   6.999   1.722   6.358  0.1838  0.0352 -0.1166
36831OCT     C273662   6.991   1.678   6.821  0.2315 -0.0319  0.1141
36832OCT     C173663  12.093  15.784   8.322  0.2412  0.0895  0.2377
36832OCT     C273664  12.420  15.667   7.996  0.0576  0.0703 -0.1388
36833OCT     C173665  17.494  16.730  20.730  0.1642 -0.3052  0.1636
36833OCT     C273666  17.698  17.118  20.874 -0.3147 -0.1240  0.0044
36834OCT     C173667   3.215   1.534   4.307  0.2076  0.3123  0.0204
36834OCT     C273668   3.430   1.234   4.064 -0.0879 -0.1101  0.4368
36835OCT     C173669  13.068   6.670  23.018 -0.2471  0.4118 -0.1830
36835OCT     C273670  13.130   7.112  22.831  0.3079 -0.1446  0.1453
36836OCT     C173671  19.309   5.130  14.814  0.0364 -0.1188 -0.2192
36836OCT     C273672  19.239   5.559  14.938  0.1894  0.2861 -0.2542
36837OCT     C173673  17.171  12.500   5.627 -0.1624  0.3993  0.0949
36837OCT     C273674  17.321  12.099   5.369 -0.1002  0.0032  0.3894
36838OCT     C173675  17.118   1.218  18.549  0.0790  0.1481  0.4660
36838OCT     C273676  17.250   1.641  18.423  0.3159 -0.0264  0.2692
36839OCT     C173677   8.288   8.863  10.074  0.1698  0.2590  0.0698
36839OCT     C273678   8.133   9.076  10.508 -0.0019  0.1906  0.0082
36840OCT     C173679  17.192  19.531  16.855 -0.1923  0.5036  0.1901
36840OCT     C273680  17.192  19.254  17.249  0.2094  0.4211  0.1184
36841OCT     C173681   1.218  18.789   6.174  0.1628  0.0688  0.3799
36841OCT     C273682   1.566  18.641   5.788  0.3641 -0.3900  0.3320
36842OCT     C173683   5.422  12.226   1.134  0.2725  0.0398 -0.4098
36842OCT     C273684   5.715  12.231   0.693 -0.1670  0.0422  0.0017
36843OCT     C173685  10.514   8.355   9.115 -0.2301 -0.0617  0.0004
36843OCT     C273686  10.747   8.165   8.806  0.1506 -0.1601 -0.1049
36844OCT     C173687  19.632   2.636   0.845 -0.0234 -0.0906 -0.3437
36844OCT     C273688  19.676   2.520   0.409  0.2395 -0.0507  0.0408
36845OCT     C173689  14.379   9.706  22.501  0.2282 -0.0408 -0.0950
36845OCT     C273690  14.195   9.705  22.120 -0.0600  0.1678  0.0516
36846OCT     C173691  21.898   9.911  21.795  0.0340  0.1886  0.2095
36846OCT     C273692  22.242  10.285  21.929  0.2886  0.0792  0.1984
36847OCT     C173693  18.773   2.405  18.880 -0.3182  0.0782 -0.0658
36847OCT     C273694  18.590   2.027  19.093  0.6652  0.0774  0.0506
36848OCT     C173695   9.263   6.127  22.384 -0.4282 -0.2617 -0.0877
36848OCT     C273696   9.335   6.506  22.080  0.0489  0.2938  0.0094
36849OCT     C173697   2.432  13.586  10.091 -0.4990 -0.1505 -0.1291
36849OCT     C273698   2.649  13.321  10.426  0.0370 -0.4267 -0.0795
36850OCT     C173699  17.710   5.575   9.757 -0.1141  0.0693 -0.3879
36850OCT     C273700  17.964   5.668   9.343 -0.0071  0.1641  0.0429
36851OCT     C173701  12.131  11.894  11.455 -0.1251  0.2523  0.2566
36851OCT     C273702  12.465  11.778  11.157 -0.0367 -0.0505 -0.0443
36852OCT     C173703   7.366  14.088  19.057  0.1695  0.0134  0.0581
36852OCT     C273704   6.940  13.996  18.837  0.1282  0.1957  0.2186
36853OCT     C173705   2.474  19.928  20.006 -0.2317 -0.0108  0.0365
36853OCT     C273706   2.536  20.253  20.343 -0.1734 -0.1265  0.0598
36854OCT     C173707  14.514  14.904  13.044 -0.0751 -0.0731  0.1387
36854OCT     C273708  14.678  15.289  13.038 -0.2106  0.0942 -0.4231
36855OCT     C173709   7.122   3.136   3.178  0.0051 -0.3119  0.0048
36855OCT     C273710   7.237   3.448   3.596  0.1020  0.1269 -0.2971
36856OCT     C173711  13.499  22.601   0.076  0.0511 -0.4060 -0.1390
36856OCT     C273712  13.031  22.811   0.141 -0.2234  0.0993 -0.2065
36857OCT     C173713  10.867   0.307   3.694  0.2158  0.0598 -0.2328
36857OCT     C273714  11.361   0.396   3.758  0.2316  0.3528 -0.0776
36858OCT     C173715  17.071  13.554   5.219  0.0974  0.2891  0.1129
36858OCT     C273716  16.956  13.920   4.937 -0.1835  0.0804 -0.1982
36859OCT     C173717  17.208  14.336   2.532 -0.3127 -0.1262  0.2549
36859OCT     C273718  16.773  14.287   2.712 -0.2023  0.0391 -0.2101
36860OCT     C173719   2.943  20.931  16.245  0.0889 -0.0861  0.0435
36860OCT     C273720   3.374  21.138  16.229 -0.2129  0.0605 -0.0877
36861OCT     C173721   5.837   1.905  12.862  0.0733  0.2465  0.0145
36861OCT     C273722   5.593   2.129  12.485 -0.1095 -0.1608 -0.4951
36862OCT     C173723  18.893   4.506   2.088 -0.0049  0.0756  0.2275
36862OCT     C273724  19.061   4.885   2.370 -0.1091 -0.0024  0.0778
36863OCT     C173725  20.660   5.392  16.612  0.1180 -0.1468  0.2308
36863OCT     C273726  20.461   5.228  16.231 -0.3535  0.0087  0.3461
36864OCT     C173727  22.769  22.871  21.765  0.2312  0.0826  0.1287
36864OCT     C273728  22.516  23.059  21.423 -0.0237 -0.1665  0.0656
36865OCT     C173729  19.980   5.101   7.987  0.3708  0.0408 -0.3313
36865OCT     C273730  19.671   4.858   8.238 -0.2643  0.0126 -0.0335
36866OCT     C173731  16.825  14.183  21.845  0.0447  0.0087 -0.2296
36866OCT     C273732  16.392  14.292  21.790  0.2599  0.0210 -0.1015
36867OCT     C173733  11.913   9.831  12.025  0.1673  0.2208  0.0996
36867OCT     C273734  11.663  10.224  12.007  0.1407  0.1476 -0.2751
36868OCT     C173735  10.924   9.648  15.641  0.2001 -0.0628  0.2711
36868OCT     C273736  10.813  10.091  15.716 -0.2625 -0.0301  0.0252
36869OCT     C173737   5.581   0.460   9.963  0.2134 -0.0862 -0.4085
36869OCT     C273738   5.627   0.667  10.385  0.0762  0.0606 -0.1975
36870OCT     C173739  18.637  18.867  20.716 -0.3311 -0.3706  0.0967
36870OCT     C273740  19.120  18.855  20.728 -0.2412  0.2100 -0.2555
36871OCT     C173741  22.512  21.804   9.103  0.0419  0.1023  0.0459
36871OCT     C273742  22.307  22.165   9.371 -0.3798 -0.2332  0.0820
36872OCT     C173743  15.744  20.231   8.860 -0.0998 -0.0374  0.0890
36872OCT     C273744  15.861  20.199   8.437 -0.0920  0.1575 -0.2962
36873OCT     C173745  14.312   1.227  18.108 -0.0930  0.1209  0.0468
36873OCT     C273746  14.215   0.776  18.013 -0.5669 -0.1582 -0.1315
36874OCT     C173747  21.534  22.734  20.679  0.2295  0.0038 -0.2798
36874OCT     C273748  21.306  22.712  21.021  0.2626 -0.4524  0.1979
36875OCT     C173749  14.413  10.262  16.068 -0.1035  0.1012 -0.1389
36875OCT     C273750  14.071  10.485  16.280  0.4100  0.1729  0.2169
36876OCT     C173751  18.906   3.085   5.508  0.1553  0.0564  0.0747
36876OCT     C273752  18.849   3.230   6.008 -0.0738  0.0098  0.0338
36877OCT     C173753   9.829   2.274  20.924  0.2195 -0.2650  0.1017
36877OCT     C273754  10.264   2.171  20.970  0.2380  0.1227 -0.3955
36878OCT     C173755   5.839   0.057  13.861  0.2118  0.2143 -0.3420
36878OCT     C273756   6.240  23.669  13.779  0.1465  0.0888 -0.0023
36879OCT     C173757  17.157   5.480  13.904 -0.0694 -0.2141  0.2304
36879OCT     C273758  17.377   5.659  13.505 -0.2282  0.1905 -0.2363
36880OCT     C173759   1.713  19.986  23.509 -0.1140  0.0253 -0.2307
36880OCT     C273760   2.083  19.690  23.482  0.2457  0.2689  0.2684
36881OCT     C173761   3.389  19.255   8.798  0.2194 -0.1032 -0.0768
36881OCT     C273762   3.324  19.501   9.132 -0.0654  0.1228 -0.1178
36882OCT     C173763  21.272   1.011  18.440  0.4277 -0.1452  0.0718
36882OCT     C273764  21.541   0.705  18.159  0.1002 -0.1603  0.1126
36883OCT     C173765  13.802   3.407  23.112 -0.0569 -0.0812  0.2531
36883OCT     C273766  14.019   3.160  23.481 -0.4527  0.0295  0.1295
36884OCT     C173767  10.834   3.306   2.334  0.0356  0.3435 -0.1061
36884OCT     C273768  10.517   3.371   2.000 -0.1451 -0.1909 -0.0747
36885OCT     C173769   6.324   7.856   0.015 -0.2501  0.0052 -0.1367
36885OCT     C273770   5.981   7.921  23.406  0.1961  0.1448 -0.1356
36886OCT     C173771   6.827  12.505   2.579 -0.2196  0.2341  0.0432
36886OCT     C273772   6.698  12.528   2.157 -0.0319  0.1285  0.1880
36887OCT     C173773  14.459   8.917  12.308 -0.2133 -0.2417  0.4632
36887OCT     C273774  14.684   9.000  11.909  0.3110  0.0143 -0.3612
36888OCT     C173775  12.725   0.552  22.306 -0.1310  0.1419 -0.2868
36888OCT     C273776  12.950   0.166  22.210 -0.1191  0.0072  0.0893
36889OCT     C173777  13.383   9.228  21.727  0.1980  0.1200  0.2337
36889OCT     C273778  12.982   9.547  21.623 -0.3028  0.0631 -0.0792
36890OCT     C173779   2.245   5.462  17.697  0.2022  0.1450 -0.0685
36890OCT     C273780   2.257   5.116  18.060 -0.0492  0.0793 -0.0629
36891OCT     C173781   4.410  21.176  18.308 -0.2095 -0.4818 -0.1769
36891OCT     C273782   4.292  20.751  18.426  0.2390  0.2229 -0.2805
36892OCT     C173783   1.102   5.088   5.869  0.1312 -0.2034 -0.1349
36892OCT     C273784   0.806   4.912   5.540  0.0604 -0.2885  0.0616
36893OCT     C173785   3.590   4.258  11.624 -0.0681  0.1119  0.3163
36893OCT     C273786   3.701   4.162  11.198 -0.1419 -0.0241  0.3603
36894OCT     C173787   3.041  23.398  18.445  0.3417  0.0949 -0.1589
36894OCT     C273788   3.393  23.217  18.188 -0.0915  0.2155 -0.1553
36895OCT     C173789   2.579  15.870   8.605 -0.1896  0.0475  0.5149
36895OCT     C273790   2.312  15.933   8.917  0.3029 -0.1385  0.0667
36896OCT     C173791   4.009   3.120   3.813 -0.1099 -0.0321 -0.1583
36896OCT     C273792   4.475   3.048   3.859 -0.1320 -0.0046  0.0481
36897OCT     C173793   3.365   6.708   0.884 -0.2005  0.0207  0.2648
36897OCT     C273794   3.443   7.174   0.787  0.0001 -0.1532 -0.2456
36898OCT     C173795  13.264  13.848  14.888  0.3103  0.1775 -0.1900
36898OCT     C273796  13.143  14.145  15.237 -0.1337  0.0831 -0.0356
36899OCT     C173797  22.680  13.921   0.723  0.1026 -0.1041  0.5461
36899OCT     C273798  22.456  13.722   0.371 -0.1030  0.2489 -0.0778
36900OCT     C173799   9.480   2.562  23.251 -0.0056 -0.2030  0.1888
36900OCT     C273800   9.959   2.701  23.287  0.1069  0.0551  0.1622
36901OCT     C173801  19.761   2.740  13.296  0.1067 -0.0403  0.0199
36901OCT     C273802  19.477   2.708  13.653  0.3443  0.3001 -0.0734
36902OCT     C173803  17.513  19.552   2.819 -0.1807 -0.0870 -0.0498
36902OCT     C273804  17.152  19.824   2.970 -0.2016  0.2315 -0.2215
36903OCT     C173805  12.875   9.520   0.431 -0.1572 -0.0501  0.0103
36903OCT     C273806  13.000   9.101   0.623  0.0922 -0.2671  0.3713
36904OCT     C173807  22.886  16.393   6.169  0.2866  0.3445 -0.0488
36904OCT     C273808  22.810  16.620   6.591  0.3732  0.0694 -0.1193
36905OCT     C173809  10.197  15.663   3.172 -0.0366 -0.1228 -0.1535
36905OCT     C273810  10.330  15.764   2.684 -0.1619  0.4320 -0.0115
36906OCT     C173811   4.425  12.655   0.235  0.0560  0.4362 -0.0459
36906OCT     C273812   4.804  12.560   0.010 -0.5278  0.0542  0.4979
36907OCT     C173813   4.838   7.851  19.349  0.4087  0.1592  0.0333
36907OCT     C273814   4.564   8.202  19.171 -0.0962  0.0975 -0.1720
36908OCT     C173815   0.429  13.268  14.131  0.1466  0.1712  0.1709
36908OCT     C273816   0.416  12.913  13.796 -0.3026 -0.0464 -0.1422
36909OCT     C173817   2.648  16.083   0.112 -0.0007 -0.3282 -0.1245
36909OCT     C273818   2.982  15.950  23.592  0.1546 -0.1296  0.0543
36910OCT     C173819  11.581  21.862  18.354 -0.3547  0.2527 -0.0801
36910OCT     C273820  11.563  21.617  18.789  0.3650 -0.1723 -0.1989
36911OCT     C173821  19.480  17.537   0.430  0.1196  0.3000 -0.0124
36911OCT     C273822  19.809  17.169   0.366 -0.2715  0.2411 -0.2122
36912OCT     C173823   7.762  16.291   8.117  0.0495  0.2810  0.0354
36912OCT     C273824   8.177  16.495   8.149 -0.1617  0.1270 -0.3693
36913OCT     C173825  22.567   9.931  12.663  0.1188 -0.1338  0.2365
36913OCT     C273826  22.116  10.069  12.749 -0.2172 -0.1304 -0.0700
36914OCT     C173827  18.573   5.971  21.894 -0.1950 -0.3649  0.0390
36914OCT     C273828  18.519   6.428  21.764  0.1301  0.0280 -0.2786
36915OCT     C173829   2.131  13.065   4.610  0.0013 -0.0874  0.2459
36915OCT     C273830   1.748  13.095   4.907  0.1949  0.0396  0.1399
36916OCT     C173831   6.151   8.393  23.510  0.0897  0.1908  0.0515
36916OCT     C273832   6.536   8.672  23.593 -0.1798  0.1863 -0.4135
36917OCT     C173833   2.517  16.236  11.689 -0.0315 -0.1153 -0.0992
36917OCT     C273834   2.935  16.206  11.535  0.0083 -0.3311  0.2752
36918OCT     C173835  16.447   3.231  14.067 -0.0382  0.2398  0.1112
36918OCT     C273836  16.071   3.445  14.323 -0.1479 -0.2170 -0.1223
36919OCT     C173837  14.066  10.474  22.984  0.3915 -0.0985  0.1324
36919OCT     C273838  13.792  10.794  22.863  0.0082  0.0750  0.2691
36920OCT     C173839  15.308  16.692  11.266 -0.2614 -0.2670 -0.0016
36920OCT     C273840  15.611  17.069  11.265  0.4506 -0.0092 -0.4406
36921OCT     C173841   5.645   0.749  21.111 -0.2174 -0.0622 -0.1441
36921OCT     C273842   5.318   0.436  21.183 -0.2307  0.2148 -0.1102
36922OCT     C173843  22.569   6.950   3.451  0.0049  0.0583 -0.0496
36922OCT     C273844  22.854   6.617   3.574  0.0878  0.2916 -0.3936
36923OCT     C173845  15.281  11.385   4.893 -0.1349  0.0643  0.0220
36923OCT     C273846  15.185  10.951   5.064  0.0284  0.0827  0.0889
36924OCT     C173847  15.245  16.774   4.852  0.0617  0.0019  0.2328
36924OCT     C273848  15.073  17.158   4.720 -0.1768 -0.0149 -0.0978
36925OCT     C173849  15.574   9.185  23.436  0.0133  0.0372 -0.0778
36925OCT     C273850  15.561   9.110   0.114 -0.1421  0.0328  0.1808
36926OCT     C173851   6.599  18.555  10.207 -0.4157 -0.0874 -0.1583
36926OCT     C273852   6.568  19.017  10.346 -0.1998 -0.1044  0.2856
36927OCT     C173853   1.059   1.228  11.806 -0.2131 -0.2672 -0.1271
36927OCT     C273854   1.063   1.669  12.055 -0.0354  0.1844 -0.0363
36928OCT     C173855  16.539   5.756  16.358  0.0691  0.1420 -0.0854
36928OCT     C273856  16.990   5.778  16.275 -0.0789  0.1123  0.1133
36929OCT     C173857   4.506  12.127  14.467  0.0466 -0.1663  0.1400
36929OCT     C273858   4.488  12.540  14.661 -0.3171 -0.0151 -0.0143
36930OCT     C173859   8.405  14.620   8.841  0.1850 -0.0686 -0.0517
36930OCT     C273860   8.092  14.957   8.824  0.3728 -0.2170  0.2668
36931OCT     C173861   8.382  19.788   0.903  0.1976 -0.1436  0.1134
36931OCT     C273862   8.474  19.874   1.352  0.1292  0.2206 -0.1996
36932OCT     C173863   6.957   5.693  22.753  0.2665 -0.1237 -0.4201
36932OCT     C273864   7.223   6.061  22.763 -0.0706  0.2560 -0.0914
36933OCT     C173865  17.623   6.938   7.463 -0.0025 -0.3644 -0.0641
36933OCT     C273866  17.668   6.532   7.696  0.1280  0.1263 -0.3268
36934OCT     C173867  23.627  17.569  17.245  0.2522 -0.1407 -0.1516
36934OCT     C273868   0.352  17.684  17.147  0.0360  0.0565  0.1117
36935OCT     C173869  17.937   4.367  20.448 -0.2389 -0.1608 -0.0277
36935OCT     C273870  17.504   4.474  20.656 -0.3736 -0.1606  0.4503
36936OCT     C173871   3.889   2.505  10.609 -0.0337  0.0071 -0.0967
36936OCT     C273872   4.319   2.550  10.812  0.2362 -0.2082 -0.3279
36937OCT     C173873  20.283  10.094   7.511  0.1098  0.1225  0.0077
36937OCT     C273874  20.256  10.447   7.808 -0.1358 -0.0432 -0.1534
36938OCT     C173875   8.980  16.960  13.173 -0.1432 -0.0409  0.1403
36938OCT     C273876   9.016  17.354  13.486  0.3102 -0.1404  0.4039
36939OCT     C173877  14.241  21.511  15.062 -0.3787 -0.0770  0.1229
36939OCT     C273878  14.068  21.567  14.595 -0.0999  0.1583  0.3403
36940OCT     C173879   0.249  14.433  18.397 -0.0270  0.1472  0.0324
36940OCT     C273880   0.490  14.345  18.816  0.1429 -0.1298  0.1729
36941OCT     C173881  13.401  16.852  10.585  0.0855  0.2067 -0.2721
36941OCT     C273882  13.525  16.690  11.013 -0.0139  0.0856 -0.0435
36942OCT     C173883  22.149  11.759  17.810  0.2697 -0.4024 -0.1425
36942OCT     C273884  21.963  11.371  17.905  0.2688 -0.0235  0.3297
36943OCT     C173885  15.285  23.527  11.028 -0.2249  0.2886  0.0682
36943OCT     C273886  14.978  23.258  10.894  0.0043  0.0428 -0.0300
36944OCT     C173887  19.693  17.146  14.855  0.2341 -0.1284 -0.1226
36944OCT     C273888  19.540  17.503  14.539  0.0966  0.1999 -0.1354
36945OCT     C173889  14.172  10.152  14.791  0.2640 -0.0610  0.0601
36945OCT     C273890  13.832  10.064  15.119 -0.3503 -0.1699 -0.2715
36946OCT     C173891  14.654   4.456  11.203  0.1870  0.0966  0.0855
36946OCT     C273892  14.346   4.147  11.118  0.2368  0.1660 -0.2945
36947OCT     C173893  17.406  14.611   1.152 -0.0188  0.0851 -0.0216
36947OCT     C273894  17.870  14.547   1.134 -0.2363 -0.2930 -0.0476
36948OCT     C173895   3.019   3.226   3.918  0.0590 -0.0668  0.2091
36948OCT     C273896   2.641   3.483   3.854  0.1238  0.0841 -0.2123
36949OCT     C173897  20.497  20.192  14.368  0.0655 -0.3378  0.0841
36949OCT     C273898  20.797  19.868  14.423  0.2263 -0.0184 -0.3332
36950OCT     C173899   8.683  22.951   9.182 -0.2516  0.1216  0.1396
36950OCT     C273900   8.420  22.818   8.822 -0.0367  0.2323  0.1393
36951OCT     C173901  11.685  18.818  12.966  0.1905  0.0539  0.5070
36951OCT     C273902  11.617  19.128  13.309  0.1207 -0.0312 -0.1442
36952OCT     C173903  19.584  17.110  13.132  0.0879 -0.0535  0.0851
36952OCT     C273904  19.846  16.952  13.491 -0.0194  0.0320 -0.1898
36953OCT     C173905  21.872  14.477  12.094 -0.0020  0.1166 -0.0992
36953OCT     C273906  21.969  14.873  11.851 -0.0544 -0.1084 -0.5415
36954OCT     C173907   9.452  15.613   9.841  0.1397  0.3055  0.3077
36954OCT     C273908   9.269  15.135   9.784  0.1573  0.0363 -0.2376
36955OCT     C173909   9.501  11.363  22.397 -0.0067  0.4307  0.0725
36955OCT     C273910   9.394  11.299  21.952  0.1498  0.2285  0.1273
36956OCT     C173911   3.592   7.980   2.497  0.1028  0.2394  0.2677
36956OCT     C273912   3.454   7.728   2.880  0.1388 -0.3261 -0.1343
36957OCT     C173913   6.556   7.899  22.833 -0.4710 -0.4486  0.2698
36957OCT     C273914   6.167   8.105  23.013  0.1253 -0.2271 -0.1400
36958OCT     C173915   4.971  22.251   3.993  0.3000  0.2772  0.0000
36958OCT     C273916   4.482  22.168   4.049  0.3177  0.0832  0.2418
36959OCT     C173917  23.524  23.149  21.157  0.1369  0.2238  0.1745
36959OCT     C273918   0.041  22.981  21.459 -0.4285 -0.0701  0.2241
36960OCT     C173919  17.248   0.530  17.248 -0.1945 -0.2608  0.0250
36960OCT     C273920  16.960   0.283  17.479 -0.0137 -0.1618  0.1823
36961OCT     C173921  19.979  18.901  20.983  0.0543 -0.3746  0.2291
36961OCT     C273922  20.279  19.220  21.120 -0.0353 -0.0815  0.0157
36962OCT     C173923   9.902  20.359   4.537 -0.1920 -0.1537  0.0547
36962OCT     C273924   9.907  20.042   4.884  0.1596  0.1359  0.6894
36963OCT     C173925  21.627  16.327   8.296 -0.1868 -0.0209 -0.4858
36963OCT     C273926  22.027  16.180   8.211 -0.0209  0.1713 -0.0942
36964OCT     C173927   8.095   6.103   2.249 -0.1385  0.1995  0.0691
36964OCT     C273928   8.130   6.521   2.063 -0.2445 -0.0557 -0.0078
36965OCT     C173929  19.965  20.737  12.836  0.1859 -0.1512  0.1065
36965OCT     C273930  19.515  20.601  12.658 -0.2028 -0.3203  0.3942
36966OCT     C173931   1.368  15.764  10.054  0.0397 -0.0210 -0.0778
36966OCT     C273932   1.609  15.383  10.251 -0.0325  0.2280 -0.2195
36967OCT     C173933  18.228  20.591  23.696  0.2577 -0.2181 -0.2894
36967OCT     C273934  18.099  21.038   0.179 -0.1382  0.1137 -0.0005
36968OCT     C173935   9.622   9.869  21.652 -0.1217  0.3446 -0.2147
36968OCT     C273936   9.845  10.076  21.944  0.2620 -0.1695 -0.3170
36969OCT     C173937   7.650  16.083  17.397  0.2580 -0.3936  0.2485
36969OCT     C273938   7.735  16.124  17.841 -0.3050  0.0622  0.3004
36970OCT     C173939   7.074  19.722   9.172 -0.0650  0.0352 -0.1469
36970OCT     C273940   6.777  19.995   9.106  0.5136 -0.0578 -0.2914
36971OCT     C173941  22.720  15.144  20.529 -0.1062  0.2680 -0.2615
36971OCT     C273942  22.544  15.409  20.873  0.1522 -0.1905  0.2188
36972OCT     C173943   6.454   3.867   8.879  0.1037 -0.2418 -0.2354
36972OCT     C273944   6.518   3.573   9.290  0.3713  0.1557 -0.2452
36973OCT     C173945   9.416   8.808   8.930  0.2108  0.2072 -0.0592
36973OCT     C273946   9.494   8.541   8.529 -0.0598 -0.1896 -0.0220
36974OCT     C173947  18.746  12.911  12.762 -0.0690  0.2275  0.2545
36974OCT     C273948  18.328  12.807  13.022 -0.1776  0.0996  0.0180
36975OCT     C173949   2.543  10.836   7.625  0.0052 -0.1013  0.2666
36975OCT     C273950   2.696  11.230   7.764 -0.3375  0.0032 -0.2649
36976OCT     C173951  16.163   8.044  12.760  0.1772 -0.1771 -0.2465
36976OCT     C273952  16.586   7.910  12.618 -0.0237 -0.0608 -0.2187
36977OCT     C173953  11.012  18.051   3.922 -0.1277 -0.0287  0.0245
36977OCT     C273954  10.780  17.693   3.694 -0.0599  0.2411  0.0780
36978OCT     C173955  17.750   5.580  13.169  0.2653 -0.0560  0.1923
36978OCT     C273956  18.020   5.930  13.078  0.1321  0.1625 -0.1017
36979OCT     C173957  15.916  10.570  21.607  0.2672  0.0907  0.1749
36979OCT     C273958  16.148  10.147  21.566 -0.3774 -0.2803  0.1878
36980OCT     C173959  11.466   3.263  13.404 -0.2389  0.0975  0.0978
36980OCT     C273960  11.481   2.829  13.245 -0.0131 -0.7302  0.0172
36981OCT     C173961  14.480   9.975  11.443 -0.0417  0.2358  0.0784
36981OCT     C273962  14.811  10.266  11.242 -0.0528 -0.1772 -0.0578
36982OCT     C173963  15.851  18.904   5.200 -0.0077  0.0821 -0.0896
36982OCT     C273964  16.116  18.478   5.225  0.0060  0.2127  0.1680
36983OCT     C173965  11.285  21.298  14.280  0.2354 -0.2017  0.0021
36983OCT     C273966  11.070  21.245  13.868 -0.2602  0.1474 -0.1174
36984OCT     C173967  15.395  10.199   6.464  0.3087  0.0502  0.4096
36984OCT     C273968  15.282  10.358   6.049 -0.0027  0.0681  0.1768
36985OCT     C173969  19.461   7.932   4.865 -0.4334 -0.1555 -0.5732
36985OCT     C273970  19.162   8.239   4.831  0.0758  0.1821 -0.1812
36986OCT     C173971  12.562  20.021   8.413 -0.1188  0.0198  0.0002
36986OCT     C273972  12.308  19.613   8.366  0.0261  0.1909 -0.0059
36987OCT     C173973  10.857  23.315  17.935  0.1918 -0.0011  0.1338
36987OCT     C273974  10.429  23.234  18.154  0.0315  0.2589 -0.1608
36988OCT     C173975  13.318  14.988   4.148  0.0343  0.2775  0.2987
36988OCT     C273976  13.140  14.786   3.822  0.1188  0.3330  0.0141
36989OCT     C173977  14.097   0.265  14.571 -0.5593 -0.0020 -0.2339
36989OCT     C273978  14.478   0.043  14.781 -0.6035  0.1634  0.0716
36990OCT     C173979  16.397  21.508   9.046 -0.1060  0.1841  0.0637
36990OCT     C273980  16.726  21.673   8.713  0.2667 -0.2493  0.0502
36991OCT     C173981  23.741   2.674   5.767 -0.1800 -0.1957 -0.3346
36991OCT     C273982  23.725   2.221   5.673 -0.1101 -0.2577 -0.2698
36992OCT     C173983   9.596  13.395   6.787 -0.2999 -0.3709 -0.0569
36992OCT     C273984   9.393  13.186   6.455  0.0872  0.0035  0.0533
36993OCT     C173985  15.648   6.390   0.829 -0.0520 -0.0071 -0.2093
36993OCT     C273986  16.085   6.459   0.861  0.1504  0.0429 -0.1771
36994OCT     C173987   7.393   7.767  20.325  0.0929 -0.0586 -0.2322
36994OCT     C273988   7.379   8.082  20.648  0.0137 -0.0024  0.1417
36995OCT     C173989   4.381  14.680   8.439  0.2762  0.2213  0.1705
36995OCT     C273990   4.200  14.546   7.959  0.1446  0.1877  0.0941
36996OCT     C173991  22.401  10.022   4.894 -0.3031  0.2448  0.0866
36996OCT     C273992  22.505  10.449   4.857 -0.4410 -0.0650 -0.2797
36997OCT     C173993  17.492   8.158  22.685 -0.1744  0.2654 -0.3555
36997OCT     C273994  17.537   8.364  22.263  0.3973 -0.0327  0.5538
36998OCT     C173995   0.132  14.304  16.576 -0.3085 -0.2393 -0.2207
36998OCT     C273996  23.519  13.930  16.561  0.3613 -0.1146  0.3177
36999OCT     C173997   4.201  22.042  21.500  0.0067  0.0019  0.3333
36999OCT     C273998   3.860  21.777  21.379  0.1628  0.1482  0.0102
37000OCT     C173999   6.649   5.968   4.894  0.0389  0.3244  0.1166
37000OCT     C274000   6.647   6.309   4.519  0.0952  0.1634  0.2197
37001OCT     C174001  17.822  20.164  23.277  0.3445  0.1140  0.1613
37001OCT     C274002  17.748  20.280  23.686 -0.1290  0.1585 -0.2490
37002OCT     C174003   8.662  15.767  18.557 -0.1272  0.0687 -0.2903
37002OCT     C274004   8.530  16.062  18.899  0.4735  0.1356 -0.3846
37003OCT     C174005  18.814   6.861  14.585 -0.1060  0.0538 -0.0304
37003OCT     C274006  18.556   6.901  14.950 -0.0156 -0.0859  0.2454
37004OCT     C174007   1.038   5.678  21.973  0.4280  0.0711  0.1629
37004OCT     C274008   1.292   5.255  21.892 -0.0943 -0.2725  0.0225
37005OCT     C174009  18.824  14.034  20.340 -0.4187  0.1489 -0.0078
37005OCT     C274010  18.784  14.504  20.259  0.2050  0.3173 -0.2283
37006OCT     C174011   0.623   9.242   5.918 -0.2059 -0.0090  0.1792
37006OCT     C274012   0.413   8.853   6.035  0.1016 -0.0461  0.0862
37007OCT     C174013  17.511  13.987   1.771  0.1206 -0.2773  0.5978
37007OCT     C274014  17.965  13.877   1.790  0.0118 -0.0332 -0.2396
37008OCT     C174015   0.342  16.903   0.863 -0.1803 -0.0425 -0.1625
37008OCT     C274016   0.515  16.976   0.458 -0.5243 -0.1835 -0.0174
37009OCT     C174017  18.617   1.523   4.053 -0.1507  0.0072 -0.0751
37009OCT     C274018  18.136   1.367   3.925 -0.4138  0.0256  0.0612
37010OCT     C174019  18.258  14.539   4.536 -0.2623  0.0651 -0.2162
37010OCT     C274020  18.593  14.315   4.279 -0.2701  0.2466  0.2237
37011OCT     C174021   0.115  10.137   8.570  0.0857 -0.0647  0.1299
37011OCT     C274022   0.029   9.803   8.848  0.0361  0.4284  0.2180
37012OCT     C174023  17.736   9.323   9.076  0.1637 -0.0507 -0.0462
37012OCT     C274024  17.570   9.173   9.523 -0.0080  0.0563 -0.0529
37013OCT     C174025  16.966   9.884   3.917 -0.2860 -0.4380 -0.2086
37013OCT     C274026  16.792  10.285   4.053  0.1110 -0.3025  0.2584
37014OCT     C174027   0.664  20.801  12.515 -0.2623 -0.0254  0.3601
37014OCT     C274028   0.797  20.980  12.919 -0.4980 -0.2443 -0.0743
37015OCT     C174029  14.569  18.063   4.154 -0.1661 -0.0576  0.1411
37015OCT     C274030  14.814  18.170   3.739  0.2474 -0.1252  0.1037
37016OCT     C174031  14.578  12.852   3.170  0.1330  0.1874  0.2336
37016OCT     C274032  14.266  12.523   2.952  0.1873  0.0773  0.0279
37017OCT     C174033  20.643  18.019  13.281  0.1416  0.2414 -0.1917
37017OCT     C274034  20.309  18.296  13.404  0.2601  0.1132 -0.0688
37018OCT     C174035   1.097   0.100   5.257  0.1281 -0.1310  0.1226
37018OCT     C274036   0.794  23.513   5.356 -0.3910  0.2229  0.1853
37019OCT     C174037   7.923   0.371  22.317 -0.2823  0.0768 -0.0261
37019OCT     C274038   7.755   0.757  22.610  0.0619 -0.0899 -0.1783
37020OCT     C174039  10.878  16.186  20.016 -0.1369 -0.1615  0.1978
37020OCT     C274040  11.168  16.329  20.366 -0.0858 -0.0068 -0.0747
37021OCT     C174041  10.114   3.611  15.087  0.2157  0.2007  0.2572
37021OCT     C274042   9.800   3.306  15.240  0.1525  0.4691  0.1110
37022OCT     C174043   2.857   5.611   2.715  0.0896 -0.1993  0.0240
37022OCT     C274044   2.447   5.438   2.663 -0.0266 -0.1134 -0.2232
37023OCT     C174045  20.108   6.761  14.574  0.1800  0.1976  0.1612
37023OCT     C274046  20.444   6.589  14.365  0.0860  0.0294 -0.0635
37024OCT     C174047  14.993   1.648  18.392  0.0249  0.4126 -0.0088
37024OCT     C274048  15.165   1.997  18.214  0.1475 -0.1235  0.0333
37025OCT     C174049  20.196   1.855   2.272  0.0894  0.0222 -0.0973
37025OCT     C274050  20.595   2.071   2.355 -0.1975 -0.4518  0.1696
37026OCT     C174051   3.773   0.626   5.936  0.2355 -0.2506  0.1961
37026OCT     C274052   3.806   1.074   5.886 -0.1534  0.1695  0.0014
37027OCT     C174053  20.445  12.529  11.939  0.4784  0.2100  0.2539
37027OCT     C274054  20.839  12.375  11.717  0.0499  0.0825 -0.0526
37028OCT     C174055  14.364  22.450  20.736 -0.2014 -0.4929  0.0350
37028OCT     C274056  14.440  22.794  20.386 -0.1422  0.1248 -0.0637
37029OCT     C174057  17.115   5.734  16.908 -0.4680  0.0976 -0.0429
37029OCT     C274058  16.775   6.148  16.955  0.3077  0.2223  0.1628
37030OCT     C174059  13.742  14.302   5.335  0.0759  0.0850  0.1997
37030OCT     C274060  13.588  14.325   5.777 -0.1620  0.0133 -0.0539
37031OCT     C174061   5.879   5.841   9.857 -0.3021 -0.3176  0.2739
37031OCT     C274062   6.017   6.307   9.737 -0.0926  0.0033 -0.4545
37032OCT     C174063  11.483  20.963  23.715  0.0320 -0.4495  0.1371
37032OCT     C274064  11.517  20.890  23.293 -0.4698  0.3511  0.1894
37033OCT     C174065   2.623  19.829  12.355 -0.2586 -0.0005 -0.2382
37033OCT     C274066   2.565  19.518  12.057  0.4358  0.3772  0.1354
37034OCT     C174067   2.437   9.533  21.644 -0.4121  0.2070 -0.0462
37034OCT     C274068   2.274   9.136  21.811 -0.0493 -0.0354 -0.0180
37035OCT     C174069  11.151  21.551  19.693  0.1538 -0.0388 -0.2568
37035OCT     C274070  10.840  21.588  20.007  0.2498  0.2656 -0.1130
37036OCT     C174071  15.414   9.440  15.753  0.0450  0.3839  0.2920
37036OCT     C274072  15.234   9.196  15.395 -0.1044  0.0162 -0.0155
37037OCT     C174073  16.772  16.475   2.344 -0.1406  0.1278  0.0388
37037OCT     C274074  16.577  16.833   2.537  0.2404  0.1645  0.1999
37038OCT     C174075   2.587  13.127  14.579  0.1619 -0.4694  0.0951
37038OCT     C274076   2.589  13.560  14.660  0.3398 -0.0287  0.0206
37039OCT     C174077   1.932   0.053  11.325  0.0209 -0.4913  0.1503
37039OCT     C274078   1.684   0.355  11.638  0.0085  0.1435 -0.1011
37040OCT     C174079   5.312   8.256   8.071  0.0613  0.2830 -0.3704
37040OCT     C274080   5.152   8.570   8.369  0.3865 -0.1960  0.1113
37041OCT     C174081   4.481  21.678   8.379 -0.3633  0.0336 -0.1321
37041OCT     C274082   4.091  21.489   8.595 -0.1175 -0.2820 -0.0711
37042OCT     C174083   5.229  15.077  16.286 -0.1914  0.2625  0.2262
37042OCT     C274084   5.117  14.801  16.577 -0.3441 -0.0747  0.1215
37043OCT     C174085  16.750  17.934  17.829 -0.1341  0.2729  0.2201
37043OCT     C274086  16.793  18.378  17.711  0.0051  0.0598 -0.0438
37044OCT     C174087  16.488  20.727  17.101 -0.1711 -0.1989 -0.2626
37044OCT     C274088  16.789  20.987  16.842  0.1404  0.1404 -0.1996
37045OCT     C174089   0.946   0.897   6.785 -0.0894  0.5341 -0.2986
37045OCT     C274090   1.020   0.501   6.464  0.1581 -0.0109  0.1960
37046OCT     C174091  19.383   5.391  19.179  0.1737  0.0189  0.1874
37046OCT     C274092  19.190   5.650  19.577  0.2300  0.0673  0.0099
37047OCT     C174093  11.020   5.827   8.564 -0.0277 -0.3225  0.2684
37047OCT     C274094  10.909   6.244   8.540  0.0300 -0.2096  0.2512
37048OCT     C174095   0.079   8.291  14.615 -0.2071 -0.0115  0.0883
37048OCT     C274096   0.238   7.855  14.617  0.2546 -0.0079 -0.0117
37049OCT     C174097   4.301  10.324  17.774  0.5197 -0.1021 -0.2506
37049OCT     C274098   4.587   9.950  17.780 -0.0068  0.4586 -0.2034
37050OCT     C174099  11.442  21.980   0.294  0.0748 -0.0784 -0.2359
37050OCT     C274100  11.416  21.981  23.511  0.1022 -0.1838  0.2542
37051OCT     C174101   9.300   2.066  14.729  0.0210  0.1493 -0.3497
37051OCT     C274102   8.823   2.003  14.811 -0.1309 -0.4049  0.0044
37052OCT     C174103   7.528  22.428   8.753 -0.0474  0.2027 -0.0399
37052OCT     C274104   7.058  22.312   8.790  0.0169  0.1353  0.3326
37053OCT     C174105  15.171   0.259  16.537  0.0642 -0.2261 -0.3264
37053OCT     C274106  14.907   0.476  16.199 -0.1071 -0.6693 -0.0056
37054OCT     C174107  13.046  16.552  10.743  0.0701 -0.3468  0.3498
37054OCT     C274108  12.853  16.989  10.877  0.0233 -0.1386 -0.0232
37055OCT     C174109  22.905  21.655   2.212 -0.0792  0.0981 -0.1265
37055OCT     C274110  23.113  21.878   1.889  0.2871  0.2285  0.1662
37056OCT     C174111  21.636  16.036   7.896 -0.0517  0.1146 -0.0220
37056OCT     C274112  21.581  16.536   7.856 -0.1410 -0.0287 -0.1282
37057OCT     C174113  15.783   5.091  11.237  0.2310 -0.1456 -0.1884
37057OCT     C274114  16.010   4.915  11.598 -0.0766 -0.2488 -0.0160
37058OCT     C174115  10.634  17.774  16.308 -0.0715 -0.1194  0.3185
37058OCT     C274116  10.802  17.659  15.884  0.0836  0.2518 -0.0399
37059OCT     C174117  15.229   8.039   5.477  0.3482 -0.0256 -0.3078
37059OCT     C274118  15.112   7.681   5.126  0.0078 -0.2735  0.3143
37060OCT     C174119  22.840  15.943  13.995 -0.2494  0.1939  0.0871
37060OCT     C274120  22.492  16.041  14.330 -0.1762 -0.2568 -0.0479
37061OCT     C174121  15.377  14.021   8.250  0.1694 -0.2341 -0.0742
37061OCT     C274122  15.571  14.433   8.354  0.2973 -0.2124 -0.1173
37062OCT     C174123  21.219  13.904  22.663 -0.1500  0.2007  0.0144
37062OCT     C274124  21.531  13.775  22.980  0.1804  0.1740  0.2703
37063OCT     C174125  22.366   8.524  16.224  0.0939 -0.2012  0.2640
37063OCT     C274126  22.460   8.940  16.415 -0.0775 -0.0114 -0.0273
37064OCT     C174127   5.618   2.693  12.531 -0.3206 -0.1579 -0.0416
37064OCT     C274128   5.412   2.750  12.104 -0.1530  0.0080 -0.0908
37065OCT     C174129   1.803  19.109  19.231  0.1247 -0.0774 -0.2606
37065OCT     C274130   1.553  19.459  19.214  0.2075 -0.1633  0.1677
37066OCT     C174131   7.701   7.648   6.481  0.1193  0.4258 -0.2132
37066OCT     C274132   7.843   7.869   6.833  0.1177 -0.1916 -0.1107
37067OCT     C174133  18.621  14.976  21.633 -0.1296 -0.3613  0.0466
37067OCT     C274134  18.944  14.734  21.556  0.4875  0.1387  0.1757
37068OCT     C174135  21.725   4.839   6.831  0.1380  0.0923  0.1446
37068OCT     C274136  21.444   4.541   6.935 -0.5514  0.3187 -0.0664
37069OCT     C174137  11.050  15.157  14.822 -0.1191 -0.0894  0.3596
37069OCT     C274138  11.281  15.517  14.657  0.1206  0.1185 -0.0714
37070OCT     C174139  20.277   5.443  17.031  0.3999  0.0641 -0.0810
37070OCT     C274140  20.538   5.123  17.171  0.0701  0.2836 -0.2020
37071OCT     C174141   3.786  12.010   0.213  0.0086  0.2310  0.0770
37071OCT     C274142   3.844  11.852   0.651 -0.2075  0.1244  0.2691
37072OCT     C174143  13.523   2.464   6.487 -0.0697 -0.1124 -0.2844
37072OCT     C274144  13.134   2.355   6.772 -0.1626  0.0697 -0.0683
37073OCT     C174145  10.750  14.655  15.791  0.4539 -0.1302 -0.1323
37073OCT     C274146  10.648  14.538  16.261 -0.1515  0.2379 -0.3062
37074OCT     C174147   1.726  22.686  16.564 -0.2594  0.1215 -0.1909
37074OCT     C274148   1.671  22.537  16.083 -0.0051 -0.1171  0.1109
37075OCT     C174149   9.480   6.920  13.642  0.0497  0.3295 -0.0848
37075OCT     C274150   9.190   6.781  14.007  0.0656  0.0752 -0.0747
37076OCT     C174151   6.689   4.746   8.304 -0.1575 -0.2603  0.2443
37076OCT     C274152   6.261   4.726   8.225 -0.1203 -0.2009 -0.3234
37077OCT     C174153  18.978  15.830   3.151  0.0833  0.2629 -0.3054
37077OCT     C274154  18.958  16.002   2.734 -0.3309 -0.0898  0.2091
37078OCT     C174155  22.312  19.547  17.708 -0.0840  0.2844 -0.2652
37078OCT     C274156  21.878  19.702  17.824  0.0256  0.1779 -0.2710
37079OCT     C174157   7.785   3.301  12.992  0.0509  0.0589  0.3186
37079OCT     C274158   8.203   3.461  13.220 -0.0128 -0.1464  0.1510
37080OCT     C174159   7.691  17.040  19.164 -0.1208  0.1789 -0.0039
37080OCT     C274160   7.393  17.389  19.063 -0.0741 -0.3431  0.0764
37081OCT     C174161   5.537   7.218  19.396 -0.2100 -0.2136 -0.1220
37081OCT     C274162   5.344   7.502  19.007  0.1446  0.1277  0.0618
37082OCT     C174163   5.415   4.409  15.693 -0.0154 -0.2963 -0.1878
37082OCT     C274164   5.445   4.909  15.502 -0.0168  0.1473  0.0611
37083OCT     C174165   5.576   9.249  16.113 -0.0353  0.2781  0.0504
37083OCT     C274166   5.237   9.098  15.838 -0.0565  0.2574  0.0461
37084OCT     C174167   3.867  17.308  22.422 -0.1083 -0.0718 -0.1411
37084OCT     C274168   3.950  17.730  22.250  0.1961  0.1667  0.1729
37085OCT     C174169   5.985  21.102  20.569 -0.0966  0.1261 -0.0314
37085OCT     C274170   6.200  21.351  20.257 -0.0674  0.4312  0.1301
37086OCT     C174171   7.516  12.764  18.121  0.1828  0.4299  0.0927
37086OCT     C274172   7.633  12.359  17.995  0.1246 -0.1145  0.0648
37087OCT     C174173  21.990  12.909  10.621 -0.1123  0.1212  0.0272
37087OCT     C274174  21.924  12.538  10.949 -0.0150  0.1739 -0.1597
37088OCT     C174175   6.462  15.096   1.416 -0.2519 -0.2745 -0.0195
37088OCT     C274176   6.705  15.070   1.033  0.1328 -0.0827 -0.3558
37089OCT     C174177   8.155   0.629   4.052 -0.1834  0.0904  0.1169
37089OCT     C274178   8.364   0.846   4.404 -0.3183  0.1202 -0.0789
37090OCT     C174179   5.858  12.182   7.647  0.2011 -0.2918 -0.1440
37090OCT     C274180   5.740  11.795   7.867 -0.3089  0.2223 -0.2467
37091OCT     C174181  19.889   8.402   0.328  0.3904 -0.0050 -0.4632
37091OCT     C274182  19.842   8.119   0.712  0.1928  0.0619  0.2663
37092OCT     C174183   9.575   3.780   8.273  0.4043 -0.1009 -0.3079
37092OCT     C274184   9.725   4.047   7.876  0.2373 -0.0434  0.1295
37093OCT     C174185   8.144   7.045   5.673 -0.0110 -0.0066  0.2718
37093OCT     C274186   8.356   7.443   5.652 -0.0398 -0.0572  0.1500
37094OCT     C174187  11.675  23.352   6.498 -0.0829  0.2379  0.0424
37094OCT     C274188  11.289  23.373   6.783  0.0705  0.2610  0.3044
37095OCT     C174189  18.817  22.470  20.174  0.0285 -0.2464 -0.1521
37095OCT     C274190  18.676  22.811  19.955 -0.1720  0.1553  0.1234
37096OCT     C174191   6.766   8.219  23.683  0.2198 -0.2790  0.0148
37096OCT     C274192   6.552   8.297  23.264 -0.0521 -0.4156  0.1615
37097OCT     C174193   2.837   3.118  11.092 -0.1082 -0.2033 -0.0444
37097OCT     C274194   2.593   2.718  10.954  0.3989  0.0272 -0.1290
37098OCT     C174195   4.981  17.498   1.945  0.1572 -0.3524  0.1184
37098OCT     C274196   5.087  17.097   1.831 -0.1230 -0.4912 -0.1048
37099OCT     C174197   6.677  11.118   8.119  0.0163 -0.0670  0.1201
37099OCT     C274198   6.359  11.011   7.798  0.1345  0.1214  0.1716
37100OCT     C174199   6.057  11.988  18.797 -0.0155  0.0546  0.0720
37100OCT     C274200   5.651  11.961  19.072 -0.6205 -0.0868 -0.3428
37101OCT     C174201  16.881  21.456   3.219 -0.2576 -0.2668  0.2097
37101OCT     C274202  16.968  21.211   2.842 -0.2356  0.0142  0.5639
37102OCT     C174203   0.848   6.210  23.613 -0.1704  0.4020  0.0154
37102OCT     C274204   0.684   6.589   0.155  0.3050 -0.2699 -0.0587
37103OCT     C174205   0.841  21.546   2.162 -0.1919 -0.0327 -0.2384
37103OCT     C274206   0.623  21.835   1.861 -0.2935 -0.1120 -0.3229
37104OCT     C174207   7.079   2.630  23.633  0.3318 -0.3803  0.2170
37104OCT     C274208   6.889   2.716   0.322 -0.1536  0.2830  0.0441
37105OCT     C174209  16.155   7.740  19.379  0.2683 -0.3821  0.3323
37105OCT     C274210  16.197   7.301  19.397  0.0228 -0.3628  0.0527
37106OCT     C174211  10.604   7.021   7.574 -0.0017 -0.0327  0.1910
37106OCT     C274212  10.598   7.036   8.050 -0.1883  0.0501 -0.1792
37107OCT     C174213  13.661  14.475  14.243  0.1534 -0.1382  0.3381
37107OCT     C274214  14.090  14.333  14.190 -0.2801 -0.1405  0.7010
37108OCT     C174215   1.293   1.523  18.668 -0.0920 -0.3451 -0.1106
37108OCT     C274216   0.806   1.678  18.658  0.2287  0.4846 -0.0544
37109OCT     C174217   0.999  23.521  10.933  0.5138 -0.0057 -0.2435
37109OCT     C274218   0.602  23.389  11.204  0.0800 -0.2277  0.2383
37110OCT     C174219   2.809   1.693   5.120  0.2127  0.1022 -0.0899
37110OCT     C274220   3.086   1.449   5.372 -0.1838  0.0912 -0.0016
37111OCT     C174221   4.506  21.412   1.434  0.1785 -0.3439  0.4432
37111OCT     C274222   4.954  21.505   1.242 -0.2387 -0.0789 -0.2540
37112OCT     C174223   1.249  22.418   8.057  0.2960  0.1066 -0.2372
37112OCT     C274224   1.678  22.454   8.291  0.3683  0.1632  0.4291
37113OCT     C174225  15.775  16.474   2.667  0.1628 -0.0612 -0.0779
37113OCT     C274226  15.913  16.023   2.597  0.0652  0.2960 -0.0072
37114OCT     C174227   5.742   6.057  21.211 -0.0221  0.1158 -0.1564
37114OCT     C274228   6.063   6.379  21.258  0.2643  0.2005 -0.0639
37115OCT     C174229   5.338  15.511  15.523  0.2770 -0.2198 -0.0283
37115OCT     C274230   5.466  15.749  15.094 -0.2066  0.0533  0.0816
37116OCT     C174231   6.549   5.883  10.718 -0.2993 -0.0457  0.0916
37116OCT     C274232   6.993   6.042  10.634  0.2334  0.2226  0.3226
37117OCT     C174233  15.529   1.242  12.365  0.0721  0.0184  0.2350
37117OCT     C274234  15.302   0.965  12.623  0.0862  0.0167 -0.0188
37118OCT     C174235   7.120   3.764  17.530 -0.1219 -0.3257 -0.1292
37118OCT     C274236   6.961   3.529  17.869  0.0800  0.1453 -0.3259
37119OCT     C174237  12.020   3.750  18.638  0.0540 -0.0407  0.1514
37119OCT     C274238  11.808   3.369  18.637 -0.2233  0.2121 -0.2618
37120OCT     C174239   6.362   1.390  17.214 -0.1852  0.1249  0.1726
37120OCT     C274240   6.522   0.939  17.233  0.1722 -0.2307 -0.0497
37121OCT     C174241  18.062  21.640  12.480  0.0954 -0.0352 -0.1912
37121OCT     C274242  18.441  21.768  12.718 -0.1733  0.0082  0.1221
37122OCT     C174243  11.572  17.508   8.826  0.2018  0.1479 -0.1717
37122OCT     C274244  11.257  17.793   9.163 -0.2994  0.4904 -0.1339
37123OCT     C174245   1.967   6.755  20.843 -0.0466 -0.0633  0.0560
37123OCT     C274246   2.358   6.982  20.594  0.1426 -0.2764  0.4060
37124OCT     C174247  10.540  21.827   4.292  0.0080 -0.0929  0.2336
37124OCT     C274248  10.376  22.178   4.010 -0.1133 -0.2647 -0.0869
37125OCT     C174249   8.780  22.515  10.585 -0.0695  0.0695  0.0222
37125OCT     C274250   8.412  22.280  10.360  0.0956 -0.2317  0.1538
37126OCT     C174251  12.723   0.793  13.839  0.0866  0.1189  0.0412
37126OCT     C274252  12.447   0.506  13.606  0.0307 -0.2373 -0.3062
37127OCT     C174253   8.521  19.722  14.299 -0.1421 -0.3686 -0.0598
37127OCT     C274254   8.897  19.803  13.972 -0.0352  0.1555 -0.4301
37128OCT     C174255  15.339  15.378   7.533 -0.1917  0.3367  0.5429
37128OCT     C274256  15.373  15.585   7.994  0.1985 -0.4025  0.4323
37129OCT     C174257  10.518   5.680   5.507 -0.0946  0.0264 -0.2844
37129OCT     C274258  10.452   6.086   5.429 -0.0151  0.2539  0.0214
37130OCT     C174259  11.951  19.773  10.184 -0.0153  0.2688 -0.4826
37130OCT     C274260  12.175  19.844  10.579  0.1717 -0.4815 -0.4080
37131OCT     C174261  11.223  17.413  14.154  0.1365  0.4159 -0.4397
37131OCT     C274262  10.848  17.600  14.432  0.0310 -0.3302 -0.0926
37132OCT     C174263   7.985   6.937   6.576  0.1796 -0.1159  0.2162
37132OCT     C274264   7.840   7.257   6.834  0.0541  0.1507 -0.2017
37133OCT     C174265  14.333  20.504   8.882  0.1501  0.1038 -0.5080
37133OCT     C274266  14.358  20.195   8.478  0.4181  0.0361 -0.4681
37134OCT     C174267  11.105  11.772   2.093 -0.0199 -0.0248  0.4630
37134OCT     C274268  11.426  11.696   1.749  0.0891  0.1542 -0.1211
37135OCT     C174269  13.273  11.909  12.445 -0.2970  0.1384  0.2510
37135OCT     C274270  12.853  11.837  12.430 -0.0459  0.6493  0.3161
37136OCT     C174271  20.447  13.086   7.590 -0.0944  0.1127 -0.0264
37136OCT     C274272  20.619  12.648   7.407 -0.1493 -0.1452  0.1463
37137OCT     C174273  21.264  23.115  12.291  0.0419  0.1751 -0.2936
37137OCT     C274274  21.526  22.795  12.441  0.2415 -0.0719  0.5580
37138OCT     C174275   4.276  23.081  14.900  0.0886 -0.1139 -0.6781
37138OCT     C274276   4.382  23.229  15.359 -0.2646  0.2646 -0.0933
37139OCT     C174277  19.983   8.171  23.616 -0.1692  0.5245 -0.1100
37139OCT     C274278  19.891   8.345  23.156 -0.1978 -0.0240  0.1683
37140OCT     C174279  18.965  23.716  16.997  0.0780  0.0213 -0.0048
37140OCT     C274280  19.126   0.252  16.594  0.2110  0.1603  0.1665
37141OCT     C174281   8.741  14.512   6.668  0.0055 -0.1874  0.3528
37141OCT     C274282   9.150  14.364   6.657 -0.6950 -0.0282 -0.2316
37142OCT     C174283  14.304   3.409   8.059 -0.1085  0.1166 -0.1028
37142OCT     C274284  14.616   3.101   7.883  0.3023  0.2385  0.3050
37143OCT     C174285  11.608   3.131  17.452  0.0404  0.3978  0.0923
37143OCT     C274286  11.950   3.164  17.730  0.4137 -0.1453 -0.4184
37144OCT     C174287  17.937   8.169  17.003  0.0502 -0.0496 -0.0388
37144OCT     C274288  18.136   7.905  16.694  0.0390  0.1567 -0.2812
37145OCT     C174289   5.890  11.997   4.471 -0.3512 -0.0414  0.0360
37145OCT     C274290   5.823  12.435   4.699  0.2564 -0.0623  0.0617
37146OCT     C174291   1.981  20.195   2.429  0.0473 -0.0208 -0.3358
37146OCT     C274292   2.361  20.296   2.166 -0.3042  0.2237  0.1828
37147OCT     C174293  11.579  16.805   8.133 -0.2216  0.1107 -0.0504
37147OCT     C274294  11.414  17.017   7.797 -0.0077  0.1672 -0.0568
37148OCT     C174295   6.233   2.135  12.241 -0.0294 -0.0898 -0.1217
37148OCT     C274296   6.156   2.397  11.849 -0.0447 -0.2029 -0.1926
37149OCT     C174297   0.562  21.620  14.989  0.1594 -0.1885  0.0043
37149OCT     C274298   0.847  21.769  14.624 -0.3885  0.1351  0.0721
37150OCT     C174299  21.352   7.213  17.133  0.1747  0.2484 -0.0938
37150OCT     C274300  21.435   7.117  16.627  0.0393 -0.0584  0.0239
37151OCT     C174301  23.681   5.890   9.018 -0.2511  0.1018  0.2660
37151OCT     C274302  23.341   5.967   8.730 -0.0154 -0.1104  0.1051
37152OCT     C174303  22.538  13.133  14.744 -0.0517 -0.1581 -0.3240
37152OCT     C274304  22.584  13.038  15.207 -0.2572  0.4321 -0.0831
37153OCT     C174305  11.742   1.660  10.046 -0.0470 -0.1885  0.1656
37153OCT     C274306  11.754   2.133  10.136  0.1531 -0.1324  0.3335
37154OCT     C174307   9.108  22.103   2.714  0.2910 -0.3436 -0.0708
37154OCT     C274308   9.268  21.733   2.530  0.1457  0.2163  0.3781
37155OCT     C174309   8.159  23.526   2.461  0.0607  0.0810 -0.0737
37155OCT     C274310   7.727  23.629   2.664  0.0383 -0.1431 -0.2555
37156OCT     C174311   5.005  10.097  20.906 -0.1362  0.1397  0.0013
37156OCT     C274312   5.036  10.500  21.182  0.1217  0.1162 -0.2220
37157OCT     C174313   5.781  14.770  19.648 -0.0103 -0.1433  0.0812
37157OCT     C274314   5.465  15.143  19.707  0.0643  0.2305  0.0591
37158OCT     C174315   7.300   4.837  21.506  0.1576  0.0227  0.1613
37158OCT     C274316   7.561   4.723  21.856  0.0853 -0.3218  0.4882
37159OCT     C174317   5.114  21.921   5.878 -0.0976 -0.4821 -0.1807
37159OCT     C274318   4.934  21.755   5.480  0.1221 -0.1081 -0.0073
37160OCT     C174319  13.029  18.461  15.043  0.0200 -0.0439 -0.1447
37160OCT     C274320  12.874  18.900  15.185 -0.0497  0.0264 -0.0041
37161OCT     C174321   5.321  13.187   4.845  0.0188 -0.0635 -0.1120
37161OCT     C274322   5.620  13.017   4.570 -0.0311 -0.1034  0.1933
37162OCT     C174323  15.839  18.553   1.296  0.0806  0.2178  0.1441
37162OCT     C274324  15.868  18.140   1.218  0.3485  0.0725 -0.1291
37163OCT     C174325   9.140  19.293   9.242  0.1370  0.0292 -0.2296
37163OCT     C274326   9.177  19.255   9.704 -0.0034 -0.3797  0.1186
37164OCT     C174327  11.099  16.638  12.183  0.3032  0.0118  0.1492
37164OCT     C274328  11.421  16.331  12.390  0.4198  0.2230 -0.0461
37165OCT     C174329   4.072  10.208  15.264  0.2102  0.2499  0.2493
37165OCT     C274330   4.357   9.843  15.292 -0.0012 -0.1285  0.1591
37166OCT     C174331   0.852  19.615   8.773 -0.0341 -0.1321  0.2039
37166OCT     C274332   1.222  19.841   8.602 -0.1984  0.1684  0.0508
37167OCT     C174333  17.391   4.123  15.924  0.3874  0.0762 -0.1967
37167OCT     C274334  17.472   4.044  15.477 -0.0545  0.2790  0.0411
37168OCT     C174335   1.479  21.560  21.908 -0.2549 -0.0259  0.1935
37168OCT     C274336   1.661  21.440  22.306 -0.0913  0.2961 -0.0192
37169OCT     C174337  15.269  22.025  20.481  0.0916 -0.2489 -0.2034
37169OCT     C274338  15.111  21.825  20.887  0.4956  0.0616  0.3002
37170OCT     C174339  11.711  23.268   0.934  0.0807  0.0642 -0.2985
37170OCT     C274340  11.623  23.179   0.468  0.1595  0.0487  0.2019
37171OCT     C174341   2.897  22.498  10.459  0.2696  0.2844 -0.0467
37171OCT     C274342   3.043  22.702  10.845 -0.1679 -0.0050 -0.1417
37172OCT     C174343   1.484  18.532  18.940  0.0798  0.2296  0.2386
37172OCT     C274344   1.181  18.818  18.689  0.0580  0.0762  0.0682
37173OCT     C174345  13.126  16.659  15.803  0.0161  0.1628 -0.0982
37173OCT     C274346  12.807  17.054  15.847  0.3331 -0.3632 -0.0407
37174OCT     C174347   9.689  12.521  21.024  0.3996  0.0174  0.1111
37174OCT     C274348   9.812  12.657  20.575  0.0252 -0.0503 -0.0145
37175OCT     C174349   8.702  15.855  19.588  0.4220  0.1749  0.2366
37175OCT     C274350   8.932  15.920  19.177  0.4045 -0.0006 -0.1718
37176OCT     C174351  20.662   9.905   0.291  0.1869 -0.1974 -0.2478
37176OCT     C274352  20.883  10.107   0.650 -0.1172  0.4066 -0.1156
37177OCT     C174353   5.834   7.342  10.927 -0.4707 -0.1542  0.0509
37177OCT     C274354   6.103   7.142  11.191  0.1889  0.3420 -0.0524
37178OCT     C174355   4.498  10.741   9.553 -0.0086 -0.0295  0.1480
37178OCT     C274356   4.409  10.828   9.064 -0.1056 -0.4445  0.3184
37179OCT     C174357   2.106  14.000  19.548  0.0635 -0.1395 -0.1340
37179OCT     C274358   2.515  13.842  19.587 -0.0889 -0.0341  0.0362
37180OCT     C174359   9.565  23.311   7.090  0.1817  0.0810  0.4369
37180OCT     C274360   9.384  23.311   7.520 -0.1900  0.2964 -0.2119
37181OCT     C174361   2.212  17.516  20.801  0.2968 -0.0658 -0.2029
37181OCT     C274362   2.366  17.116  20.983 -0.0420 -0.2183  0.0928
37182OCT     C174363   6.090  17.846  17.410 -0.1767 -0.1289  0.2509
37182OCT     C274364   5.940  17.548  17.069 -0.3841 -0.3490  0.0409
37183OCT     C174365   0.507  21.472  20.540  0.4655  0.1004  0.0856
37183OCT     C274366   0.250  21.544  20.184  0.1909  0.3476 -0.2928
37184OCT     C174367  18.208  10.185  12.831 -0.1638 -0.4006  0.1227
37184OCT     C274368  17.875  10.513  12.959 -0.3171 -0.3005 -0.0830
37185OCT     C174369  21.432   5.614  13.204  0.3647  0.0889  0.3238
37185OCT     C274370  21.342   5.112  13.207 -0.0210  0.0379  0.0761
37186OCT     C174371  21.422  12.250   6.178  0.2783 -0.1607  0.0840
37186OCT     C274372  21.219  12.130   6.591 -0.3253  0.1184 -0.0120
37187OCT     C174373   2.856   0.864  14.263 -0.2291  0.0313 -0.4977
37187OCT     C274374   2.911   0.968  13.816  0.2762  0.1122  0.1399
37188OCT     C174375  11.887  18.603  18.016  0.2782 -0.3987 -0.3280
37188OCT     C274376  11.892  18.674  18.482  0.1143 -0.3730  0.0850
37189OCT     C174377   3.255  20.297   2.726 -0.0415  0.0211 -0.0551
37189OCT     C274378   3.126  20.499   2.363 -0.3303 -0.4203  0.2291
37190OCT     C174379  10.822   1.847  12.559 -0.0393  0.2554  0.0809
37190OCT     C274380  10.838   2.254  12.663  0.3973 -0.2101 -0.3466
37191OCT     C174381  10.875   0.331  21.617 -0.2211  0.0818 -0.2208
37191OCT     C274382  10.870  23.607  21.586 -0.1420 -0.0186 -0.0260
37192OCT     C174383   6.130  12.804   2.077 -0.1631  0.2270 -0.0982
37192OCT     C274384   6.428  12.630   1.742  0.2300 -0.0063 -0.1452
37193OCT     C174385  19.207  23.666   8.982 -0.2216 -0.0908  0.4197
37193OCT     C274386  18.851  23.700   8.733  0.0101 -0.2699  0.1570
37194OCT     C174387  11.360  11.581   1.196  0.2328  0.7358  0.0557
37194OCT     C274388  10.908  11.418   1.231  0.0546 -0.0679 -0.0684
37195OCT     C174389   7.729   0.047  15.864 -0.0922 -0.5506  0.0378
37195OCT     C274390   7.686   0.147  16.346 -0.0280  0.2390  0.4272
37196OCT     C174391   9.079  15.578   6.226 -0.4454  0.2450  0.6564
37196OCT     C274392   9.348  15.461   5.865 -0.3668 -0.2556 -0.7253
37197OCT     C174393  23.061   1.836   4.757  0.2114 -0.5324  0.0861
37197OCT     C274394  23.474   1.626   4.839  0.2037  0.0516  0.2642
37198OCT     C174395  18.419   4.467  23.526  0.1196 -0.0180 -0.2621
37198OCT     C274396  18.821   4.627  23.713  0.1214  0.1859  0.0581
37199OCT     C174397  23.601  15.066  13.528  0.2271  0.0326  0.4617
37199OCT     C274398   0.135  14.692  13.619  0.3561 -0.2860 -0.0565
37200OCT     C174399  20.967   8.088   9.043 -0.1602 -0.0496  0.1755
37200OCT     C274400  21.388   7.818   8.864  0.2142 -0.2731 -0.2099
37201OCT     C174401  19.285  20.252  22.211  0.2593 -0.0245  0.1955
37201OCT     C274402  19.669  20.088  22.086  0.0376 -0.0688 -0.1132
37202OCT     C174403   7.188  10.752  14.316  0.0090  0.3263  0.2843
37202OCT     C274404   6.874  10.468  14.132 -0.3128  0.1248  0.2925
37203OCT     C174405  21.665   6.464   6.485 -0.0991  0.0548  0.0037
37203OCT     C274406  21.590   6.402   6.068  0.1230 -0.0283 -0.0791
37204OCT     C174407  20.553   8.166   4.883 -0.1599  0.3528 -0.0851
37204OCT     C274408  20.866   8.260   4.563 -0.2159  0.0524  0.0427
37205OCT     C174409  10.543   5.363   1.994  0.4302  0.0003  0.0019
37205OCT     C274410  10.341   4.973   1.837 -0.0088 -0.3369  0.2129
37206OCT     C174411  18.285   7.100   5.382 -0.4159  0.0043  0.0263
37206OCT     C274412  18.112   6.706   5.457  0.0107  0.1441  0.0852
37207OCT     C174413  10.033  14.883  22.885  0.3321  0.1816  0.3696
37207OCT     C274414   9.849  14.620  23.246  0.1754  0.1005  0.3283
37208OCT     C174415  13.428   9.355   7.246  0.0236 -0.0009  0.2649
37208OCT     C274416  13.269   9.714   7.482 -0.1183 -0.0107 -0.3042
37209OCT     C174417   0.841  17.021   7.123  0.1000  0.1668  0.0706
37209OCT     C274418   0.773  16.993   6.683 -0.0499  0.1330 -0.0759
37210OCT     C174419  21.883  14.099  13.100  0.1528 -0.2456 -0.3296
37210OCT     C274420  21.499  13.841  13.037  0.1323  0.1021  0.1771
37211OCT     C174421   6.643   9.362  21.844  0.1430 -0.2517  0.0260
37211OCT     C274422   6.230   9.197  21.669 -0.1856 -0.0017  0.2368
37212OCT     C174423  23.440  23.522   0.348 -0.3297 -0.1468 -0.2468
37212OCT     C274424  23.595  23.475   0.767  0.3210 -0.0364  0.4931
37213OCT     C174425   4.319  17.708  12.623  0.1205 -0.2548 -0.2274
37213OCT     C274426   4.383  17.244  12.721  0.2691  0.4799  0.1385
37214OCT     C174427   6.325  20.082  15.545 -0.3549  0.1943  0.1461
37214OCT     C274428   5.862  20.190  15.615 -0.2057  0.0545  0.0167
37215OCT     C174429  12.595  16.183  21.061 -0.1902  0.2544 -0.1457
37215OCT     C274430  12.941  16.316  20.883  0.4288 -0.0713 -0.2018
37216OCT     C174431   5.444   3.873   5.765 -0.2283  0.2377 -0.0802
37216OCT     C274432   5.175   3.869   5.364  0.2909 -0.0167 -0.2304
37217OCT     C174433  12.874   5.289  21.720 -0.0219  0.2474 -0.0842
37217OCT     C274434  12.473   5.210  21.544  0.1151 -0.1879  0.1324
37218OCT     C174435  22.452   2.897   2.367 -0.3240 -0.1230  0.1127
37218OCT     C274436  22.593   3.174   2.055 -0.1823  0.1131  0.1474
37219OCT     C174437   6.470  20.626   5.166  0.1852 -0.0476 -0.3682
37219OCT     C274438   6.380  20.837   5.562  0.3388 -0.1528  0.0959
37220OCT     C174439  16.410  17.821   0.900 -0.0694 -0.1807 -0.1074
37220OCT     C274440  16.473  17.340   0.950  0.3715  0.0234  0.1902
37221OCT     C174441   6.129   7.133  14.405  0.2017  0.5855  0.2255
37221OCT     C274442   6.480   6.932  14.124  0.4197 -0.0085 -0.5851
37222OCT     C174443   6.421   1.201  10.000  0.0474 -0.0056  0.0772
37222OCT     C274444   6.830   1.457  10.138  0.1914 -0.1912 -0.0336
37223OCT     C174445   5.916  14.842  14.158  0.3456 -0.2479  0.1761
37223OCT     C274446   5.956  15.049  14.547  0.3110 -0.0688  0.2739
37224OCT     C174447  12.064  22.828  12.969 -0.2192 -0.2796 -0.2573
37224OCT     C274448  12.369  23.123  12.753 -0.0278  0.1026 -0.0653
37225OCT     C174449   7.112  21.229   3.191 -0.0079 -0.2559 -0.0028
37225OCT     C274450   6.777  20.983   3.435  0.1443  0.1043 -0.2512
37226OCT     C174451   0.636   5.233  14.543 -0.0101 -0.0014  0.0134
37226OCT     C274452   0.891   4.811  14.598 -0.1349 -0.1583 -0.2164
37227OCT     C174453   1.762   4.126   6.486  0.0566  0.0360 -0.4430
37227OCT     C274454   2.175   4.043   6.328 -0.0502  0.2427 -0.0934
37228OCT     C174455   9.651   8.480  11.818 -0.0668  0.0515 -0.1262
37228OCT     C274456   9.765   8.075  12.071 -0.1739  0.2523 -0.1080
37229OCT     C174457   8.259  11.131   6.575 -0.0854 -0.2874 -0.0117
37229OCT     C274458   8.605  10.966   6.318  0.1971 -0.0157  0.0378
37230OCT     C174459  20.958  20.779   7.829 -0.0710  0.1437 -0.1975
37230OCT     C274460  20.777  20.744   8.238  0.0226 -0.1270 -0.0912
37231OCT     C174461   6.326   8.845  11.034 -0.0901 -0.0177  0.1693
37231OCT     C274462   6.584   8.539  10.843 -0.2478 -0.4554  0.2920
37232OCT     C174463   8.628   6.099   0.494  0.4745 -0.1686  0.1272
37232OCT     C274464   8.194   6.167   0.310  0.2437  0.0304  0.4341
37233OCT     C174465   0.466  10.805   0.010 -0.1025 -0.0549 -0.0648
37233OCT     C274466   0.165  10.803  23.386  0.3128 -0.1883 -0.3734
37234OCT     C174467  15.193  14.778  11.446 -0.2912 -0.1772  0.2074
37234OCT     C274468  14.851  14.831  11.762  0.4327 -0.2120  0.1581
37235OCT     C174469   8.139  21.297  13.910  0.6124 -0.0155  0.0830
37235OCT     C274470   7.975  21.710  14.068  0.1814 -0.2678 -0.2583
37236OCT     C174471  18.296  14.904   9.008  0.1651 -0.1385 -0.3779
37236OCT     C274472  18.193  15.363   8.946  0.1855 -0.1909  0.0147
37237OCT     C174473   9.374   6.982   3.440 -0.0440  0.2848 -0.0853
37237OCT     C274474   9.799   6.971   3.550  0.3974  0.1391  0.2761
37238OCT     C174475   7.577  21.488   8.199  0.1380 -0.4026  0.0987
37238OCT     C274476   7.986  21.548   7.971  0.0696 -0.1867  0.0944
37239OCT     C174477   3.565  17.298  12.417  0.4573 -0.0265 -0.0577
37239OCT     C274478   3.375  17.636  12.630 -0.1082 -0.5482 -0.1713
37240OCT     C174479  16.982  11.969   4.276  0.0425  0.0328  0.1719
37240OCT     C274480  16.506  11.914   4.284 -0.1607  0.3282  0.2765
37241OCT     C174481   6.552  21.647  17.345 -0.2002  0.1711  0.2289
37241OCT     C274482   6.805  22.052  17.404  0.0968  0.1665  0.2150
37242OCT     C174483  20.426   6.849  18.565 -0.1952  0.1748 -0.1517
37242OCT     C274484  20.571   6.485  18.290 -0.0769 -0.1707  0.1023
37243OCT     C174485  20.293   1.647  20.081 -0.1240 -0.2785  0.1951
37243OCT     C274486  20.171   1.444  20.460  0.0999  0.3784 -0.1028
37244OCT     C174487  15.857  15.995   4.841  0.0363 -0.0448 -0.0463
37244OCT     C274488  16.289  16.003   4.695  0.2516 -0.2992  0.1586
37245OCT     C174489  23.254  19.075   3.884  0.1532 -0.0721  0.0150
37245OCT     C274490  23.622  18.812   3.996 -0.2227  0.3698  0.2062
37246OCT     C174491  16.075   0.956   5.953 -0.2934 -0.2113  0.1398
37246OCT     C274492  15.975   0.586   5.763  0.0453  0.2171 -0.1025
37247OCT     C174493  22.093  15.657   3.760  0.1669  0.3920 -0.1934
37247OCT     C274494  22.092  16.080   3.666 -0.2269 -0.0672 -0.5173
37248OCT     C174495  15.797  11.089  21.478  0.1686 -0.1989 -0.1083
37248OCT     C274496  15.986  10.873  21.122 -0.3121  0.1040  0.4282
37249OCT     C174497  13.865   0.203  16.291  0.1053  0.0213  0.0076
37249OCT     C274498  13.729   0.311  15.839  0.1796  0.1773  0.0329
37250OCT     C174499  17.428   0.748   7.634  0.2851  0.0119 -0.4387
37250OCT     C274500  17.629   0.909   8.018  0.3088  0.2798 -0.3195
37251OCT     C174501  20.629  23.367   4.814 -0.0560 -0.2309 -0.0061
37251OCT     C274502  20.751  22.941   4.701 -0.1255  0.1595 -0.1080
37252OCT     C174503  15.238  12.624   4.439  0.0929  0.2274  0.1244
37252OCT     C274504  15.667  12.538   4.595  0.2397  0.1684  0.0469
37253OCT     C174505   1.143   8.360  15.604 -0.3481  0.0181 -0.0634
37253OCT     C274506   1.575   8.110  15.651  0.2066  0.4168  0.1254
37254OCT     C174507  16.901   1.875  11.665 -0.0454  0.0935 -0.1206
37254OCT     C274508  16.928   1.668  11.241 -0.2011 -0.0770  0.1160
37255OCT     C174509   6.223   3.947   0.013  0.2223  0.2431  0.0762
37255OCT     C274510   6.435   3.558   0.136  0.2037 -0.0094  0.0795
37256OCT     C174511   5.263  13.534   6.777  0.3783  0.1610  0.1228
37256OCT     C274512   5.200  13.967   6.559  0.2539  0.0758  0.2956
37257OCT     C174513  23.174  16.045  20.295 -0.1997  0.0074 -0.1589
37257OCT     C274514  23.371  16.415  20.076  0.1373 -0.0959  0.0897
37258OCT     C174515  15.645  19.016   7.349 -0.1475 -0.1221 -0.2628
37258OCT     C274516  15.405  19.094   7.757 -0.1152 -0.0893 -0.2174
37259OCT     C174517  17.729   7.391  23.268 -0.2589  0.3524 -0.0927
37259OCT     C274518  17.754   7.813  23.526  0.1108 -0.1008 -0.5314
37260OCT     C174519  17.706   2.695   3.560  0.4384  0.0168 -0.1574
37260OCT     C274520  17.405   2.547   3.886  0.3526  0.1688 -0.0975
37261OCT     C174521   0.157   5.647   2.244  0.2840  0.0833  0.0546
37261OCT     C274522   0.459   5.307   2.257 -0.2179  0.2179 -0.0509
37262OCT     C174523   1.663   8.927  10.465  0.2246 -0.0245 -0.2571
37262OCT     C274524   1.330   9.259  10.299  0.2230  0.0044  0.3482
37263OCT     C174525  13.790  15.930   4.881 -0.0905 -0.3914  0.1060
37263OCT     C274526  13.922  15.889   4.442 -0.2473  0.2957 -0.0099
37264OCT     C174527   5.900   6.195  16.881  0.0336  0.2926 -0.5837
37264OCT     C274528   6.084   6.397  17.220  0.1676 -0.1750  0.1583
37265OCT     C174529   0.717   7.750   5.515 -0.2010  0.0646  0.1441
37265OCT     C274530   0.285   7.602   5.322  0.2942 -0.1390  0.0247
37266OCT     C174531   7.182  16.242  12.204 -0.0541  0.1473 -0.1066
37266OCT     C274532   6.855  16.366  12.506  0.0207 -0.1451 -0.0679
37267OCT     C174533  12.633  22.608   6.850 -0.3231 -0.0078  0.0273
37267OCT     C274534  12.149  22.571   7.018 -0.1690 -0.0242  0.2389
37268OCT     C174535  15.353  11.833  21.854 -0.3405 -0.0315  0.2174
37268OCT     C274536  15.284  12.094  22.149 -0.0751  0.0038 -0.0797
37269OCT     C174537  14.031  17.974  12.531 -0.1023  0.0993 -0.0247
37269OCT     C274538  14.041  17.534  12.400  0.1556  0.0984  0.0050
37270OCT     C174539  13.296  18.527  13.046 -0.0749  0.3086  0.0818
37270OCT     C274540  12.937  18.838  12.972 -0.0327  0.5232 -0.1732
37271OCT     C174541   0.821   9.377  13.313  0.3091 -0.1467 -0.2742
37271OCT     C274542   0.790   8.932  13.392 -0.0004 -0.0386  0.1056
37272OCT     C174543  19.056   5.375  18.762  0.1224 -0.2086 -0.3953
37272OCT     C274544  18.737   5.136  18.941  0.0045  0.3186 -0.2448
37273OCT     C174545  13.801  12.945   0.913 -0.3532 -0.0643  0.0481
37273OCT     C274546  13.511  12.654   1.141 -0.1886  0.0006  0.2016
37274OCT     C174547   8.018   8.371  16.561  0.3816 -0.4982 -0.4011
37274OCT     C274548   8.372   8.264  16.252 -0.0339 -0.0585 -0.0018
37275OCT     C174549   6.493   3.711   7.908  0.2148  0.1129 -0.2104
37275OCT     C274550   6.161   4.076   7.813  0.2045  0.1568  0.2942
37276OCT     C174551  21.859   4.365   5.392 -0.1513  0.1122 -0.3294
37276OCT     C274552  22.147   4.283   5.697  0.0449  0.3399 -0.3802
37277OCT     C174553   4.516  13.299   9.289  0.0301  0.0550  0.0656
37277OCT     C274554   4.150  13.003   9.114 -0.1350 -0.3778 -0.0785
37278OCT     C174555   3.674  20.471   1.840 -0.0537  0.0218  0.0858
37278OCT     C274556   3.954  20.572   2.132 -0.5767  0.0101 -0.0323
37279OCT     C174557  19.990   0.021  11.892 -0.0892  0.2813 -0.0946
37279OCT     C274558  20.408  23.570  11.937  0.0183 -0.0876  0.0712
37280OCT     C174559  12.645   1.533  17.594 -0.0686  0.1072  0.2752
37280OCT     C274560  12.898   1.265  17.260  0.1405 -0.0181  0.1354
37281OCT     C174561  22.318  11.801  17.084 -0.2763  0.1517  0.0239
37281OCT     C274562  21.872  11.924  16.939  0.3663 -0.2385 -0.0507
37282OCT     C174563  13.999  22.067  10.915 -0.0386 -0.1747 -0.2521
37282OCT     C274564  13.742  21.722  11.166  0.0086  0.2989 -0.2447
37283OCT     C174565  22.471  20.899  13.754  0.1548 -0.3535 -0.1174
37283OCT     C274566  22.846  20.708  13.861 -0.0359 -0.0044  0.2511
37284OCT     C174567  23.108  18.904   2.886  0.1518  0.2540 -0.1615
37284OCT     C274568  22.776  18.722   2.639  0.0567  0.0685  0.1014
37285OCT     C174569  22.582  15.570   7.786  0.1551  0.0635 -0.1048
37285OCT     C274570  22.677  15.421   7.371 -0.0030 -0.0388  0.2864
37286OCT     C174571  17.776  12.741  20.184  0.0029 -0.0399  0.0207
37286OCT     C274572  17.364  12.744  19.900  0.1225 -0.2214  0.1309
37287OCT     C174573   2.837   7.217   9.225 -0.2041 -0.3100 -0.4174
37287OCT     C274574   3.061   7.522   9.548 -0.1799 -0.4037  0.0614
37288OCT     C174575  13.804   9.079  10.447  0.1537 -0.0615  0.3332
37288OCT     C274576  13.913   9.175  10.884 -0.0729 -0.1005 -0.0132
37289OCT     C174577  16.065   1.170  21.495 -0.2437  0.3637 -0.0149
37289OCT     C274578  15.815   1.099  21.913  0.2606  0.0800  0.3022
37290OCT     C174579   5.841  16.410  21.995 -0.3097  0.1328  0.0844
37290OCT     C274580   6.173  16.599  22.244  0.0051 -0.0618  0.0461
37291OCT     C174581  11.295   7.334   2.887 -0.2046 -0.0779  0.0226
37291OCT     C274582  11.138   7.188   2.436 -0.0721 -0.2169 -0.2192
37292OCT     C174583   0.944   7.157  12.594 -0.3050 -0.0877 -0.0422
37292OCT     C274584   0.518   7.002  12.638  0.2240  0.0487  0.2328
37293OCT     C174585  16.053  11.350   8.123 -0.3034 -0.0727 -0.0333
37293OCT     C274586  16.234  10.952   7.921  0.0459  0.0072 -0.0881
37294OCT     C174587   3.350   3.981   8.208  0.2941  0.0139 -0.2419
37294OCT     C274588   3.400   3.807   7.792 -0.0715 -0.1905 -0.1576
37295OCT     C174589   6.435  18.884  16.736  0.0798  0.2147  0.2914
37295OCT     C274590   6.587  19.073  17.145  0.0152 -0.2244  0.2456
37296OCT     C174591  11.505  16.399   9.498  0.0989  0.0738  0.1990
37296OCT     C274592  11.560  16.744   9.129  0.0347 -0.0183 -0.3739
37297OCT     C174593  11.636  16.605   0.340 -0.0392  0.3457  0.3257
37297OCT     C274594  11.260  16.836   0.584 -0.2794 -0.1664 -0.1759
37298OCT     C174595   8.066   6.214   4.100  0.3693 -0.0763 -0.1118
37298OCT     C274596   8.008   5.995   4.498  0.2160 -0.0121  0.0679
37299OCT     C174597  17.086   8.337  10.300  0.1710 -0.0422 -0.1805
37299OCT     C274598  16.672   8.248  10.370 -0.2043  0.3650 -0.0254
37300OCT     C174599  14.965  22.223  22.657 -0.1116  0.1980 -0.2430
37300OCT     C274600  15.255  22.169  23.058  0.1203  0.7623  0.0599
37301OCT     C174601  23.385   8.921  11.578  0.2739  0.0374 -0.2099
37301OCT     C274602   0.094   8.851  11.391  0.0539 -0.1574  0.0855
37302OCT     C174603   4.748  18.190  21.218  0.1360  0.0799  0.5084
37302OCT     C274604   4.993  18.538  21.124  0.1124 -0.1146 -0.0564
37303OCT     C174605  15.248  14.261  17.483  0.1004  0.1485 -0.0145
37303OCT     C274606  14.955  14.573  17.642 -0.3624  0.0790  0.1753
37304OCT     C174607  19.790   1.433  14.179  0.2976  0.0042 -0.1771
37304OCT     C274608  19.790   1.320  14.686 -0.3043  0.3274  0.0361
37305OCT     C174609  20.274  17.902  16.706  0.2853 -0.0316  0.0572
37305OCT     C274610  20.185  18.313  16.829 -0.0233 -0.0910 -0.0241
37306OCT     C174611  11.442   0.696   3.376 -0.1898 -0.4521  0.0776
37306OCT     C274612  11.547   0.819   2.934  0.2994 -0.2416  0.6124
37307OCT     C174613   9.870  18.048  17.778  0.2662 -0.0006  0.0424
37307OCT     C274614  10.066  17.725  18.083  0.1533 -0.0800 -0.0393
37308OCT     C174615   1.088   0.899  16.629 -0.0377  0.2392  0.1347
37308OCT     C274616   1.193   1.054  16.198  0.0967 -0.0282  0.0091
37309OCT     C174617   8.312  14.458   9.321 -0.3185 -0.1544 -0.2088
37309OCT     C274618   8.306  14.158   9.648 -0.0758 -0.0754  0.2941
37310OCT     C174619  23.041   8.660  17.498  0.1150 -0.4286  0.0836
37310OCT     C274620  23.369   8.619  17.227 -0.1015 -0.0462  0.2055
37311OCT     C174621  20.726   4.892   2.749 -0.2575 -0.1849  0.0149
37311OCT     C274622  20.760   4.427   2.674  0.0619 -0.2940  0.3922
37312OCT     C174623   0.938   9.283   7.294  0.3059 -0.0574 -0.1989
37312OCT     C274624   0.758   9.621   7.014 -0.2814  0.1028  0.1898
37313OCT     C174625  18.807   3.529   3.732 -0.1913 -0.2710 -0.1998
37313OCT     C274626  18.959   3.555   3.274 -0.2224  0.2426 -0.0770
37314OCT     C174627  17.659  12.751   4.243 -0.1500  0.1576 -0.2609
37314OCT     C274628  17.988  12.971   4.058 -0.0984 -0.0159 -0.2851
37315OCT     C174629  12.341   6.364  13.778 -0.1053  0.0353 -0.0869
37315OCT     C274630  12.339   6.696  13.386  0.0264  0.1768  0.0873
37316OCT     C174631  22.051  21.710   1.907  0.0152  0.2709 -0.1184
37316OCT     C274632  22.300  21.826   2.203 -0.0921 -0.1843 -0.3854
37317OCT     C174633  21.466   2.070  15.168  0.1240  0.0425  0.2616
37317OCT     C274634  21.615   2.400  14.857  0.0898 -0.0815 -0.1239
37318OCT     C174635   7.079  23.099  19.778  0.2545  0.2524 -0.0854
37318OCT     C274636   7.178  23.596  19.671 -0.0929  0.1514 -0.1638
37319OCT     C174637  20.510  21.325   4.008 -0.0268  0.0338  0.1867
37319OCT     C274638  20.274  21.065   4.304 -0.0429  0.4202 -0.0403
37320OCT     C174639  10.085   2.788  10.662  0.1757  0.0473  0.6618
37320OCT     C274640   9.748   2.496  10.595 -0.1448 -0.1975 -0.5244
37321OCT     C174641   8.930   1.872   3.778  0.1526 -0.2083  0.2087
37321OCT     C274642   9.123   2.003   4.161  0.3165 -0.1252 -0.1334
37322OCT     C174643  19.601  14.948  13.621  0.0554  0.0447 -0.3426
37322OCT     C274644  19.356  15.025  14.029  0.1028  0.0927  0.3142
37323OCT     C174645   2.008  21.594   9.926  0.0132  0.3116 -0.2807
37323OCT     C274646   1.847  21.969   9.740 -0.4730 -0.0713 -0.0832
37324OCT     C174647  12.675   3.607   5.363 -0.0019  0.1747  0.2456
37324OCT     C274648  12.684   3.307   4.959 -0.0112  0.0807 -0.2116
37325OCT     C174649   6.657  21.929  10.106  0.1976 -0.2063 -0.0202
37325OCT     C274650   6.875  21.911   9.648 -0.2056 -0.1552 -0.2981
37326OCT     C174651   9.860  22.579   4.795 -0.2167 -0.0506 -0.2991
37326OCT     C274652   9.547  22.306   4.574  0.1893  0.1856  0.0091
37327OCT     C174653  20.929  18.536  15.119 -0.0710  0.1235  0.1709
37327OCT     C274654  20.928  18.817  14.729 -0.1585  0.1257 -0.1329
37328OCT     C174655   8.869  16.454   7.467  0.0068 -0.2600 -0.0892
37328OCT     C274656   8.928  16.302   7.023 -0.1541 -0.1453  0.0380
37329OCT     C174657  13.048  13.370  10.329 -0.0639 -0.0450 -0.0310
37329OCT     C274658  13.343  13.127  10.023 -0.2215  0.0399  0.1061
37330OCT     C174659  21.054   4.828  19.560  0.1147  0.4241  0.1566
37330OCT     C274660  21.485   4.780  19.327  0.0774  0.0234 -0.1246
37331OCT     C174661   4.363   6.225  10.771  0.0163  0.0021  0.1995
37331OCT     C274662   4.712   5.952  10.657 -0.0819  0.1603 -0.0994
37332OCT     C174663  18.382   9.038  10.131  0.0182  0.0534  0.2696
37332OCT     C274664  17.989   8.834  10.260  0.0349  0.0107 -0.0698
37333OCT     C174665  21.632  15.907   3.915  0.0885  0.2933  0.3264
37333OCT     C274666  21.483  15.514   3.718  0.0306 -0.0729  0.1461
37334OCT     C174667  14.317  10.471   2.594  0.0143  0.1164  0.2153
37334OCT     C274668  14.394  10.962   2.552 -0.0792 -0.1047 -0.2150
37335OCT     C174669   5.291  11.914  20.270 -0.3225  0.1959 -0.1449
37335OCT     C274670   5.509  11.481  20.206  0.1796  0.0244  0.0280
37336OCT     C174671   2.946  22.935  18.270 -0.0507  0.4332  0.1891
37336OCT     C274672   3.212  22.903  18.640 -0.0167  0.1234 -0.3356
37337OCT     C174673   9.840  21.498   4.661  0.0961 -0.2105  0.4705
37337OCT     C274674   9.601  21.235   4.309 -0.0186 -0.1366 -0.2430
37338OCT     C174675   3.712  17.738  16.015 -0.3201 -0.3191 -0.1075
37338OCT     C274676   4.171  17.880  15.918 -0.2367 -0.2228 -0.0181
37339OCT     C174677   5.113  15.681  16.906  0.0660 -0.2262  0.1771
37339OCT     C274678   5.018  15.254  16.782 -0.0731  0.1095 -0.2239
37340OCT     C174679  11.237   0.145   9.743 -0.1796  0.0272  0.2408
37340OCT     C274680  11.374   0.367   9.320  0.1388 -0.1897  0.3338
37341OCT     C174681  22.357  22.047   8.311 -0.4396 -0.2582  0.1339
37341OCT     C274682  22.472  21.758   8.615  0.2448  0.0484  0.0277
37342OCT     C174683   8.583  18.575  22.733  0.1603 -0.0526  0.0745
37342OCT     C274684   8.538  18.359  23.128  0.1175  0.1222 -0.0911
37343OCT     C174685  16.918   7.016  13.780 -0.1419  0.3257  0.0054
37343OCT     C274686  17.073   7.416  13.992 -0.2219  0.3017  0.1630
37344OCT     C174687   0.201  17.052   9.557  0.0791 -0.0888  0.6520
37344OCT     C274688   0.148  17.466   9.763  0.0461 -0.1085  0.3480
37345OCT     C174689   8.199  11.891  19.821 -0.1883 -0.0615  0.0901
37345OCT     C274690   8.233  12.254  19.508  0.0356  0.0969  0.1632
37346OCT     C174691  10.205  18.196   3.888 -0.0817  0.2922  0.4981
37346OCT     C274692  10.012  18.257   3.400 -0.4640  0.2516  0.0915
37347OCT     C174693  23.366  20.580  21.542  0.1448 -0.0476  0.0223
37347OCT     C274694  23.311  20.733  21.991  0.2223 -0.2930  0.1882
37348OCT     C174695  21.427  13.845   9.511 -0.0716 -0.2158 -0.0440
37348OCT     C274696  21.688  13.820   9.134  0.0212  0.2076  0.3125
37349OCT     C174697  16.200  20.869   3.508 -0.0742  0.2168  0.5201
37349OCT     C274698  15.914  21.138   3.343  0.1397 -0.5256  0.4462
37350OCT     C174699  19.644   9.938   9.566  0.3434 -0.0054  0.2276
37350OCT     C274700  19.706   9.960   9.083 -0.3282  0.2150  0.0443
37351OCT     C174701  22.701   4.865  10.277 -0.0686  0.1679  0.1098
37351OCT     C274702  22.684   4.523   9.997 -0.0844  0.0317  0.1423
37352OCT     C174703  10.298   2.716  16.931  0.0279 -0.1815  0.0801
37352OCT     C274704  10.491   2.436  17.312  0.1382  0.0388 -0.0843
37353OCT     C174705   1.813   6.516   7.638  0.0829 -0.0718  0.0438
37353OCT     C274706   1.355   6.687   7.655 -0.2687 -0.3704 -0.3643
37354OCT     C174707   2.638   7.664   5.127  0.1278  0.2302 -0.1671
37354OCT     C274708   2.674   7.324   4.774  0.2197 -0.1276  0.0022
37355OCT     C174709  18.679   8.715  20.222  0.1247  0.1514  0.0403
37355OCT     C274710  18.232   8.690  20.311 -0.3152 -0.2635 -0.1066
37356OCT     C174711  19.287   5.003   8.678  0.1220 -0.2502  0.1150
37356OCT     C274712  19.444   5.275   9.017  0.2642 -0.0836 -0.5374
37357OCT     C174713  21.522  20.965  16.581  0.4073 -0.3164 -0.3180
37357OCT     C274714  21.357  21.432  16.617  0.1163  0.2472 -0.1448
37358OCT     C174715   9.778  21.722  23.348 -0.1018  0.3826 -0.0309
37358OCT     C274716   9.742  21.272  23.446 -0.3495 -0.1571 -0.2507
37359OCT     C174717  19.267  23.632   9.939  0.1089  0.1928  0.3583
37359OCT     C274718  19.382  23.245  10.149 -0.1590  0.0754  0.1954
37360OCT     C174719  13.012  17.157  15.174 -0.0563 -0.2257 -0.1201
37360OCT     C274720  12.769  17.535  14.983  0.1988 -0.1555 -0.0278
37361OCT     C174721  18.424  22.298   0.299 -0.0258  0.1155 -0.2820
37361OCT     C274722  17.971  22.397   0.337 -0.0295 -0.0743  0.0713
37362OCT     C174723  18.409   2.224  12.669  0.2707  0.5082 -0.1193
37362OCT     C274724  17.982   1.971  12.544 -0.0356  0.0174 -0.1013
37363OCT     C174725  15.159   3.995  21.240  0.0384 -0.1628  0.5006
37363OCT     C274726  15.358   4.294  21.594 -0.0192 -0.1845  0.0525
37364OCT     C174727   8.346   1.112  12.081 -0.1842  0.2955 -0.1581
37364OCT     C274728   8.403   0.995  11.648 -0.0038 -0.3400  0.1303
37365OCT     C174729  10.795  14.544  20.405 -0.0599 -0.3317  0.1605
37365OCT     C274730  11.146  14.874  20.364 -0.0003  0.1212 -0.2655
37366OCT     C174731  16.754  14.451   9.455  0.2513 -0.1315  0.2039
37366OCT     C274732  16.528  14.782   9.649 -0.0509  0.0119 -0.3573
37367OCT     C174733  18.921  15.921   5.040 -0.1177 -0.0029 -0.0079
37367OCT     C274734  19.303  16.144   5.061 -0.1150  0.4718 -0.6694
37368OCT     C174735  19.489  17.929  14.192 -0.4105  0.2254  0.2651
37368OCT     C274736  19.908  18.115  14.209 -0.3934 -0.0645  0.2390
37369OCT     C174737   9.631  20.950  14.047 -0.0456  0.1468  0.2260
37369OCT     C274738   9.809  21.302  14.237 -0.1271 -0.0545  0.0711
37370OCT     C174739  10.817   3.171   8.335 -0.1559 -0.1362 -0.0551
37370OCT     C274740  10.497   3.528   8.445 -0.4276 -0.2630  0.1344
37371OCT     C174741  17.439  19.175   4.116  0.1311 -0.1906 -0.0228
37371OCT     C274742  17.025  19.067   3.976  0.2804 -0.2552  0.0112
37372OCT     C174743   1.622   2.467  11.122 -0.5406 -0.0158  0.1706
37372OCT     C274744   1.810   2.046  11.000 -0.0652 -0.1242 -0.0834
37373OCT     C174745  22.244  17.963  10.539  0.0384 -0.1059 -0.2367
37373OCT     C274746  22.137  18.380  10.475  0.0242 -0.3018  0.3111
37374OCT     C174747  14.028   0.879   8.835  0.1521  0.2484  0.4676
37374OCT     C274748  13.904   1.271   9.036  0.2072 -0.3068  0.0364
37375OCT     C174749  20.781   8.137  11.599  0.0355  0.0385  0.1893
37375OCT     C274750  20.830   8.068  11.102  0.0030 -0.1938 -0.1985
37376OCT     C174751  22.398  10.300   1.729  0.2013 -0.1727 -0.2605
37376OCT     C274752  22.549  10.124   2.141 -0.1495  0.3812 -0.0475
37377OCT     C174753  11.507  16.359   0.916 -0.0622  0.3555  0.0008
37377OCT     C274754  11.671  16.413   1.343  0.0920 -0.1139 -0.0260
37378OCT     C174755   5.893   8.096   6.250  0.5171 -0.0833 -0.1400
37378OCT     C274756   5.718   8.340   6.616 -0.0582  0.1935 -0.1765
37379OCT     C174757  20.900   2.977   8.731 -0.0963  0.2453 -0.1480
37379OCT     C274758  21.206   2.747   8.547 -0.2226  0.1275  0.0803
37380OCT     C174759  22.114  10.251   2.676  0.1036  0.0983  0.1608
37380OCT     C274760  22.513  10.411   2.605  0.0921  0.3951 -0.0194
37381OCT     C174761  21.112  20.925   0.801 -0.0071  0.2232  0.3794
37381OCT     C274762  20.967  20.596   0.945  0.2750  0.0716 -0.0593
37382OCT     C174763  21.456  21.762  18.931  0.2919  0.4537 -0.1772
37382OCT     C274764  21.097  21.966  19.143  0.0159  0.0845 -0.1795
37383OCT     C174765  18.073  14.317   8.067 -0.4375  0.1076 -0.0624
37383OCT     C274766  17.822  14.159   7.701 -0.0417 -0.4053 -0.0247
37384OCT     C174767  19.338  12.189  14.413 -0.2743  0.2248 -0.0253
37384OCT     C274768  19.184  12.052  14.818  0.1126 -0.2184  0.4472
37385OCT     C174769  12.810   2.523   9.984 -0.2197  0.0004 -0.1280
37385OCT     C274770  13.037   2.713   9.598 -0.0360  0.3651 -0.2849
37386OCT     C174771  23.126   0.378  12.551 -0.0713 -0.2688 -0.1824
37386OCT     C274772  23.533   0.649  12.403 -0.0007  0.1978  0.0685
37387OCT     C174773   6.511  23.063  18.028 -0.5363 -0.2653 -0.0545
37387OCT     C274774   6.755  22.765  17.812 -0.3709  0.0499  0.1058
37388OCT     C174775   5.355  21.268   6.531  0.0071  0.5258 -0.0706
37388OCT     C274776   4.983  21.442   6.245 -0.0360 -0.1631  0.0315
37389OCT     C174777  17.012  21.491   0.729  0.1011  0.0760  0.3525
37389OCT     C274778  17.203  21.264   1.131 -0.0407 -0.3151  0.0574
37390OCT     C174779   2.203  14.770   0.119  0.0168 -0.4024 -0.0949
37390OCT     C274780   2.206  15.060   0.544 -0.1705  0.3320 -0.0746
37391OCT     C174781   3.633   3.700  19.540  0.2325 -0.2579  0.0202
37391OCT     C274782   3.941   3.992  19.269  0.5907  0.3514  0.3968
37392OCT     C174783   5.436  18.117  21.880  0.1588  0.1519  0.2866
37392OCT     C274784   5.326  17.729  21.714 -0.0638  0.2391 -0.1139
37393OCT     C174785   9.237  19.348  16.397 -0.3355 -0.2457 -0.0107
37393OCT     C274786   8.922  19.233  16.054  0.2319 -0.2111 -0.1222
37394OCT     C174787   1.484   7.237  15.378 -0.0496 -0.0326 -0.0167
37394OCT     C274788   1.755   6.871  15.473  0.1713 -0.2390 -0.0176
37395OCT     C174789   6.166  11.207  17.804 -0.1891 -0.1443  0.1719
37395OCT     C274790   6.464  11.047  18.089  0.1740 -0.2245  0.1468
37396OCT     C174791  20.265  16.628   8.198 -0.1047  0.2352 -0.2439
37396OCT     C274792  20.457  16.753   8.599 -0.3250  0.1278  0.0829
37397OCT     C174793   0.238  11.203   4.902 -0.0676 -0.0882 -0.0391
37397OCT     C274794   0.037  11.105   4.563  0.1191  0.1114  0.0451
37398OCT     C174795  14.157  23.269   8.938  0.0194 -0.1829  0.1178
37398OCT     C274796  14.222  23.288   8.473  0.2633  0.1216  0.1495
37399OCT     C174797  15.213  21.896  10.328 -0.3852  0.0789 -0.5159
37399OCT     C274798  15.251  21.770   9.913  0.1593 -0.0600 -0.1566
37400OCT     C174799  11.812  10.097  16.736  0.0303  0.0297 -0.0491
37400OCT     C274800  11.343  10.240  16.480 -0.3333  0.2239  0.0989
37401OCT     C174801   1.675  12.143  14.516 -0.2156  0.1350  0.3190
37401OCT     C274802   1.348  12.227  14.853 -0.3681  0.2302  0.4390
37402OCT     C174803  23.438  22.131   0.085 -0.1269  0.2285 -0.0820
37402OCT     C274804  23.273  21.844   0.443 -0.1979 -0.0065 -0.1027
37403OCT     C174805  22.701  18.543   3.112 -0.1677 -0.0432  0.0122
37403OCT     C274806  22.629  18.221   3.433  0.2012  0.1480 -0.1603
37404OCT     C174807  17.861  13.670   0.218 -0.1877  0.3550  0.0885
37404OCT     C274808  18.223  13.293   0.140  0.1748 -0.0540  0.1115
37405OCT     C174809  14.262   6.952  20.596  0.1065  0.1256  0.0656
37405OCT     C274810  14.677   6.780  20.689  0.0211 -0.0066  0.3912
37406OCT     C174811  20.433  18.464  15.852  0.1438  0.0964 -0.1342
37406OCT     C274812  20.527  18.525  15.346  0.1293  0.0515  0.0717
37407OCT     C174813  18.882   7.197   6.763 -0.3924 -0.0972  0.3118
37407OCT     C274814  18.509   7.171   7.068 -0.3150  0.1956 -0.3614
37408OCT     C174815   9.041  23.401  20.627  0.2994  0.0660  0.2564
37408OCT     C274816   8.891  22.991  20.380  0.0398 -0.2862  0.1906
37409OCT     C174817  14.621   2.071   1.347 -0.2052 -0.0264  0.1395
37409OCT     C274818  14.821   1.872   1.662  0.2545  0.1435 -0.2411
37410OCT     C174819   0.421  20.791  10.430  0.0813 -0.0161  0.1416
37410OCT     C274820   0.553  21.175  10.199  0.3415 -0.0725  0.0099
37411OCT     C174821  21.211  16.501  14.250  0.2283 -0.1160 -0.0741
37411OCT     C274822  20.821  16.258  14.380  0.2369 -0.2143  0.2062
37412OCT     C174823  10.208   6.038   5.799  0.3209  0.4393 -0.2054
37412OCT     C274824  10.030   6.272   5.490 -0.0305 -0.1198 -0.2033
37413OCT     C174825   6.424  17.486  14.482  0.0119 -0.2065 -0.0044
37413OCT     C274826   6.529  17.776  14.843  0.0557  0.0521  0.1092
37414OCT     C174827  12.679   4.641  19.280  0.0313 -0.0100  0.1891
37414OCT     C274828  12.907   4.330  19.007  0.1631  0.0219 -0.3897
37415OCT     C174829   5.528   5.939  22.386 -0.0657 -0.2986 -0.1671
37415OCT     C274830   5.470   6.367  22.562 -0.6307 -0.4122  0.0925
37416OCT     C174831   1.484  14.941   6.965  0.0057  0.1024 -0.2161
37416OCT     C274832   1.840  14.982   7.321 -0.1305  0.0579  0.3626
37417OCT     C174833  10.865   5.178   5.377  0.0469 -0.0267  0.2540
37417OCT     C274834  10.559   5.263   5.764 -0.0406 -0.0565 -0.0666
37418OCT     C174835   1.880  13.887  10.310  0.2850 -0.1498  0.4033
37418OCT     C274836   1.457  13.938  10.073  0.0308  0.1821 -0.0328
37419OCT     C174837  22.697  22.531  12.550 -0.2932  0.0797  0.0106
37419OCT     C274838  23.083  22.592  12.764  0.0035 -0.2362 -0.0610
37420OCT     C174839   0.288  15.673  16.142 -0.0327 -0.2670 -0.1753
37420OCT     C274840   0.523  16.013  15.931 -0.3116  0.2227 -0.0921
37421OCT     C174841   2.525  11.570   2.075 -0.0501  0.0548  0.0670
37421OCT     C274842   2.807  11.945   2.067 -0.3678  0.0794  0.0960
37422OCT     C174843  21.187  19.386   3.085 -0.3256 -0.2823 -0.0303
37422OCT     C274844  20.862  19.270   3.379  0.1774  0.0062 -0.0856
37423OCT     C174845  22.965   8.311  11.140 -0.0755 -0.0223  0.1600
37423OCT     C274846  23.396   8.485  11.149 -0.1869 -0.5518  0.1253
37424OCT     C174847   0.035   0.507   0.468 -0.2492  0.3172  0.3463
37424OCT     C274848   0.241   0.916   0.277 -0.0208  0.2711 -0.0286
37425OCT     C174849   3.816   4.722  16.526 -0.0414 -0.2687 -0.0893
37425OCT     C274850   4.011   5.112  16.577  0.0349  0.1073  0.0326
37426OCT     C174851  16.616  11.565  16.107  0.1907  0.0597  0.3600
37426OCT     C274852  16.788  11.126  15.994  0.3536 -0.1401 -0.3563
37427OCT     C174853  12.208   9.005   3.531  0.0282 -0.0260 -0.3682
37427OCT     C274854  12.271   8.666   3.899 -0.4539 -0.1246 -0.0432
37428OCT     C174855  17.746   7.082   8.096 -0.1004 -0.0057 -0.1925
37428OCT     C274856  17.945   7.375   8.408  0.0979 -0.2122  0.2461
37429OCT     C174857  22.772  22.455  18.593  0.0802  0.1636  0.0324
37429OCT     C274858  22.608  22.912  18.483  0.1020  0.0330 -0.0317
37430OCT     C174859   8.409  10.129  15.034 -0.0315  0.0183  0.1675
37430OCT     C274860   8.090  10.369  14.778  0.1628  0.0770  0.0775
37431OCT     C174861   4.903  10.632  11.521  0.1605  0.0252  0.2043
37431OCT     C274862   4.987  11.005  11.210  0.2661 -0.0432  0.1698
37432OCT     C174863  23.208  19.214  14.338 -0.4152 -0.1072 -0.1618
37432OCT     C274864  22.973  19.028  13.958  0.2169 -0.1602  0.3852
37433OCT     C174865   8.037  15.610  11.233 -0.2556 -0.3529  0.0149
37433OCT     C274866   8.351  15.866  11.462 -0.4130 -0.0663 -0.1028
37434OCT     C174867   1.437   0.177   7.953 -0.1695  0.2862 -0.4968
37434OCT     C274868   1.754  23.627   7.828 -0.1401  0.0786 -0.1066
37435OCT     C174869   8.815  17.708  22.204  0.0023 -0.0884  0.0798
37435OCT     C274870   9.057  18.000  21.971  0.1706 -0.0366 -0.0781
37436OCT     C174871  14.351   0.172  22.323  0.1809  0.2689 -0.0082
37436OCT     C274872  14.749   0.142  22.077 -0.2720  0.0773 -0.1656
37437OCT     C174873  18.080  14.003   4.228 -0.1312 -0.1452 -0.0773
37437OCT     C274874  17.911  13.787   3.824 -0.1802 -0.1525 -0.0718
37438OCT     C174875  11.710  22.546  10.609 -0.0725 -0.1369 -0.3020
37438OCT     C274876  12.111  22.565  10.832 -0.2683  0.2548 -0.2426
37439OCT     C174877   5.546   0.127   1.165  0.0818 -0.0938  0.2205
37439OCT     C274878   5.804  23.733   0.828 -0.0438  0.0247 -0.0336
37440OCT     C174879  20.557   2.110   6.794  0.0746 -0.3373 -0.3438
37440OCT     C274880  20.294   1.750   6.699  0.2683 -0.1880 -0.0035
37441OCT     C174881  19.536  18.681   6.587 -0.2043  0.3000  0.3180
37441OCT     C274882  19.786  19.037   6.303 -0.0652  0.0525 -0.0468
37442OCT     C174883  21.900  16.748  17.296 -0.1077  0.4564 -0.1200
37442OCT     C274884  21.828  16.614  16.913 -0.2386 -0.0802  0.3029
37443OCT     C174885  20.899   7.358  23.726  0.1123  0.0642 -0.2586
37443OCT     C274886  21.224   7.674   0.117 -0.0545  0.0023 -0.3826
37444OCT     C174887   8.123  19.419  11.463  0.3346  0.0318  0.1652
37444OCT     C274888   7.950  19.544  11.911  0.3468  0.0211  0.0615
37445OCT     C174889  16.527  20.269  17.430 -0.0726  0.0920 -0.1483
37445OCT     C274890  16.270  19.858  17.270  0.1124  0.0225 -0.1757
37446OCT     C174891  15.530  12.001  22.669  0.0234 -0.0968  0.0581
37446OCT     C274892  15.841  12.429  22.687  0.0348  0.2691 -0.2507
37447OCT     C174893  16.471  13.915  12.584 -0.0260 -0.3318 -0.1236
37447OCT     C274894  16.420  13.852  13.028 -0.1952 -0.2997  0.1678
37448OCT     C174895  14.881   7.370  17.570 -0.0705  0.0228  0.2944
37448OCT     C274896  14.585   7.459  17.173  0.2276  0.1139 -0.2628
37449OCT     C174897  18.971   7.082   9.658 -0.1685 -0.0977  0.1351
37449OCT     C274898  19.228   6.818   9.827 -0.0272 -0.0932  0.1756
37450OCT     C174899  15.336   2.150  15.086 -0.1081 -0.1265 -0.2596
37450OCT     C274900  14.897   2.298  15.001 -0.2417  0.4337 -0.2806
37451OCT     C174901   2.179  22.312   6.398  0.1136  0.2232 -0.0114
37451OCT     C274902   2.001  21.871   6.196 -0.3300  0.2176 -0.0534
37452OCT     C174903  12.372  21.966  19.771 -0.1616  0.0507 -0.0685
37452OCT     C274904  12.063  22.161  19.449  0.0031  0.0557 -0.0141
37453OCT     C174905   5.441  12.629   3.833 -0.0300 -0.1588 -0.0996
37453OCT     C274906   5.675  13.048   3.724 -0.0171 -0.2202 -0.3646
37454OCT     C174907  12.718   5.626  22.165  0.1472  0.0248  0.2411
37454OCT     C274908  12.514   5.673  21.780 -0.4900  0.0139  0.0050
37455OCT     C174909  14.246   9.093  19.008 -0.2216  0.2092 -0.1807
37455OCT     C274910  14.435   8.826  18.650  0.0784  0.1796  0.0918
37456OCT     C174911   1.499  15.423  10.804 -0.0847 -0.1179  0.0387
37456OCT     C274912   1.288  15.701  10.529 -0.1135  0.0511  0.0609
37457OCT     C174913  20.591  19.213  22.271  0.3353 -0.0521 -0.2327
37457OCT     C274914  20.129  19.360  22.311  0.2852 -0.2160 -0.0228
37458OCT     C174915  15.914  22.677  10.581  0.0100  0.1845 -0.1194
37458OCT     C274916  16.042  22.341  10.278 -0.4297  0.2284  0.0858
37459OCT     C174917  11.987  10.130  21.350 -0.1933  0.0120  0.3773
37459OCT     C274918  11.973   9.645  21.301 -0.0246 -0.0608 -0.0603
37460OCT     C174919  13.589   9.489  23.448 -0.1565 -0.0109 -0.0815
37460OCT     C274920  13.870   9.679  23.110 -0.4081  0.1160 -0.0354
37461OCT     C174921   4.195   3.659  11.768  0.0460 -0.1605  0.0316
37461OCT     C274922   4.666   3.661  11.663 -0.2790 -0.2306  0.0210
37462OCT     C174923   9.561  19.234  11.237 -0.5857 -0.0188  0.1235
37462OCT     C274924   9.811  19.041  10.860 -0.3088 -0.0353 -0.0392
37463OCT     C174925   1.778   0.142  22.229 -0.1550  0.3021  0.0465
37463OCT     C274926   1.961  23.685  22.614 -0.1449 -0.1695 -0.1215
37464OCT     C174927   9.964  20.441  11.489 -0.3633  0.0280  0.0020
37464OCT     C274928  10.332  20.507  11.742  0.0735 -0.1929 -0.1290
37465OCT     C174929   0.868  17.298  16.242  0.2944  0.0818 -0.0269
37465OCT     C274930   0.890  17.192  16.743 -0.2421 -0.1317 -0.2194
37466OCT     C174931  14.779   9.671   1.200 -0.0928 -0.1611  0.3140
37466OCT     C274932  14.709   9.431   1.566 -0.3122 -0.1893  0.5582
37467OCT     C174933  19.694   8.351   6.009  0.0615  0.0201 -0.1854
37467OCT     C274934  19.444   7.909   5.987 -0.0403 -0.0784  0.4657
37468OCT     C174935   6.110   9.827   8.182  0.1194  0.2621  0.2225
37468OCT     C274936   6.487  10.069   8.172 -0.2896  0.2484 -0.0422
37469OCT     C174937  21.961   9.944   1.544  0.1956 -0.0690 -0.4149
37469OCT     C274938  22.053   9.537   1.835  0.4018  0.1944  0.2843
37470OCT     C174939  15.293  15.795   2.290 -0.2316 -0.2261 -0.2125
37470OCT     C274940  15.719  15.767   2.122  0.0633 -0.3923 -0.1483
37471OCT     C174941  12.784   6.197  10.107 -0.3644 -0.0284  0.0138
37471OCT     C274942  13.208   6.103  10.283  0.1908  0.1265 -0.2289
37472OCT     C174943  13.229  20.915  16.425 -0.1602  0.1795 -0.1110
37472OCT     C274944  12.967  21.007  16.802 -0.0547  0.2324  0.1105
37473OCT     C174945  16.629   4.449  12.112  0.0576  0.1430 -0.1477
37473OCT     C274946  16.468   4.842  11.837 -0.1786 -0.2189  0.2220
37474OCT     C174947  12.256  20.001  20.489  0.0831  0.5909  0.3226
37474OCT     C274948  12.406  20.079  20.051 -0.0528  0.5988  0.1631
37475OCT     C174949   5.564  15.064  15.319  0.1731  0.0033  0.1065
37475OCT     C274950   5.459  14.625  15.406  0.1295  0.3047  0.1733
37476OCT     C174951   7.954  22.155   1.289 -0.0983 -0.1504  0.3448
37476OCT     C274952   7.733  21.738   1.122 -0.1592  0.0995  0.1381
37477OCT     C174953  22.624  10.243   9.222 -0.2940 -0.0345 -0.1506
37477OCT     C274954  22.962   9.936   9.166  0.0842 -0.2517  0.0698
37478OCT     C174955  23.186   0.699  23.598 -0.2287  0.1968 -0.6098
37478OCT     C274956  22.868   0.698  23.246 -0.0369  0.2816 -0.0315
37479OCT     C174957   6.750  14.093   6.227 -0.1411 -0.0624 -0.0936
37479OCT     C274958   7.204  14.087   6.394 -0.1979  0.0007 -0.2995
37480OCT     C174959  20.547   5.591   5.523  0.0014 -0.1178 -0.1987
37480OCT     C274960  20.747   5.744   5.140  0.1219 -0.2866  0.1225
37481OCT     C174961   0.770  20.117   1.032 -0.0271 -0.0344 -0.2073
37481OCT     C274962   0.492  20.415   0.894  0.0235 -0.1065  0.0438
37482OCT     C174963   4.460  22.461   8.972  0.0153  0.1254 -0.0991
37482OCT     C274964   4.545  22.044   9.176  0.2735 -0.1939 -0.0340
37483OCT     C174965   6.451  18.538  14.922 -0.1089  0.0334  0.0304
37483OCT     C274966   6.644  18.346  15.329 -0.2283 -0.1181 -0.1381
37484OCT     C174967   3.420   7.288   9.821  0.0175 -0.0148 -0.3141
37484OCT     C274968   3.548   7.716   9.625  0.1774  0.1364 -0.0600
37485OCT     C174969  21.340   3.485  10.110 -0.2001 -0.2772 -0.2344
37485OCT     C274970  21.282   3.469  10.578  0.1265 -0.0259 -0.3203
37486OCT     C174971   7.913   9.684  19.435 -0.1744  0.2657 -0.0630
37486OCT     C274972   8.053  10.063  19.593  0.1929 -0.2998 -0.3453
37487OCT     C174973  10.428   2.377  12.875  0.0470 -0.1624 -0.2357
37487OCT     C274974  10.304   2.808  13.058  0.0229 -0.1507 -0.0862
37488OCT     C174975   9.763  23.731   5.027  0.0308 -0.5810 -0.2042
37488OCT     C274976   9.972  23.338   5.185  0.0828  0.2239 -0.1610
37489OCT     C174977   0.133   1.362  20.083 -0.0104 -0.0201  0.2052
37489OCT     C274978  23.676   1.336  20.518  0.0764  0.1353  0.2227
37490OCT     C174979   6.565  18.052   4.775 -0.0620 -0.1458  0.1152
37490OCT     C274980   6.222  17.707   4.753 -0.1586 -0.1798 -0.1488
37491OCT     C174981  14.130  16.559  21.980 -0.2121 -0.3246 -0.3307
37491OCT     C274982  14.374  16.199  21.977 -0.1207 -0.1662 -0.1296
37492OCT     C174983  20.829  12.995   2.054  0.1796 -0.2008  0.1206
37492OCT     C274984  20.728  13.371   2.263  0.1619 -0.1238  0.0422
37493OCT     C174985  17.897  17.656   8.966  0.0985 -0.0225 -0.0049
37493OCT     C274986  17.595  17.956   9.219 -0.1673 -0.4573 -0.1190
37494OCT     C174987   4.750  11.327  15.899 -0.1172 -0.0161 -0.0532
37494OCT     C274988   4.718  11.781  15.722  0.1844 -0.0949 -0.1062
37495OCT     C174989   9.664  10.567   7.142 -0.3091 -0.1103  0.3993
37495OCT     C274990   9.343  10.201   7.179 -0.1180  0.4217 -0.1837
37496OCT     C174991   3.930   9.037  22.744 -0.0451 -0.0967 -0.1811
37496OCT     C274992   3.922   9.133  22.273  0.0868  0.3185 -0.1609
37497OCT     C174993  13.002   9.820  20.876 -0.2141 -0.1980  0.0792
37497OCT     C274994  13.360   9.841  20.597 -0.0083  0.1926  0.2094
37498OCT     C174995   7.239   5.309  22.565  0.4189 -0.0430 -0.0703
37498OCT     C274996   6.816   5.459  22.372  0.1101  0.0283  0.1335
37499OCT     C174997   0.719   2.420   9.997 -0.2711 -0.0049  0.2125
37499OCT     C274998   0.584   2.306  10.411  0.0796  0.2990 -0.1630
37500OCT     C174999   8.701  11.844  21.565  0.4525 -0.0044  0.1009
37500OCT     C275000   8.956  12.252  21.430 -0.1699 -0.3427 -0.1215
37501OCT     C175001  15.202   4.376  16.981 -0.0030 -0.0746  0.1693
37501OCT     C275002  14.916   4.705  16.938  0.0677 -0.4565 -0.0676
37502OCT     C175003   2.186   1.472   4.557  0.0598  0.1462  0.0815
37502OCT     C275004   2.312   1.581   4.985  0.1615  0.1674 -0.2560
37503OCT     C175005  17.464  13.834   0.499 -0.0649  0.0363  0.4517
37503OCT     C275006  17.148  13.472   0.287  0.0633 -0.1105 -0.0181
37504OCT     C175007   9.459  15.700  10.358  0.5929  0.1509  0.0759
37504OCT     C275008   9.338  16.148  10.145 -0.4819  0.1563  0.4749
37505OCT     C175009   6.543   9.526  23.078 -0.0965 -0.1003  0.0010
37505OCT     C275010   6.514   9.932  22.851  0.3056  0.0581 -0.0104
37506OCT     C175011  17.488  14.337  14.386 -0.1383  0.2596 -0.1594
37506OCT     C275012  17.226  14.491  14.748  0.1295  0.0257 -0.0734
37507OCT     C175013   7.271  14.123  20.009 -0.0428 -0.2436  0.3090
37507OCT     C275014   7.299  14.380  19.599  0.0783  0.0351 -0.0255
37508OCT     C175015   9.655  19.765  12.520 -0.3522 -0.0825 -0.1398
37508OCT     C275016   9.610  19.858  12.924 -0.3253 -0.0125 -0.2490
37509OCT     C175017   5.484  20.449  14.942  0.1296 -0.0074  0.0056
37509OCT     C275018   5.380  20.038  14.771  0.1419 -0.2840  0.5381
37510OCT     C175019  13.694   9.675   0.975  0.0799 -0.2447 -0.0985
37510OCT     C275020  14.016   9.406   1.155  0.0335  0.3884 -0.0845
37511OCT     C175021  19.589  10.848   2.162  0.2584 -0.1013  0.2084
37511OCT     C275022  19.215  10.743   2.405  0.1471 -0.1486  0.0511
37512OCT     C175023   6.209  14.092   8.441  0.4309 -0.3051 -0.1677
37512OCT     C275024   5.972  14.462   8.593  0.1196  0.1233  0.0645
37513OCT     C175025   3.919   6.413  19.058 -0.0348 -0.0839 -0.0140
37513OCT     C275026   4.012   6.184  19.364  0.1887  0.2562 -0.3413
37514OCT     C175027   0.160   8.037   6.818 -0.0886 -0.5443 -0.0187
37514OCT     C275028   0.188   7.786   7.201 -0.1965 -0.0792 -0.0028
37515OCT     C175029  14.636  19.884   4.371  0.2536 -0.2892  0.0444
37515OCT     C275030  14.569  19.548   4.014 -0.4030 -0.0153 -0.0073
37516OCT     C175031  18.696  14.979  10.729  0.1576 -0.0238 -0.2206
37516OCT     C275032  18.668  15.434  10.616  0.3501 -0.0333 -0.1833
37517OCT     C175033   6.388  16.466  15.383 -0.1793  0.2277 -0.1737
37517OCT     C275034   6.251  16.112  15.672 -0.0644 -0.0610 -0.3219
37518OCT     C175035  23.447   8.251   2.259 -0.0154  0.0053  0.0425
37518OCT     C275036  23.331   7.825   1.995  0.2431 -0.1192 -0.4041
37519OCT     C175037  22.672  16.191   7.098  0.1402  0.1362 -0.0989
37519OCT     C275038  22.394  16.280   6.686 -0.0239 -0.2407 -0.0065
37520OCT     C175039   9.727   2.295  16.864 -0.1344  0.3585  0.2056
37520OCT     C275040  10.073   2.371  16.563 -0.0127 -0.1569  0.1405
37521OCT     C175041  22.128   2.121  20.178  0.1183 -0.0508  0.0372
37521OCT     C275042  21.956   1.923  19.779 -0.1739  0.4092 -0.0169
37522OCT     C175043   6.093   4.582  17.149  0.1560  0.1473 -0.0922
37522OCT     C275044   5.785   4.536  17.470  0.0430 -0.0323 -0.0507
37523OCT     C175045  19.447  11.498  17.554 -0.0575  0.0595  0.0866
37523OCT     C275046  19.765  11.146  17.520  0.2385 -0.1191 -0.3431
37524OCT     C175047   5.146  21.752   8.250 -0.1872 -0.1111 -0.1099
37524OCT     C275048   5.244  21.915   8.681 -0.4312  0.0774 -0.0084
37525OCT     C175049  12.534  18.868   3.724 -0.0974  0.1131  0.0920
37525OCT     C275050  12.456  19.270   3.535  0.4573 -0.0319  0.3397
37526OCT     C175051   0.681   1.857   3.004 -0.1389 -0.1302  0.1608
37526OCT     C275052   1.000   1.595   2.819  0.2545  0.3440  0.0932
37527OCT     C175053   3.504  13.227  14.743  0.4023  0.0122  0.2636
37527OCT     C275054   3.233  12.814  14.848 -0.1562  0.3773  0.1828
37528OCT     C175055  16.898  22.711  20.623 -0.1270 -0.2203 -0.1379
37528OCT     C275056  17.149  22.996  20.357 -0.2570 -0.0627  0.1826
37529OCT     C175057  20.361  12.966   0.002 -0.1374 -0.1927  0.3105
37529OCT     C275058  20.603  12.971   0.413  0.2247  0.3453  0.3431
37530OCT     C175059  16.001   8.448  12.940  0.1961 -0.1801 -0.0029
37530OCT     C275060  15.586   8.516  13.225 -0.3005  0.2502  0.0705
37531OCT     C175061  14.590  15.560  21.825 -0.1796 -0.1635 -0.0389
37531OCT     C275062  14.882  15.706  21.470 -0.0394 -0.2067 -0.0200
37532OCT     C175063   1.184  22.231  17.885  0.0565  0.0615  0.2167
37532OCT     C275064   1.052  22.592  17.592  0.1336  0.3322  0.0167
37533OCT     C175065   7.831  22.810  20.949 -0.0673 -0.3109  0.0939
37533OCT     C275066   8.084  22.829  21.288  0.4459 -0.3039 -0.2620
37534OCT     C175067   4.950   3.394  21.460 -0.3067 -0.1903  0.0713
37534OCT     C275068   5.261   3.622  21.691 -0.0506  0.1404  0.1227
37535OCT     C175069  23.450  12.038   8.606  0.0051  0.3391  0.1812
37535OCT     C275070   0.046  11.952   8.903 -0.2831 -0.2944  0.0307
37536OCT     C175071  15.257   2.197   3.062 -0.0724  0.0784  0.2966
37536OCT     C275072  15.295   2.435   3.425  0.1157  0.1693  0.2496
37537OCT     C175073  15.384  20.976  20.007  0.4270  0.2660  0.0218
37537OCT     C275074  15.107  21.305  19.916 -0.1539  0.0415  0.0276
37538OCT     C175075   1.162  22.042   5.626 -0.0611 -0.1338  0.1011
37538OCT     C275076   1.573  22.148   5.402 -0.1133  0.1130  0.1122
37539OCT     C175077  23.424  19.537  17.675 -0.2487 -0.1110 -0.1829
37539OCT     C275078   0.144  19.503  17.825 -0.0660  0.3300 -0.3061
37540OCT     C175079   6.030  17.274  14.294 -0.0550 -0.0789  0.3496
37540OCT     C275080   6.425  17.157  14.127  0.1612  0.1404 -0.0813
37541OCT     C175081  17.471  12.084  15.431  0.1305  0.1108 -0.1234
37541OCT     C275082  17.691  12.491  15.546 -0.1688 -0.0764 -0.0788
37542OCT     C175083  14.152  22.390   5.173 -0.2343  0.2133 -0.3346
37542OCT     C275084  14.169  22.849   5.153 -0.1133 -0.1142  0.1662
37543OCT     C175085  17.165  13.971  22.175  0.0803 -0.2273 -0.1454
37543OCT     C275086  17.141  14.380  22.467 -0.0262  0.0818  0.0690
37544OCT     C175087   1.631  22.960   2.070 -0.3684  0.1125  0.1469
37544OCT     C275088   1.492  22.868   1.614 -0.0424  0.0546 -0.2058
37545OCT     C175089  11.101  10.774   6.839 -0.1502  0.2670 -0.1650
37545OCT     C275090  10.965  11.180   6.977 -0.0891  0.0485 -0.3720
37546OCT     C175091  18.551  15.962   6.391  0.0385  0.0032  0.2972
37546OCT     C275092  18.525  16.402   6.580  0.0170  0.1291 -0.0161
37547OCT     C175093  12.789  15.065  11.724  0.3651  0.1207 -0.2399
37547OCT     C275094  12.912  15.354  11.337 -0.1736  0.0458  0.3398
37548OCT     C175095   7.081  19.165  13.954  0.0575 -0.2939  0.5048
37548OCT     C275096   7.001  19.439  14.351 -0.1596  0.2899 -0.0590
37549OCT     C175097   3.952   5.249   3.423  0.0126 -0.0859  0.2465
37549OCT     C275098   3.833   4.849   3.610 -0.0060  0.1910  0.0068
37550OCT     C175099   0.904  14.532   5.812  0.1152  0.3727  0.0373
37550OCT     C275100   0.579  14.439   5.501 -0.1933 -0.1304  0.0105
37551OCT     C175101  21.580   8.782   8.200  0.0806  0.1421 -0.3663
37551OCT     C275102  21.666   9.213   8.269 -0.0781  0.1274  0.0407
37552OCT     C175103  14.246  23.700  15.891  0.2078 -0.5057  0.0429
37552OCT     C275104  14.485  23.314  16.072  0.1044 -0.0034 -0.0998
37553OCT     C175105   3.179   6.819  16.084 -0.1952  0.4458 -0.1755
37553OCT     C275106   2.747   6.698  15.939 -0.2190 -0.0175  0.3937
37554OCT     C175107  14.707  12.526  12.595  0.1978 -0.3619 -0.0760
37554OCT     C275108  14.435  12.455  12.186  0.2206 -0.1567  0.1756
37555OCT     C175109  12.572  14.306   7.350 -0.0659  0.0708  0.5457
37555OCT     C275110  12.601  14.398   6.878  0.0764  0.4521  0.0473
37556OCT     C175111  10.924   9.087  17.893  0.1910 -0.0032 -0.2570
37556OCT     C275112  10.767   9.518  17.840  0.0196 -0.0285  0.3722
37557OCT     C175113   3.141   4.440  11.859 -0.4179  0.1692 -0.0689
37557OCT     C275114   3.091   4.815  11.591 -0.1538 -0.4031 -0.3349
37558OCT     C175115  19.509  22.715  13.787 -0.0510  0.2763 -0.3669
37558OCT     C275116  19.124  22.537  14.014  0.1199 -0.0358 -0.2537
37559OCT     C175117  22.968   4.594  15.444  0.2100 -0.2838  0.2097
37559OCT     C275118  23.089   4.838  15.056 -0.0706  0.3927 -0.3954
37560OCT     C175119   8.797   8.950  15.966  0.1057  0.0354  0.0638
37560OCT     C275120   8.742   8.593  16.209  0.1996 -0.2049 -0.1184
37561OCT     C175121  18.994  16.330  13.736  0.0872 -0.1365 -0.2843
37561OCT     C275122  18.711  16.493  13.448 -0.2239 -0.1815 -0.0634
37562OCT     C175123  19.080  12.753   4.066  0.2270 -0.0851 -0.0936
37562OCT     C275124  19.538  12.864   4.169 -0.1851 -0.1639  0.0698
37563OCT     C175125  10.688  13.169   8.347  0.1872 -0.3023 -0.1540
37563OCT     C275126  11.000  13.312   8.031  0.0987 -0.2241  0.0176
37564OCT     C175127  19.234   7.871   0.719 -0.1331  0.1325 -0.0319
37564OCT     C275128  19.340   8.130   0.312  0.1246  0.0454  0.1539
37565OCT     C175129  10.951   8.985   2.448  0.0585  0.0773 -0.2425
37565OCT     C275130  10.711   9.042   2.887  0.0510 -0.1319 -0.0365
37566OCT     C175131   3.328   8.348  22.347  0.2949 -0.2198  0.3125
37566OCT     C275132   3.176   8.559  22.718 -0.0223  0.1049  0.1358
37567OCT     C175133  20.516   9.767  20.546  0.1210  0.1834 -0.5160
37567OCT     C275134  20.453  10.223  20.784 -0.3119  0.5052 -0.1148
37568OCT     C175135   2.175   8.235   8.584  0.2198  0.4304 -0.1406
37568OCT     C275136   2.068   7.807   8.579  0.1114 -0.2895 -0.3675
37569OCT     C175137  23.447   0.771   9.767 -0.1398  0.0831  0.4603
37569OCT     C275138  23.036   0.684   9.818  0.0991 -0.2563  0.0975
37570OCT     C175139   7.067   4.332   1.387 -0.0166 -0.1306  0.0064
37570OCT     C275140   7.259   4.322   0.953 -0.3007 -0.0603  0.0800
37571OCT     C175141  19.115   1.522  15.333  0.1093 -0.0329  0.0703
37571OCT     C275142  19.564   1.489  15.505  0.0307 -0.2144 -0.0644
37572OCT     C175143   3.229   0.841   7.103 -0.1016 -0.3804  0.0122
37572OCT     C275144   3.295   0.568   6.701 -0.1605 -0.2786 -0.0962
37573OCT     C175145  17.675   9.244  16.290 -0.1519  0.0857  0.0909
37573OCT     C275146  17.839   9.460  15.915  0.0018  0.0701 -0.1569
37574OCT     C175147   9.657   0.341   3.021  0.0309  0.3597  0.4216
37574OCT     C275148   9.772   0.532   2.653 -0.0711 -0.2149 -0.1847
37575OCT     C175149  23.263  21.005  23.466  0.0761 -0.0816 -0.2236
37575OCT     C275150  23.036  20.951   0.180 -0.0378  0.4166 -0.2248
37576OCT     C175151  16.111  17.062   0.677 -0.1314  0.4587 -0.0162
37576OCT     C275152  16.317  16.656   0.568 -0.4248 -0.0816 -0.0398
37577OCT     C175153  13.708  13.547  13.600 -0.0811  0.1904 -0.0982
37577OCT     C275154  13.792  13.150  13.443  0.0054  0.2775 -0.5727
37578OCT     C175155  22.775   0.928  17.853 -0.0219  0.0275  0.2084
37578OCT     C275156  22.987   0.544  17.991  0.0381  0.2242  0.4162
37579OCT     C175157  20.585   4.033  11.583 -0.0093  0.3041 -0.3906
37579OCT     C275158  20.816   3.711  11.371 -0.0089 -0.2824  0.1053
37580OCT     C175159   3.631   1.711  21.380  0.0627  0.0485  0.2204
37580OCT     C275160   3.815   1.453  21.036 -0.1877 -0.3011 -0.1222
37581OCT     C175161   4.769   3.336  11.147 -0.4515 -0.3310  0.0038
37581OCT     C275162   4.342   3.334  11.371  0.4226  0.1556 -0.0331
37582OCT     C175163   1.066  10.977  11.136 -0.1062  0.1412  0.0494
37582OCT     C275164   1.408  10.880  11.455 -0.2782  0.0664 -0.2447
37583OCT     C175165  13.333  10.298   9.728 -0.3779 -0.1955  0.0496
37583OCT     C275166  13.715  10.465   9.878 -0.3837 -0.0128 -0.2360
37584OCT     C175167   2.674  20.270  11.414 -0.0387 -0.0199 -0.1382
37584OCT     C275168   2.652  20.615  11.065 -0.0318 -0.2554  0.1845
37585OCT     C175169  16.936  14.848  11.715 -0.1009  0.0355 -0.2480
37585OCT     C275170  16.455  14.873  11.547 -0.0724 -0.1993  0.0295
37586OCT     C175171  10.826  17.431   6.547 -0.2779 -0.1781 -0.0489
37586OCT     C275172  10.677  17.406   6.076  0.1840  0.1445 -0.1263
37587OCT     C175173   3.545   5.617  10.545 -0.5533 -0.0406  0.0905
37587OCT     C275174   3.956   5.613  10.279 -0.0785 -0.0644  0.3092
37588OCT     C175175   5.394  18.292  20.746  0.1863  0.0826 -0.1009
37588OCT     C275176   5.694  18.006  20.567 -0.0021 -0.2131 -0.1475
37589OCT     C175177  12.364   1.367  17.255 -0.1293  0.1790 -0.5352
37589OCT     C275178  12.037   1.081  16.973  0.1867 -0.4540  0.2079
37590OCT     C175179   4.932  16.629   6.064  0.3655  0.0309  0.2133
37590OCT     C275180   4.867  16.937   6.397 -0.4013  0.1497  0.1007
37591OCT     C175181  22.254  19.238   9.323 -0.1877  0.0700 -0.0250
37591OCT     C275182  22.655  19.002   9.179  0.4002 -0.1952 -0.4046
37592OCT     C175183   3.714   2.004  23.273  0.4582  0.2995  0.0932
37592OCT     C275184   3.232   1.864  23.177 -0.2006 -0.2434 -0.2418
37593OCT     C175185   9.069   2.287  12.305 -0.1446 -0.0572  0.2211
37593OCT     C275186   9.328   1.904  12.178  0.4266  0.0102  0.1228
37594OCT     C175187  19.626  16.158   3.485  0.0202  0.0073  0.4442
37594OCT     C275188  20.015  15.860   3.391  0.0017 -0.3577 -0.2444
37595OCT     C175189   7.047   9.424   0.665  0.0320  0.1634  0.1620
37595OCT     C275190   6.645   9.662   0.851  0.0376  0.0168  0.0233
37596OCT     C175191   7.407  13.207  16.474  0.0339  0.0202 -0.0985
37596OCT     C275192   7.123  12.965  16.164  0.0290 -0.0633  0.1519
37597OCT     C175193  11.676  16.471   5.840 -0.0994 -0.0168  0.0175
37597OCT     C275194  11.980  16.135   5.760 -0.0332  0.0134  0.2793
37598OCT     C175195  17.080   9.397  19.087  0.1475 -0.1393  0.1887
37598OCT     C275196  17.200   9.564  18.653  0.3412  0.1714  0.1535
37599OCT     C175197   3.984  17.498   1.664  0.1802  0.1862  0.1352
37599OCT     C275198   3.617  17.687   1.429 -0.0384  0.4407  0.0225
37600OCT     C175199  16.730   0.125  12.345 -0.3590  0.3298 -0.2425
37600OCT     C275200  16.316  23.585  12.201 -0.1508 -0.2190 -0.0485
37601OCT     C175201  10.890   7.773   4.842  0.2160 -0.1366 -0.1702
37601OCT     C275202  10.841   8.180   5.122  0.0208  0.1333 -0.0609
37602OCT     C175203   8.531   0.154  10.197  0.1518 -0.1186  0.0566
37602OCT     C275204   8.308   0.606  10.175 -0.1455 -0.0636  0.1284
37603OCT     C175205   0.040  16.886  18.154 -0.0030 -0.1778  0.0712
37603OCT     C275206  23.446  16.775  17.858  0.1177 -0.0696  0.3336
37604OCT     C175207  15.782   4.798   5.381  0.0538  0.1251 -0.1458
37604OCT     C275208  16.124   4.522   5.188  0.1016  0.2419 -0.0476
37605OCT     C175209   0.739  23.093   9.249  0.0726  0.1837 -0.0987
37605OCT     C275210   0.633  23.103   9.707  0.4940  0.0660 -0.1629
37606OCT     C175211  10.878   5.016   6.574  0.1307 -0.2510  0.0990
37606OCT     C275212  10.615   4.680   6.792  0.1419 -0.4280  0.0638
37607OCT     C175213  18.229  18.182  11.296 -0.2283 -0.1556  0.0964
37607OCT     C275214  18.398  18.345  10.918  0.4422 -0.0878 -0.1478
37608OCT     C175215   6.840  15.776  13.078 -0.1872  0.0071  0.0883
37608OCT     C275216   7.064  16.013  12.730  0.4835 -0.2141  0.1066
37609OCT     C175217  11.026  13.632  14.208  0.0933 -0.2912 -0.4368
37609OCT     C275218  10.614  13.778  14.138 -0.0516  0.2681  0.0277
37610OCT     C175219  23.169   3.671  15.441 -0.0356 -0.0158  0.2298
37610OCT     C275220  22.898   3.910  15.173  0.0051  0.2373  0.6301
37611OCT     C175221   0.250  17.250   4.026  0.3110  0.1403  0.3437
37611OCT     C275222   0.061  17.676   3.849  0.0893  0.1578  0.2390
37612OCT     C175223  10.212   8.507  12.539  0.0066  0.1647  0.0576
37612OCT     C275224   9.916   8.887  12.595 -0.4372  0.1712 -0.4994
37613OCT     C175225   8.955  12.380   1.627 -0.2061 -0.0678  0.0115
37613OCT     C275226   9.154  12.720   1.421  0.1530  0.3781 -0.5922
37614OCT     C175227  21.779   0.546  23.268 -0.2913  0.1425  0.2290
37614OCT     C275228  21.417   0.832  23.368  0.0017 -0.2023 -0.3062
37615OCT     C175229   8.441  10.499  22.501  0.4579  0.0190 -0.0153
37615OCT     C275230   8.783  10.656  22.772 -0.4357  0.1615 -0.0084
37616OCT     C175231  22.959  16.913  15.262 -0.0408  0.5071  0.4260
37616OCT     C275232  23.031  17.309  15.083  0.0617 -0.3597  0.0107
37617OCT     C175233  20.503  12.566  21.759  0.0047 -0.2537  0.2380
37617OCT     C275234  20.106  12.458  21.549  0.4112  0.4901  0.0012
37618OCT     C175235  13.333  15.316  22.999 -0.0535 -0.2020  0.1009
37618OCT     C275236  13.331  14.844  23.005 -0.3349 -0.0331 -0.1315
37619OCT     C175237  18.202   0.671  11.173 -0.0492  0.1181  0.1286
37619OCT     C275238  18.002   0.619  10.786 -0.2124  0.1673  0.3471
37620OCT     C175239   4.958   3.677  12.134 -0.1053  0.1308 -0.2569
37620OCT     C275240   4.694   3.456  12.520  0.1281 -0.5221  0.1653
37621OCT     C175241  10.555  22.369  21.106  0.0472  0.2380 -0.3349
37621OCT     C275242  10.538  22.131  20.700 -0.0356 -0.1040 -0.0538
37622OCT     C175243  14.962  10.133  18.990  0.1079  0.0226  0.3166
37622OCT     C275244  15.107  10.600  19.089  0.0744  0.2310 -0.2749
37623OCT     C175245  10.248  22.933  21.205 -0.3346  0.0375 -0.3636
37623OCT     C275246  10.641  22.840  20.924  0.2603  0.0166 -0.2177
37624OCT     C175247   3.905   0.812   7.525  0.1922  0.0052 -0.2601
37624OCT     C275248   3.710   0.678   7.083  0.2388  0.2504 -0.3152
37625OCT     C175249  22.081   3.657   7.613 -0.0938  0.0410  0.2932
37625OCT     C275250  21.779   3.625   7.252  0.1017  0.0098  0.0767
37626OCT     C175251  19.713  14.435  19.163  0.2621 -0.1731 -0.0416
37626OCT     C275252  19.696  14.324  18.682 -0.0640 -0.3533 -0.2601
37627OCT     C175253  18.725   6.352   0.038  0.3532  0.0462  0.2569
37627OCT     C275254  19.131   6.237   0.233 -0.0691  0.0112 -0.0181
37628OCT     C175255  21.109  20.272  22.123 -0.0041  0.1820 -0.1500
37628OCT     C275256  20.871  20.583  22.434  0.0121  0.2734  0.2897
37629OCT     C175257  16.217  13.361   6.385  0.1767 -0.0395 -0.0309
37629OCT     C275258  16.084  13.819   6.495 -0.0218 -0.0721 -0.0588
37630OCT     C175259  20.574   3.227   3.078  0.2693 -0.1780  0.1527
37630OCT     C275260  20.886   3.204   3.420 -0.0102 -0.0682  0.0068
37631OCT     C175261  21.007  21.196  19.426  0.3037 -0.2563 -0.1056
37631OCT     C275262  20.944  20.765  19.292  0.0810  0.3730  0.0767
37632OCT     C175263   2.603  15.622   4.442  0.1808  0.0983 -0.0648
37632OCT     C275264   2.158  15.534   4.343 -0.0843  0.2288  0.2438
37633OCT     C175265   1.664  11.199   3.035  0.1287  0.2210 -0.4256
37633OCT     C275266   1.639  10.795   2.755  0.1242  0.1573 -0.3013
37634OCT     C175267   7.508   8.220  14.601  0.4402 -0.0114  0.2182
37634OCT     C275268   7.983   8.083  14.686  0.0500  0.1215  0.0661
37635OCT     C175269   9.315  19.940   3.693 -0.1361 -0.1124  0.0700
37635OCT     C275270   9.302  19.861   3.224  0.2721  0.1283 -0.4703
37636OCT     C175271  23.551   8.551  18.958  0.0777 -0.5033 -0.0766
37636OCT     C275272   0.271   8.323  18.973 -0.0496 -0.3022  0.2119
37637OCT     C175273   4.890  22.810  16.451 -0.2887  0.1746 -0.4633
37637OCT     C275274   5.112  22.802  16.014  0.3299  0.1942 -0.4635
37638OCT     C175275  20.895  23.101   6.245  0.2376  0.1556 -0.1865
37638OCT     C275276  21.188  22.833   6.045 -0.2430  0.1471 -0.2199
37639OCT     C175277  20.369   5.704   7.280 -0.1935  0.0883  0.0568
37639OCT     C275278  20.121   5.306   7.093  0.0906 -0.4465 -0.1316
37640OCT     C175279  19.544  10.366   5.153 -0.0678  0.0724 -0.3148
37640OCT     C275280  19.705  10.272   5.536 -0.2142  0.1931  0.0283
37641OCT     C175281   8.871  12.227   6.647 -0.5899 -0.0576 -0.0609
37641OCT     C275282   9.129  12.597   6.501  0.4335 -0.3025 -0.0256
37642OCT     C175283  17.297  10.625   7.493 -0.0239 -0.2667  0.2964
37642OCT     C275284  17.208  10.460   7.900  0.0326  0.3221 -0.3552
37643OCT     C175285   4.613  13.760   9.016 -0.0418 -0.1873 -0.0501
37643OCT     C275286   5.017  13.509   8.962 -0.0318 -0.0987 -0.2454
37644OCT     C175287  23.229  19.361  16.646  0.0041 -0.0794 -0.0344
37644OCT     C275288  22.979  19.068  16.322 -0.0259  0.0584  0.0875
37645OCT     C175289  19.786  21.556  18.544  0.0179 -0.2370 -0.1055
37645OCT     C275290  19.579  21.757  18.140  0.5375 -0.2523 -0.0083
37646OCT     C175291   4.242  14.216  17.420 -0.1652 -0.1375  0.0964
37646OCT     C275292   4.610  14.123  17.233  0.0728 -0.1983 -0.3237
37647OCT     C175293   9.625   9.172  14.390 -0.2515 -0.1044  0.0572
37647OCT     C275294   9.556   9.081  14.894 -0.2751  0.1219  0.0186
37648OCT     C175295  15.850   9.465   0.893 -0.0119  0.1372  0.0206
37648OCT     C275296  15.429   9.335   0.641  0.1659  0.5336  0.3826
37649OCT     C175297   2.407  15.975  19.465  0.3560  0.0700 -0.0880
37649OCT     C275298   2.247  15.820  19.881  0.1210 -0.2843 -0.1332
37650OCT     C175299   8.938   7.255   0.671 -0.0504  0.2311 -0.3559
37650OCT     C275300   9.429   7.196   0.546  0.4412 -0.0809 -0.2038
37651OCT     C175301  16.974   9.009   7.656 -0.1120  0.1867 -0.3419
37651OCT     C275302  16.560   9.129   7.466  0.0451 -0.0468 -0.0847
37652OCT     C175303  19.707  12.096   4.664  0.2273  0.1708  0.2130
37652OCT     C275304  19.886  11.762   4.371 -0.0596 -0.1816 -0.2369
37653OCT     C175305  15.221  21.794  13.301 -0.1976 -0.2595  0.1108
37653OCT     C275306  15.628  21.892  13.477  0.1003  0.1272 -0.1314
37654OCT     C175307   6.526   4.281   2.081  0.0815 -0.3640 -0.0288
37654OCT     C275308   6.864   4.458   1.869  0.1951  0.0721 -0.1663
37655OCT     C175309   5.841  21.761   9.029 -0.1740  0.2197 -0.2010
37655OCT     C275310   5.926  22.046   9.385 -0.0563 -0.2508 -0.0709
37656OCT     C175311  16.181   4.593  16.459  0.1247 -0.2735  0.1309
37656OCT     C275312  16.665   4.662  16.480  0.0432 -0.1171  0.1647
37657OCT     C175313  23.700   5.229  18.600  0.5918  0.0293 -0.1938
37657OCT     C275314  23.468   5.386  18.216  0.0693  0.0610 -0.1447
37658OCT     C175315   2.071  18.428   1.817 -0.0930  0.0792 -0.0325
37658OCT     C275316   2.324  18.118   1.602  0.0841  0.1708  0.2755
37659OCT     C175317  10.246  21.284  22.514  0.3310 -0.2866  0.3066
37659OCT     C275318  10.616  21.574  22.628 -0.0053 -0.1611  0.0175
37660OCT     C175319  12.365  10.450  18.485 -0.0228 -0.1134 -0.0353
37660OCT     C275320  12.407  10.027  18.340  0.0917 -0.1537  0.2746
37661OCT     C175321  12.033   9.367  22.273 -0.1323 -0.2330  0.0115
37661OCT     C275322  11.688   9.151  22.011 -0.3142 -0.0420 -0.1389
37662OCT     C175323  15.045   3.655  16.612  0.0183  0.0275 -0.2554
37662OCT     C275324  15.044   3.168  16.568 -0.2361 -0.1637 -0.2048
37663OCT     C175325   2.875   9.922  12.102 -0.0925 -0.5325  0.1739
37663OCT     C275326   2.685  10.138  11.723 -0.2540 -0.1558 -0.2215
37664OCT     C175327  22.488  17.942  14.855 -0.1854 -0.0515  0.0488
37664OCT     C275328  22.793  18.137  14.540  0.3366 -0.0764 -0.2133
37665OCT     C175329  22.701  11.441  12.307  0.0222  0.2396 -0.0111
37665OCT     C275330  23.052  11.201  12.316  0.2223 -0.0231  0.1374
37666OCT     C175331  17.577   8.173   9.476 -0.0282  0.1150 -0.0829
37666OCT     C275332  17.688   7.884   9.082  0.0094 -0.0720  0.2617
37667OCT     C175333  11.138  14.592  13.130  0.1810  0.0069  0.2664
37667OCT     C275334  11.329  14.937  13.339  0.0911  0.2296 -0.1002
37668OCT     C175335  12.194  10.022  14.927 -0.0103 -0.0295  0.1827
37668OCT     C275336  12.364   9.725  14.580 -0.1044 -0.0704  0.2031
37669OCT     C175337  10.203   8.724  13.013  0.1182 -0.0574 -0.0345
37669OCT     C275338  10.103   8.869  13.438 -0.1488  0.3897 -0.1771
37670OCT     C175339   9.237  19.952  18.203  0.3148 -0.0996 -0.1988
37670OCT     C275340   9.354  19.583  17.931 -0.1205  0.0930 -0.1932
37671OCT     C175341  18.655   5.925  22.762 -0.0887  0.1019  0.0258
37671OCT     C275342  18.464   5.513  22.669  0.0931 -0.1077 -0.0102
37672OCT     C175343  15.630   9.326  11.743  0.1096  0.1277  0.0846
37672OCT     C275344  15.518   9.318  11.299  0.0296 -0.1567 -0.0059
37673OCT     C175345   2.863   1.847  15.919 -0.0226  0.2349  0.0230
37673OCT     C275346   3.049   2.314  16.074  0.2546  0.1857 -0.1332
37674OCT     C175347   1.822  21.341  19.795  0.2152  0.4739  0.0158
37674OCT     C275348   2.037  21.264  19.442  0.0696  0.1765  0.5643
37675OCT     C175349  20.097  12.671  16.884 -0.4008  0.1634 -0.0879
37675OCT     C275350  19.791  12.678  16.512  0.0149  0.0184 -0.0605
37676OCT     C175351   4.949   6.560   3.576  0.0533 -0.0703 -0.0862
37676OCT     C275352   4.925   6.102   3.632  0.2002 -0.1878 -0.0546
37677OCT     C175353  23.118   1.533   9.017  0.1186  0.2392 -0.1437
37677OCT     C275354  22.684   1.509   8.905 -0.4149  0.0480  0.0401
37678OCT     C175355  19.185  12.853  17.196  0.4141 -0.1297 -0.0982
37678OCT     C275356  18.750  13.024  17.137  0.3846 -0.0155 -0.0249
37679OCT     C175357  22.248  15.832  19.717 -0.3751 -0.0674 -0.3035
37679OCT     C275358  22.161  15.451  20.008 -0.3155 -0.1342 -0.1797
37680OCT     C175359   8.194  15.906  13.948 -0.0679  0.3073  0.1580
37680OCT     C275360   8.466  15.515  14.023  0.0337 -0.2008  0.2694
37681OCT     C175361  17.041  14.875  14.548 -0.2482 -0.1343 -0.0355
37681OCT     C275362  17.511  14.841  14.308 -0.1216  0.1128  0.1366
37682OCT     C175363  21.195   5.270  19.481  0.0563  0.1575 -0.0132
37682OCT     C275364  21.327   5.610  19.254 -0.1890 -0.1188 -0.3234
37683OCT     C175365   7.127  22.332  10.739 -0.0221  0.1956  0.0152
37683OCT     C275366   6.884  22.216  10.401 -0.0370  0.0485  0.4349
37684OCT     C175367   4.907  13.437  16.698 -0.1600 -0.2043  0.3069
37684OCT     C275368   4.551  13.436  16.362 -0.5222 -0.1643  0.0369
37685OCT     C175369   9.496  21.992   2.124 -0.0074 -0.0372 -0.0523
37685OCT     C275370   9.224  22.374   2.284 -0.1646  0.0810  0.2674
37686OCT     C175371  10.749   4.317   8.465 -0.1833 -0.0099  0.2382
37686OCT     C275372  10.456   4.112   8.155  0.0014  0.3498 -0.0930
37687OCT     C175373  20.777   2.436   6.523 -0.1870 -0.0661  0.0167
37687OCT     C275374  21.175   2.314   6.301  0.2216  0.2940  0.0044
37688OCT     C175375  20.492   1.173   6.779  0.0315 -0.1003 -0.2094
37688OCT     C275376  20.113   0.957   6.737  0.0590 -0.0315  0.5631
37689OCT     C175377   4.332   4.272   7.094 -0.0985 -0.0236 -0.0675
37689OCT     C275378   4.379   4.312   7.563  0.2206 -0.3705 -0.0275
37690OCT     C175379  10.219  20.999  19.550  0.2031 -0.0347 -0.0032
37690OCT     C275380  10.012  21.176  19.919  0.3819  0.2706 -0.0670
37691OCT     C175381   3.806  10.088  19.619  0.1030  0.2126 -0.5647
37691OCT     C275382   4.080   9.764  19.856  0.4389  0.0715 -0.0038
37692OCT     C175383  20.590  18.529   0.696  0.1596  0.3031 -0.3403
37692OCT     C275384  20.108  18.403   0.865 -0.2143  0.0983  0.2650
37693OCT     C175385  21.748   6.135   0.348  0.2682  0.1653  0.2106
37693OCT     C275386  21.830   6.578   0.496 -0.2581 -0.3911 -0.1224
37694OCT     C175387  11.252  21.314  12.805  0.1181  0.0041  0.0702
37694OCT     C275388  11.315  21.436  13.242 -0.1534 -0.3768  0.0666
37695OCT     C175389  20.307   0.213  20.554  0.0640  0.2350 -0.0441
37695OCT     C275390  19.826   0.310  20.597  0.0611  0.1893 -0.0424
37696OCT     C175391  22.593   8.516   4.803  0.2103 -0.1247  0.2742
37696OCT     C275392  22.266   8.816   4.736  0.4086 -0.0389 -0.0403
37697OCT     C175393  17.705  23.411  10.787 -0.1722  0.1343 -0.0188
37697OCT     C275394  17.268  23.397  10.542  0.0155 -0.4154  0.1169
37698OCT     C175395   0.178  16.403  19.997 -0.3189 -0.0698  0.0244
37698OCT     C275396   0.010  16.817  19.884 -0.1165 -0.0480 -0.0321
37699OCT     C175397  16.688   3.383   7.559 -0.1334 -0.0679 -0.0812
37699OCT     C275398  16.984   3.309   7.941  0.2324  0.1252 -0.0306
37700OCT     C175399  17.018   9.894  14.364  0.0365  0.3072  0.1059
37700OCT     C275400  16.978  10.315  14.179  0.1937 -0.0236 -0.1444
37701OCT     C175401   4.376   2.077   1.940 -0.4485 -0.2188  0.2268
37701OCT     C275402   4.026   1.814   1.756  0.3261 -0.4504  0.1736
37702OCT     C175403   5.663  14.169   4.483 -0.2725  0.0579 -0.0606
37702OCT     C275404   5.417  14.454   4.175 -0.0762  0.0198 -0.4383
37703OCT     C175405  17.323  13.607  17.244  0.0097  0.1624  0.0863
37703OCT     C275406  17.100  13.699  16.820  0.0811 -0.0512  0.0626
37704OCT     C175407   0.724   8.055  14.613  0.0447 -0.2260  0.0212
37704OCT     C275408   0.683   7.717  14.285 -0.2343 -0.1526  0.2675
37705OCT     C175409  10.000  14.196   4.014 -0.0586 -0.0366  0.0598
37705OCT     C275410  10.347  13.881   3.970 -0.1407  0.2997 -0.2405
37706OCT     C175411  21.327  17.338  14.555 -0.2161 -0.1909 -0.1665
37706OCT     C275412  21.556  17.754  14.505  0.2836 -0.0367 -0.2031
37707OCT     C175413  15.978  21.713  15.867  0.0366 -0.0675 -0.1391
37707OCT     C275414  16.291  21.901  16.096 -0.0728 -0.1566  0.3210
37708OCT     C175415  17.781   0.766  21.090  0.0022  0.0507  0.0000
37708OCT     C275416  17.345   0.793  21.054 -0.0715  0.3274 -0.0723
37709OCT     C175417   3.391  23.572   9.950 -0.0658 -0.2345  0.1425
37709OCT     C275418   3.706  23.393  10.220  0.2025 -0.1470 -0.0347
37710OCT     C175419  23.225  22.027  14.740 -0.1996  0.1927 -0.1345
37710OCT     C275420  23.297  21.589  14.596 -0.2225 -0.0554 -0.1384
37711OCT     C175421  17.259  11.955  18.297 -0.3227  0.2554 -0.1366
37711OCT     C275422  17.364  11.908  17.852  0.0596  0.0710  0.1680
37712OCT     C175423  21.494  18.052  16.436  0.1520 -0.1568  0.3794
37712OCT     C275424  21.388  17.733  16.794  0.2361  0.1874  0.1391
37713OCT     C175425   0.605   5.852  21.879  0.1504 -0.0813 -0.1108
37713OCT     C275426   0.165   5.813  21.714  0.0191  0.1005  0.1447
37714OCT     C175427  20.457  18.130   1.063  0.0150  0.0570  0.0798
37714OCT     C275428  20.321  18.396   1.373 -0.1222  0.1296  0.1315
37715OCT     C175429  15.788  18.719  11.435 -0.3866 -0.4721 -0.0239
37715OCT     C275430  15.378  18.572  11.626 -0.0297  0.1133  0.0577
37716OCT     C175431   8.593  22.107  19.253 -0.1672  0.1397  0.4900
37716OCT     C275432   8.324  22.108  19.627 -0.4384 -0.2767 -0.0430
37717OCT     C175433   2.406  23.006  14.569  0.1117  0.0777 -0.1726
37717OCT     C275434   2.756  22.759  14.345 -0.0848  0.0089  0.0006
37718OCT     C175435  12.181  15.881  14.500 -0.0362  0.2490  0.0613
37718OCT     C275436  12.662  15.859  14.481 -0.0898 -0.0789 -0.1327
37719OCT     C175437   2.591  19.726   1.421  0.1922 -0.1903 -0.4509
37719OCT     C275438   2.980  19.623   1.642 -0.6589  0.0128  0.0817
37720OCT     C175439  19.014  17.067  15.632 -0.0265 -0.1591 -0.0425
37720OCT     C275440  19.175  17.048  16.098  0.0131 -0.2726 -0.0033
37721OCT     C175441  14.182   5.570  22.249  0.1259 -0.1616  0.0017
37721OCT     C275442  13.933   5.757  22.610 -0.0823 -0.3124  0.4892
37722OCT     C175443   8.309   3.325   8.816 -0.2277  0.2655  0.2566
37722OCT     C275444   8.013   2.972   8.704  0.0954 -0.0000  0.0286
37723OCT     C175445  22.739  10.835   3.408  0.1458 -0.0655 -0.0054
37723OCT     C275446  22.554  11.134   3.722  0.1395 -0.0514  0.3267
37724OCT     C175447  15.045   5.017   4.152  0.0488  0.1739  0.5125
37724OCT     C275448  14.900   4.846   3.704 -0.3786 -0.2200 -0.2293
37725OCT     C175449   7.692  11.257   9.043  0.0814  0.0727  0.3683
37725OCT     C275450   7.513  11.228   8.649  0.2174 -0.2810  0.0504
37726OCT     C175451  13.965   0.695   3.084  0.0328  0.0311  0.3084
37726OCT     C275452  13.782   0.522   2.636  0.2196 -0.4169  0.0585
37727OCT     C175453  13.766  22.813  13.571 -0.2789  0.2055  0.3040
37727OCT     C275454  14.145  22.851  13.824  0.5199 -0.1204  0.1142
37728OCT     C175455   7.789  21.108   7.698 -0.2061  0.5603  0.0275
37728OCT     C275456   8.130  21.021   7.396 -0.2777  0.4510  0.5013
37729OCT     C175457  19.680   6.554  19.148  0.1898 -0.1676 -0.2930
37729OCT     C275458  19.380   6.572  19.516  0.0191 -0.1476  0.1473
37730OCT     C175459  17.328   4.084  22.095  0.1040 -0.1086 -0.1196
37730OCT     C275460  17.386   3.899  21.699 -0.3010  0.2816 -0.1627
37731OCT     C175461   0.481  13.340   3.411  0.0126 -0.1079 -0.0528
37731OCT     C275462   0.086  13.572   3.434 -0.1210  0.1845  0.0589
37732OCT     C175463   1.933  19.906  19.838 -0.1044 -0.3170 -0.0707
37732OCT     C275464   2.094  20.179  20.125  0.0049 -0.0627 -0.0313
37733OCT     C175465  11.400   4.054  22.153 -0.2215 -0.1857 -0.0707
37733OCT     C275466  11.742   3.949  21.912 -0.3163  0.1130 -0.0669
37734OCT     C175467   6.464  21.399  14.315 -0.5107 -0.0411  0.2876
37734OCT     C275468   6.168  21.082  14.436  0.0546  0.1832 -0.1066
37735OCT     C175469   2.340  13.770  20.929  0.0871  0.1920 -0.1435
37735OCT     C275470   2.151  13.895  20.512  0.0091  0.2109 -0.0880
37736OCT     C175471   3.822  21.133  15.447  0.1538  0.2852 -0.2002
37736OCT     C275472   3.718  20.679  15.437 -0.0334  0.0010  0.3217
37737OCT     C175473  13.544  19.769  21.122  0.0464 -0.2360 -0.1770
37737OCT     C275474  13.617  19.467  21.485 -0.2613 -0.0443  0.0643
37738OCT     C175475   6.312   9.751  21.020  0.2232  0.2677 -0.2103
37738OCT     C275476   6.754   9.909  21.087  0.5078 -0.2052 -0.0342
37739OCT     C175477  10.704  12.309  20.401  0.0778 -0.0601  0.2251
37739OCT     C275478  10.887  11.896  20.271  0.1546 -0.0489  0.1788
37740OCT     C175479  14.749   2.035  12.679 -0.0592 -0.1336  0.1622
37740OCT     C275480  14.605   2.452  12.510  0.0263 -0.4146 -0.0418
37741OCT     C175481   9.361   3.286  12.567  0.0639  0.1992 -0.0625
37741OCT     C275482   9.600   3.113  12.882  0.1027 -0.0154  0.5174
37742OCT     C175483  20.138  10.027   8.168  0.5050 -0.1688 -0.2520
37742OCT     C275484  20.540  10.221   8.255 -0.0193 -0.0887  0.2782
37743OCT     C175485   6.869   5.553  15.285  0.2007 -0.3861 -0.0749
37743OCT     C275486   6.645   5.168  15.411 -0.0678 -0.0485 -0.1626
37744OCT     C175487   7.570   2.536   3.783 -0.0271 -0.0764 -0.0065
37744OCT     C275488   7.761   2.109   3.924 -0.1465 -0.1689 -0.1275
37745OCT     C175489   4.541  10.213   9.471  0.0844 -0.1071 -0.0812
37745OCT     C275490   4.480   9.885   9.178  0.4724  0.2578 -0.0929
37746OCT     C175491   7.623   5.276   6.337 -0.2186 -0.5160 -0.0902
37746OCT     C275492   7.578   5.770   6.321  0.4759  0.0661 -0.3740
37747OCT     C175493   8.711  17.531  13.097 -0.3192 -0.2218 -0.0945
37747OCT     C275494   9.173  17.704  13.067 -0.3320  0.1911  0.0667
37748OCT     C175495  10.793   8.117   2.855  0.0734  0.3939 -0.2837
37748OCT     C275496  11.023   8.148   3.233 -0.0461 -0.1363 -0.2114
37749OCT     C175497   4.616   3.135  23.297 -0.5002 -0.3024  0.1075
37749OCT     C275498   4.828   3.483  23.577 -0.0414 -0.1849  0.2727
37750OCT     C175499   4.331  19.423   6.000  0.2574  0.1630  0.2308
37750OCT     C275500   4.569  19.246   5.634 -0.0169 -0.1188  0.0327
37751OCT     C175501   9.194   5.320  21.743 -0.2431 -0.2213  0.0519
37751OCT     C275502   9.601   5.514  21.798 -0.1666  0.0664  0.0443
37752OCT     C175503  21.927  23.297  11.079  0.0009  0.0711  0.0655
37752OCT     C275504  21.538  23.507  10.964 -0.1636 -0.1817  0.2194
37753OCT     C175505   0.708  20.816  20.156  0.0374 -0.2788  0.0071
37753OCT     C275506   0.583  21.190  19.971  0.2025  0.3170 -0.1365
37754OCT     C175507  16.933  20.731   0.976 -0.1129  0.2718 -0.1152
37754OCT     C275508  16.655  20.575   1.355 -0.1706 -0.0287  0.1791
37755OCT     C175509  13.958  14.493   6.844 -0.0695  0.2736  0.1434
37755OCT     C275510  14.303  14.766   6.962 -0.0573  0.0064  0.1085
37756OCT     C175511   5.683  19.321  10.667 -0.1979  0.1239 -0.1095
37756OCT     C275512   5.314  19.078  10.734  0.1065  0.0572  0.1898
37757OCT     C175513   2.568  21.041  20.356  0.1486 -0.1129 -0.1169
37757OCT     C275514   2.238  20.930  20.635  0.1447 -0.0053  0.2232
37758OCT     C175515   4.798   6.180  10.161  0.2219 -0.0895  0.0470
37758OCT     C275516   4.372   5.998  10.259 -0.1028 -0.2763 -0.0021
37759OCT     C175517  18.646   1.124   8.818  0.1811  0.0335  0.0720
37759OCT     C275518  18.349   0.805   8.958 -0.1717 -0.0900 -0.1563
37760OCT     C175519  20.784   6.650   8.281 -0.1957 -0.3673 -0.3089
37760OCT     C275520  20.747   6.594   8.794 -0.0912  0.0909 -0.0930
37761OCT     C175521  12.345  18.762  12.258 -0.3116 -0.3141 -0.0023
37761OCT     C275522  12.238  19.211  12.409 -0.0093  0.0264 -0.0039
37762OCT     C175523  19.754   5.202   6.525  0.5305  0.1263  0.0161
37762OCT     C275524  19.418   5.241   6.193 -0.0725 -0.2031  0.1005
37763OCT     C175525  17.367   2.720  13.208 -0.2653 -0.4471 -0.4465
37763OCT     C275526  17.153   2.404  13.374 -0.0971 -0.1363  0.0141
37764OCT     C175527  19.129  12.385  18.237 -0.0759 -0.2394  0.1023
37764OCT     C275528  18.902  12.030  18.053 -0.4987 -0.2498  0.0338
37765OCT     C175529  15.065   1.188  18.869 -0.0472 -0.2110  0.3257
37765OCT     C275530  15.015   1.198  19.352 -0.5728 -0.0908 -0.3113
37766OCT     C175531  19.100  21.666   6.531  0.2353  0.1011  0.0334
37766OCT     C275532  19.306  22.002   6.761 -0.0135  0.1487 -0.1542
37767OCT     C175533   7.900   7.304   6.183  0.0623 -0.1487  0.1848
37767OCT     C275534   7.687   6.932   6.064 -0.0816  0.2301 -0.1378
37768OCT     C175535   9.089  10.677  21.435  0.2295 -0.0014 -0.0405
37768OCT     C275536   8.767  10.942  21.307  0.0860  0.0022 -0.3680
37769OCT     C175537  19.368   9.347  17.547  0.3028 -0.0405 -0.1889
37769OCT     C275538  19.074   8.993  17.415 -0.1276 -0.1228  0.0188
37770OCT     C175539  21.192  11.983  20.140 -0.2688  0.2032  0.5370
37770OCT     C275540  21.356  11.577  20.271 -0.2148  0.1462  0.0312
37771OCT     C175541  19.324   2.450  11.476  0.2757  0.5770  0.0024
37771OCT     C275542  18.908   2.626  11.725 -0.1157  0.2398  0.1214
37772OCT     C175543  16.573   3.878  22.016  0.1395 -0.0849 -0.0177
37772OCT     C275544  16.191   3.827  21.733  0.0308 -0.4611  0.2283
37773OCT     C175545   1.932   2.431   2.438  0.1520  0.4426  0.0688
37773OCT     C275546   1.613   2.153   2.253  0.0480  0.4607  0.0171
37774OCT     C175547   0.339  16.336  22.017  0.3088 -0.1537 -0.0803
37774OCT     C275548   0.211  16.618  22.398 -0.1754  0.4965  0.0420
37775OCT     C175549  17.947   4.654  12.310  0.0596  0.0361 -0.2661
37775OCT     C275550  18.112   5.120  12.387  0.0138 -0.0592  0.4156
37776OCT     C175551   0.325   8.568  20.035  0.0786  0.2856 -0.0414
37776OCT     C275552   0.557   8.569  20.443 -0.1895  0.1687 -0.0079
37777OCT     C175553  16.182  21.620  21.193 -0.2337 -0.0135 -0.3850
37777OCT     C275554  15.956  22.037  21.090  0.1092  0.1151 -0.0148
37778OCT     C175555   5.367   8.047  11.090  0.0634  0.3496  0.2688
37778OCT     C275556   5.554   8.453  11.235  0.4357  0.1791 -0.2665
37779OCT     C175557  15.216  18.308  19.198  0.1863  0.0921  0.0583
37779OCT     C275558  15.445  18.346  18.705  0.0794  0.0077 -0.3597
37780OCT     C175559  23.538   5.446  10.118 -0.0568  0.0697 -0.3494
37780OCT     C275560  23.311   5.855   9.941 -0.3757  0.0280 -0.1406
37781OCT     C175561  22.775  16.103  21.489  0.0727 -0.4765 -0.2058
37781OCT     C275562  22.951  16.159  21.098  0.2665 -0.4766 -0.1159
37782OCT     C175563   8.457   1.756   3.528 -0.1639  0.3782  0.0336
37782OCT     C275564   8.639   2.161   3.486  0.0371 -0.0951 -0.2912
37783OCT     C175565   5.769  20.591  14.231 -0.0289 -0.4970 -0.1452
37783OCT     C275566   6.165  20.301  14.306 -0.1370 -0.2247  0.0780
37784OCT     C175567   3.372  22.929   6.480 -0.3525  0.1477 -0.1597
37784OCT     C275568   3.276  23.043   6.077  0.3593 -0.2345 -0.0747
37785OCT     C175569  11.221  17.646  22.199 -0.0838 -0.1193 -0.1518
37785OCT     C275570  11.596  17.384  22.267  0.0598 -0.0862 -0.1738
37786OCT     C175571  15.591  15.066  16.094 -0.3247 -0.2620 -0.3034
37786OCT     C275572  15.699  15.222  16.525  0.1197  0.0948  0.2388
37787OCT     C175573   2.272  20.251  19.451 -0.3444 -0.0642  0.0407
37787OCT     C275574   2.340  20.398  19.039 -0.1519 -0.4207  0.0577
37788OCT     C175575   7.217  11.182  22.534 -0.1019 -0.0014 -0.0313
37788OCT     C275576   7.424  10.763  22.703 -0.2716 -0.1478  0.2089
37789OCT     C175577   4.041   8.925  23.414 -0.0468  0.0695  0.1941
37789OCT     C275578   3.711   8.939  23.724  0.2605  0.2062 -0.3681
37790OCT     C175579  11.045   4.100  16.145 -0.0688 -0.1092  0.2172
37790OCT     C275580  11.274   4.270  15.807  0.1975  0.1126 -0.1986
37791OCT     C175581   6.849   3.927   2.087 -0.0269  0.0174 -0.0795
37791OCT     C275582   7.195   3.956   1.749 -0.0196  0.1461 -0.2291
37792OCT     C175583   0.503   7.211   1.850  0.0079 -0.2587 -0.0668
37792OCT     C275584   0.478   6.787   1.975 -0.0861  0.2611  0.4296
37793OCT     C175585  11.784  10.605   8.396 -0.0305  0.0966  0.0561
37793OCT     C275586  11.452  10.770   8.141 -0.1864 -0.1668 -0.2299
37794OCT     C175587  13.213   3.662  15.412 -0.1307 -0.1755  0.3928
37794OCT     C275588  13.599   3.813  15.675  0.1355  0.0498 -0.0338
37795OCT     C175589  21.084  21.645  22.710 -0.1688 -0.0565  0.0044
37795OCT     C275590  21.202  21.449  22.302  0.4181 -0.2426  0.1303
37796OCT     C175591  17.302   4.876  23.081  0.2155 -0.0690  0.1680
37796OCT     C275592  17.126   5.299  23.296  0.0584 -0.0294 -0.0531
37797OCT     C175593   3.706  13.904  11.170  0.1630 -0.0512  0.2596
37797OCT     C275594   3.501  13.565  10.905 -0.1092 -0.1857  0.0786
37798OCT     C175595  12.181  20.197   4.534  0.1466 -0.1790  0.1016
37798OCT     C275596  12.250  20.655   4.365  0.3783 -0.1230  0.2209
37799OCT     C175597   6.219   5.676  17.507 -0.0499 -0.0052 -0.0488
37799OCT     C275598   5.861   5.577  17.826 -0.0986  0.5120  0.2716
37800OCT     C175599  21.951  20.746   5.000 -0.3634 -0.1093 -0.1317
37800OCT     C275600  22.398  20.864   5.074 -0.3458 -0.4159 -0.1829
37801OCT     C175601  16.048  18.803  12.489  0.1222 -0.2289  0.1051
37801OCT     C275602  15.690  19.064  12.335  0.3280  0.1540  0.3518
37802OCT     C175603  17.073   7.137  12.758 -0.2251  0.2535  0.1180
37802OCT     C275604  17.106   6.687  12.999  0.0201  0.0517  0.1846
37803OCT     C175605   2.678   6.490  22.964  0.0826  0.0911  0.0048
37803OCT     C275606   2.391   6.654  22.662 -0.1296  0.1194  0.2167
37804OCT     C175607   4.005   7.011   7.807  0.1826 -0.3277  0.1960
37804OCT     C275608   3.808   7.000   7.406  0.0263  0.1302  0.1005
37805OCT     C175609   8.744  17.074  11.419 -0.3083 -0.2131 -0.1587
37805OCT     C275610   8.485  17.048  11.826 -0.1673  0.2449  0.1508
37806OCT     C175611   7.529  20.070  20.404  0.0120  0.0412  0.1208
37806OCT     C275612   7.149  19.782  20.584  0.5583 -0.0928  0.2247
37807OCT     C175613  22.566   7.383  13.451 -0.0999  0.0359 -0.1433
37807OCT     C275614  22.565   7.174  13.088 -0.0011 -0.3551  0.1103
37808OCT     C175615  11.664  15.436  13.242 -0.1677 -0.0479 -0.2471
37808OCT     C275616  11.555  15.876  13.022 -0.2413 -0.3560 -0.0208
37809OCT     C175617   6.909  16.060  13.465  0.1828  0.0450  0.1306
37809OCT     C275618   6.496  16.088  13.303 -0.0778  0.1102 -0.0890
37810OCT     C175619   4.999  12.045   2.909  0.0291 -0.2063 -0.2207
37810OCT     C275620   4.940  11.669   3.156 -0.1045  0.0135 -0.3026
37811OCT     C175621  15.803  19.516   1.171 -0.1670 -0.0152 -0.1258
37811OCT     C275622  15.678  19.938   0.998  0.2387 -0.0043  0.0900
37812OCT     C175623  13.007   1.065  17.766 -0.1051 -0.0101 -0.2835
37812OCT     C275624  13.281   0.832  17.458  0.3855 -0.0435 -0.3510
37813OCT     C175625   7.636  14.596  11.781  0.1385 -0.5382 -0.0850
37813OCT     C275626   7.841  14.673  11.374 -0.1724  0.2430  0.0073
37814OCT     C175627  20.924   1.677  15.881 -0.0293  0.0848 -0.0201
37814OCT     C275628  20.790   1.996  16.183 -0.4537  0.2035  0.4570
37815OCT     C175629   4.615   3.004  10.738 -0.1351  0.1521  0.3931
37815OCT     C275630   4.606   3.199  10.280 -0.0493  0.0510 -0.2231
37816OCT     C175631   6.424  14.134  19.068 -0.0873  0.1048 -0.0734
37816OCT     C275632   6.704  13.833  19.254  0.1998  0.1502 -0.1338
37817OCT     C175633  10.639  11.655   2.096  0.3748  0.2697  0.2128
37817OCT     C275634  10.192  11.789   2.185  0.1154  0.2155 -0.1549
37818OCT     C175635   7.711  23.068  21.500 -0.0629  0.3064 -0.2616
37818OCT     C275636   7.261  22.915  21.533 -0.1237  0.1224 -0.3109
37819OCT     C175637  23.492  20.887   3.429 -0.0808 -0.1372  0.1442
37819OCT     C275638  23.701  21.245   3.609 -0.2037 -0.2465 -0.0292
37820OCT     C175639  11.024  20.949   8.693 -0.0025 -0.2338 -0.3507
37820OCT     C275640  11.061  21.102   9.178 -0.0243 -0.0599 -0.4837
37821OCT     C175641   6.543  23.642  22.732  0.2167  0.0469  0.0495
37821OCT     C275642   6.750   0.216  22.952 -0.1383 -0.3130 -0.0231
37822OCT     C175643  23.295   5.835   3.100 -0.0274  0.0320 -0.4140
37822OCT     C275644  23.133   6.296   3.123 -0.0403 -0.0740 -0.2030
37823OCT     C175645   5.678  22.954  12.091  0.1725  0.0288 -0.2018
37823OCT     C275646   5.832  23.294  12.405 -0.3960 -0.1561  0.3312
37824OCT     C175647   9.872   3.723  19.573  0.0250  0.2180 -0.1558
37824OCT     C275648   9.637   3.635  20.005 -0.2537 -0.3305  0.2477
37825OCT     C175649  23.018  12.238  17.340 -0.0391  0.1108 -0.2828
37825OCT     C275650  22.920  12.008  17.013  0.0117 -0.0573  0.0639
37826OCT     C175651  12.854   6.397   5.487  0.3552  0.0258  0.0075
37826OCT     C275652  12.859   6.046   5.147 -0.2162 -0.3222  0.1355
37827OCT     C175653   3.528   0.407  17.167  0.0935  0.0065  0.0497
37827OCT     C275654   3.608   0.055  17.465  0.1698 -0.0075  0.3209
37828OCT     C175655  12.864  12.407   0.766  0.4067 -0.2053  0.0376
37828OCT     C275656  12.860  12.387   1.256  0.2926 -0.0379  0.0134
37829OCT     C175657  13.123  13.590  12.225  0.2244  0.1388 -0.0929
37829OCT     C275658  12.810  13.826  11.955 -0.2896 -0.3529  0.0865
37830OCT     C175659   3.500  10.670  14.854  0.1281  0.2744  0.0313
37830OCT     C275660   3.640  10.273  15.069  0.0637 -0.0109 -0.0873
37831OCT     C175661  17.641  11.427   2.112 -0.0934  0.1873 -0.1814
37831OCT     C275662  17.809  11.106   1.802  0.1214 -0.0545 -0.6770
37832OCT     C175663  13.077   4.456   9.632 -0.0409  0.3989  0.2522
37832OCT     C275664  12.745   4.140   9.417  0.2051 -0.1996 -0.1675
37833OCT     C175665   8.601   8.313   9.053 -0.2443  0.1799  0.0945
37833OCT     C275666   8.325   8.009   9.184  0.0319  0.0746 -0.0237
37834OCT     C175667  19.377  23.009   9.498 -0.2542 -0.1125  0.1522
37834OCT     C275668  19.659  22.652   9.384 -0.0825  0.2921 -0.0137
37835OCT     C175669   6.757  16.287  14.425  0.1112  0.0071 -0.0939
37835OCT     C275670   6.559  15.882  14.313  0.1327 -0.0359  0.2681
37836OCT     C175671  23.546  15.945  11.673 -0.5951  0.2307  0.1727
37836OCT     C275672   0.088  16.355  11.658  0.1061 -0.1170 -0.1426
37837OCT     C175673   2.143  18.402  21.082  0.1921  0.0376  0.0967
37837OCT     C275674   2.205  17.901  21.125 -0.1238 -0.5887 -0.2466
37838OCT     C175675  16.455   3.474   8.625  0.4027 -0.2447 -0.0247
37838OCT     C275676  16.196   3.914   8.490  0.0653 -0.2643 -0.5144
37839OCT     C175677   5.098   1.095  12.661 -0.0358  0.0569  0.1479
37839OCT     C275678   5.450   1.143  12.982  0.2634 -0.4168 -0.2497
37840OCT     C175679   7.652  10.588  15.482  0.0583 -0.3714 -0.4925
37840OCT     C275680   7.951  10.691  15.864 -0.0483  0.2612 -0.1878
37841OCT     C175681  17.176  11.176   8.316  0.0873  0.0493 -0.3681
37841OCT     C275682  16.983  11.612   8.337  0.4820 -0.0747 -0.3865
37842OCT     C175683   3.378   2.202   9.044 -0.2787  0.0493  0.1645
37842OCT     C275684   3.279   2.386   8.582  0.1284 -0.0921  0.1832
37843OCT     C175685   2.352   9.658   9.629 -0.2671 -0.1051  0.0528
37843OCT     C275686   2.387   9.460  10.056  0.0799 -0.0378  0.0725
37844OCT     C175687  22.261  11.755   7.098 -0.1863 -0.1100  0.1650
37844OCT     C275688  21.867  11.947   6.983  0.1098 -0.0020  0.2755
37845OCT     C175689  21.480  16.594   7.395 -0.0385  0.3216  0.3542
37845OCT     C275690  21.702  16.266   7.088 -0.0194  0.0534  0.3989
37846OCT     C175691  23.231   3.931   3.311  0.0407  0.1723  0.1595
37846OCT     C275692  22.839   3.986   3.025 -0.0472 -0.2195 -0.3250
37847OCT     C175693  18.332  19.130   5.338  0.1616 -0.3572  0.0598
37847OCT     C275694  18.673  19.458   5.320  0.0696  0.1816  0.0412
37848OCT     C175695   0.538  14.527  20.821  0.0742  0.1608 -0.2233
37848OCT     C275696   0.799  14.886  20.736  0.1639 -0.1215  0.1926
37849OCT     C175697  16.916   3.725   2.359  0.0401  0.3068 -0.0466
37849OCT     C275698  16.970   4.132   2.179 -0.5155 -0.1240 -0.1826
37850OCT     C175699   5.106   7.389   7.087  0.1018 -0.3801  0.1266
37850OCT     C275700   4.958   7.691   7.409  0.0093  0.0585  0.4682
37851OCT     C175701  14.226  12.291   7.339  0.3742  0.0609 -0.3732
37851OCT     C275702  14.064  12.673   7.559 -0.1038 -0.2297 -0.0255
37852OCT     C175703  19.644   6.275   7.229  0.0241 -0.2834  0.0216
37852OCT     C275704  19.948   6.492   7.514  0.2354 -0.2339  0.0999
37853OCT     C175705   0.616  20.155   4.954  0.1326 -0.1001 -0.0709
37853OCT     C275706   1.001  19.871   4.950 -0.2234  0.3100 -0.2337
37854OCT     C175707   0.410  15.942  23.666 -0.4927 -0.0365 -0.1314
37854OCT     C275708   0.381  15.430  23.736 -0.3223 -0.1830  0.0663
37855OCT     C175709   4.665   9.945  20.580 -0.0543 -0.1696  0.0526
37855OCT     C275710   4.534  10.077  20.132 -0.0804  0.0934  0.0367
37856OCT     C175711  13.534  18.118  16.526  0.4777 -0.0095  0.4413
37856OCT     C275712  13.027  18.235  16.481  0.0405 -0.0783  0.2360
37857OCT     C175713  23.325   7.730   9.326  0.1840 -0.1792 -0.2927
37857OCT     C275714  22.932   7.614   9.137 -0.2534 -0.0949  0.0423
37858OCT     C175715   1.324   7.787   8.140 -0.0266 -0.0668  0.1942
37858OCT     C275716   1.293   7.317   8.260  0.0179  0.1378  0.0963
37859OCT     C175717  19.725  19.667   1.009 -0.4681 -0.3591  0.1310
37859OCT     C275718  20.033  19.443   1.322 -0.3690 -0.0469  0.1820
37860OCT     C175719  16.538  20.056   6.472 -0.3306  0.3215 -0.2253
37860OCT     C275720  16.098  20.031   6.691  0.3357 -0.0743  0.1577
37861OCT     C175721  19.093   7.301  14.283  0.1061 -0.1646  0.3188
37861OCT     C275722  19.504   7.369  14.169  0.3471 -0.0961  0.2194
37862OCT     C175723  12.805  10.242   3.101 -0.0125  0.1955  0.1385
37862OCT     C275724  12.950   9.796   3.248 -0.1074  0.0761  0.1956
37863OCT     C175725   9.150  11.603   8.155 -0.0760  0.0587 -0.1874
37863OCT     C275726   9.154  11.167   8.344 -0.0736  0.2115 -0.5090
37864OCT     C175727   1.054   7.142  14.054 -0.1687 -0.0632  0.2277
37864OCT     C275728   0.986   6.708  14.188 -0.0698 -0.1309  0.1404
37865OCT     C175729  10.759  14.315  18.777  0.2813  0.0586  0.0580
37865OCT     C275730  11.129  14.538  18.906  0.1441 -0.4166 -0.2056
37866OCT     C175731   1.672  10.873   3.948 -0.1179 -0.0373 -0.0921
37866OCT     C275732   2.065  10.767   3.682 -0.0578  0.1610  0.3357
37867OCT     C175733  15.484  19.370   2.485  0.0276  0.1415 -0.0228
37867OCT     C275734  15.070  19.230   2.221  0.0364 -0.1638 -0.1915
37868OCT     C175735  14.289  18.105   8.132  0.1008  0.0421 -0.1977
37868OCT     C275736  13.892  18.064   7.854  0.0634 -0.1962  0.1904
37869OCT     C175737  12.805   4.596  10.596  0.1920  0.2899  0.0659
37869OCT     C275738  13.312   4.639  10.514 -0.4199 -0.1752 -0.0103
37870OCT     C175739   9.804  15.762   6.001  0.1375  0.0263 -0.0758
37870OCT     C275740   9.760  15.279   5.965 -0.2741 -0.0873 -0.1548
37871OCT     C175741   5.518  17.850  20.072  0.0710  0.1512 -0.5077
37871OCT     C275742   5.738  18.245  20.116 -0.0462 -0.3844 -0.0991
37872OCT     C175743   7.262   6.427  15.619  0.0241  0.3935  0.0216
37872OCT     C275744   7.669   6.363  15.841  0.0343 -0.0024  0.1547
37873OCT     C175745  22.969   8.974  16.962 -0.0347 -0.0564  0.2034
37873OCT     C275746  22.859   9.238  17.306 -0.1746 -0.1700 -0.1516
37874OCT     C175747   2.880  21.157   2.795 -0.2295 -0.0353 -0.3507
37874OCT     C275748   3.135  21.102   3.210  0.2861 -0.1059  0.3144
37875OCT     C175749  19.973   2.772  10.539  0.2080  0.1103 -0.1013
37875OCT     C275750  19.727   2.535  10.887 -0.1133 -0.0689 -0.0462
37876OCT     C175751   4.568  22.339  14.026  0.1473  0.0077 -0.3029
37876OCT     C275752   4.544  22.246  13.609 -0.4673 -0.0938 -0.4026
37877OCT     C175753  11.373  17.546  22.772  0.1127  0.3159 -0.0576
37877OCT     C275754  11.579  17.912  22.492 -0.0589  0.5769 -0.2350
37878OCT     C175755  12.798   1.654  21.585  0.1420  0.0829 -0.2829
37878OCT     C275756  13.170   1.693  21.306 -0.1475  0.2167 -0.2149
37879OCT     C175757   0.030   6.175   7.606  0.0562 -0.0230 -0.2916
37879OCT     C275758   0.049   5.960   7.957 -0.0007  0.0740  0.0353
37880OCT     C175759   6.818   9.627  14.202 -0.1105  0.4310  0.4597
37880OCT     C275760   7.007   9.304  14.452  0.0468 -0.3298  0.3572
37881OCT     C175761  21.798  12.594  11.493 -0.1337 -0.0301 -0.0492
37881OCT     C275762  21.890  12.171  11.300 -0.0330 -0.1408  0.4484
37882OCT     C175763  10.685   7.162   8.525  0.2048  0.0944 -0.0064
37882OCT     C275764  10.452   6.910   8.907 -0.1135  0.0402 -0.0438
37883OCT     C175765   9.163   8.280  19.902  0.2207 -0.5092  0.2524
37883OCT     C275766   9.508   8.298  20.222  0.2319 -0.0109 -0.1012
37884OCT     C175767  16.034  18.292   6.346  0.0598 -0.1695  0.2964
37884OCT     C275768  16.193  18.605   6.685  0.2027 -0.0371 -0.3648
37885OCT     C175769  21.107  16.843  17.700 -0.0738  0.1573  0.3231
37885OCT     C275770  20.960  16.592  17.303 -0.2342  0.1253  0.3503
37886OCT     C175771  23.689  11.176   6.500  0.2644  0.1038 -0.1391
37886OCT     C275772  23.306  11.242   6.352  0.1062 -0.0773  0.2964
37887OCT     C175773  19.304  14.674   3.115 -0.0379 -0.4250 -0.2963
37887OCT     C275774  19.375  14.395   2.708  0.0906  0.0384 -0.2845
37888OCT     C175775  15.639   1.000  10.826  0.2582 -0.1748 -0.2241
37888OCT     C275776  15.607   1.303  11.207 -0.3140 -0.3179  0.0813
37889OCT     C175777   4.439  17.268   6.546  0.1030 -0.0432 -0.1725
37889OCT     C275778   4.641  17.556   6.828 -0.1955  0.0837 -0.0015
37890OCT     C175779  22.047  22.505  17.468  0.1928 -0.0802  0.2575
37890OCT     C275780  21.887  22.174  17.744 -0.2142 -0.2077  0.1012
37891OCT     C175781   7.034   8.882  17.865 -0.4110  0.1963  0.2451
37891OCT     C275782   6.591   8.995  17.783 -0.0417 -0.1128  0.0750
37892OCT     C175783  13.359   2.092  15.050 -0.1208 -0.0060  0.0932
37892OCT     C275784  13.023   1.931  15.308  0.1733 -0.0736  0.0209
37893OCT     C175785  14.894   6.670  16.207  0.1667  0.0473 -0.4160
37893OCT     C275786  15.341   6.717  16.350  0.2456  0.0200 -0.1649
37894OCT     C175787  12.623  10.640   3.414  0.4229 -0.3532  0.0613
37894OCT     C275788  12.291  10.858   3.163 -0.0101  0.4279  0.0843
37895OCT     C175789   7.543  15.560  15.934  0.2446 -0.0253 -0.4474
37895OCT     C275790   7.794  15.943  15.793 -0.1840  0.0807 -0.0140
37896OCT     C175791   7.588  13.972  18.083  0.2192 -0.3378  0.1023
37896OCT     C275792   7.516  13.591  17.823  0.0770 -0.0649 -0.2100
37897OCT     C175793   6.911   0.195   1.065 -0.1349  0.0349 -0.2331
37897OCT     C275794   6.946   0.309   0.627  0.0551  0.2227 -0.0294
37898OCT     C175795  12.777   6.700   7.997 -0.1550  0.1777 -0.1965
37898OCT     C275796  12.849   6.513   7.592  0.2757  0.0384  0.3020
37899OCT     C175797  10.805  14.126   3.269 -0.0021  0.0246 -0.1480
37899OCT     C275798  10.724  14.559   3.522 -0.1123  0.0090 -0.0135
37900OCT     C175799  14.731  14.661   2.466  0.1164  0.0465  0.0341
37900OCT     C275800  14.775  14.597   1.976  0.3002 -0.0843  0.1688
37901OCT     C175801  11.975  13.649  22.520  0.1662 -0.3185  0.0169
37901OCT     C275802  12.352  13.693  22.833 -0.0346 -0.2581  0.1665
37902OCT     C175803  12.492   3.440  21.638 -0.3371  0.3150  0.0853
37902OCT     C275804  12.825   3.585  21.890 -0.0496 -0.4307 -0.0443
37903OCT     C175805   6.844  14.624  13.750 -0.0347 -0.0326 -0.0592
37903OCT     C275806   7.059  15.066  13.749  0.0694  0.0161  0.1550
37904OCT     C175807   2.409   4.211  13.168 -0.1710 -0.0785  0.0402
37904OCT     C275808   2.566   4.646  12.976 -0.2913  0.0081  0.1173
37905OCT     C175809  19.954  13.515  13.841 -0.0367 -0.1431 -0.0880
37905OCT     C275810  19.749  13.158  13.499  0.2356 -0.1999 -0.2827
37906OCT     C175811  16.314  21.867  23.216  0.3728  0.0161  0.0702
37906OCT     C275812  16.318  21.901  22.750 -0.2385  0.0147  0.0750
37907OCT     C175813   2.319   5.480  23.656  0.0329  0.2269 -0.1287
37907OCT     C275814   2.273   5.921  23.739  0.0514 -0.1445 -0.1795
37908OCT     C175815  17.976  18.734   6.002 -0.0990  0.0680  0.1401
37908OCT     C275816  17.729  18.905   6.368 -0.0643  0.1640  0.0796
37909OCT     C175817   8.716   6.343  16.674 -0.0002 -0.2395  0.0357
37909OCT     C275818   8.530   6.628  16.293 -0.6233  0.2240  0.1363
37910OCT     C175819   6.367  21.033  14.909 -0.1081  0.2078 -0.1630
37910OCT     C275820   6.652  21.297  15.149 -0.3500 -0.2862  0.2716
37911OCT     C175821   3.286   9.876  19.420  0.0086  0.1120  0.0242
37911OCT     C275822   3.224   9.706  18.968  0.0179  0.1095 -0.0412
37912OCT     C175823   3.572   6.958  22.222  0.0610  0.0315 -0.0279
37912OCT     C275824   3.544   7.385  22.026  0.0792  0.4554  0.1276
37913OCT     C175825  20.748   0.725  15.762 -0.1053  0.2750  0.0729
37913OCT     C275826  21.113   0.556  15.903  0.1798  0.0620  0.0239
37914OCT     C175827  12.917   9.241   5.861 -0.0152 -0.1442  0.2033
37914OCT     C275828  12.902   9.236   6.338  0.2366  0.1944 -0.0595
37915OCT     C175829  16.816   0.208  21.207  0.3290  0.2561  0.0580
37915OCT     C275830  16.405   0.332  21.417 -0.1533 -0.0275  0.1837
37916OCT     C175831  16.968  11.656  16.812 -0.1142 -0.0412 -0.0346
37916OCT     C275832  16.549  11.787  16.568 -0.3942 -0.2146 -0.0624
37917OCT     C175833  12.548  20.649   4.957 -0.5976 -0.1010  0.0763
37917OCT     C275834  12.250  20.931   4.998  0.1120  0.0043 -0.1529
37918OCT     C175835  13.718   5.219  13.349  0.0833  0.0416 -0.1106
37918OCT     C275836  13.775   5.473  13.013 -0.0041 -0.4782 -0.0421
37919OCT     C175837  19.233  15.525   8.709  0.1045 -0.0626  0.2611
37919OCT     C275838  19.384  15.129   8.491 -0.3160  0.1625  0.0010
37920OCT     C175839   7.252  12.884   9.693  0.2988  0.1136  0.1306
37920OCT     C275840   7.537  12.675   9.310  0.2510  0.1094 -0.1393
37921OCT     C175841   8.262  19.501  19.944 -0.0314  0.0647  0.0928
37921OCT     C275842   7.921  19.379  20.209 -0.3546 -0.0844  0.0790
37922OCT     C175843   7.894   3.518  20.662 -0.0837 -0.0589  0.2608
37922OCT     C275844   8.008   3.989  20.568  0.2068 -0.1926  0.0720
37923OCT     C175845   4.942  23.413   7.341 -0.3251 -0.3135  0.1179
37923OCT     C275846   5.153  23.322   6.982  0.0188  0.0927  0.0515
37924OCT     C175847  16.945  14.914  22.763  0.1754 -0.1207 -0.2136
37924OCT     C275848  16.610  14.693  23.039  0.1577 -0.0138  0.3354
37925OCT     C175849  23.387   7.401   8.927 -0.0717  0.3308  0.0045
37925OCT     C275850  23.269   7.821   8.828  0.3768  0.2339 -0.3277
37926OCT     C175851  11.469  14.436  23.214 -0.0683  0.0761 -0.1226
37926OCT     C275852  11.305  14.156  22.976  0.1248  0.1052  0.1077
37927OCT     C175853  16.939  11.999   1.308  0.0095 -0.5471  0.3216
37927OCT     C275854  17.386  11.926   1.237 -0.2578 -0.0724 -0.1612
37928OCT     C175855  10.947  17.322   7.023 -0.0089 -0.0273 -0.0722
37928OCT     C275856  10.614  17.145   7.306  0.2613 -0.3071  0.1799
37929OCT     C175857  18.964  10.983   3.710  0.2454 -0.4092  0.1653
37929OCT     C275858  18.593  10.836   3.428 -0.0926 -0.0789  0.1684
37930OCT     C175859  11.593   5.284  21.773 -0.0646 -0.3532 -0.1097
37930OCT     C275860  11.602   5.747  21.600 -0.0545  0.1154 -0.1284
37931OCT     C175861  10.826  18.564  20.748 -0.2123 -0.1335  0.1842
37931OCT     C275862  10.682  18.914  21.030 -0.5269  0.1410 -0.1304
37932OCT     C175863  20.455   6.566   6.030 -0.1573  0.2377  0.0096
37932OCT     C275864  20.037   6.716   6.123  0.0955 -0.2549 -0.1735
37933OCT     C175865  14.486   6.678  23.520  0.0851 -0.1110 -0.0629
37933OCT     C275866  14.011   6.496  23.408 -0.2845  0.0210 -0.1914
37934OCT     C175867   2.145   9.146  20.777 -0.0251  0.0010 -0.1024
37934OCT     C275868   1.721   9.021  20.941 -0.2116  0.0434 -0.2835
37935OCT     C175869  10.677  22.431  23.034 -0.1829  0.0387  0.0439
37935OCT     C275870  10.682  22.332  22.565  0.1059 -0.1055  0.0057
37936OCT     C175871  18.470  19.483  21.361 -0.0563 -0.2637 -0.0678
37936OCT     C275872  18.025  19.703  21.444 -0.1829  0.0209 -0.0102
37937OCT     C175873   9.451  20.314   2.346  0.2674 -0.1827  0.2812
37937OCT     C275874   9.705  20.671   2.259  0.0784  0.1616  0.1808
37938OCT     C175875  22.056  22.336  12.999  0.3198  0.0615 -0.0345
37938OCT     C275876  22.064  21.881  12.967 -0.0430 -0.0819  0.0738
37939OCT     C175877  18.559  23.692  16.644  0.3409 -0.0792  0.2772
37939OCT     C275878  18.433  23.279  16.575  0.2690  0.2034 -0.0821
37940OCT     C175879  20.183  20.881   1.408  0.1868 -0.4006 -0.3678
37940OCT     C275880  19.892  20.700   1.761 -0.2212 -0.2133 -0.3270
37941OCT     C175881   9.091   9.071   2.791 -0.0738  0.3012 -0.0811
37941OCT     C275882   8.854   8.645   2.812 -0.1784 -0.4058  0.2865
37942OCT     C175883  23.167  14.369  16.864 -0.2199  0.1074  0.0071
37942OCT     C275884  23.577  14.682  16.852 -0.1163  0.1574  0.2731
37943OCT     C175885   6.979  14.560   6.227  0.2627 -0.2603 -0.1138
37943OCT     C275886   6.581  14.719   6.432 -0.0343  0.0832  0.1077
37944OCT     C175887   6.823   3.830   0.419  0.1742  0.0178  0.1574
37944OCT     C275888   6.455   4.084   0.509  0.2845 -0.1557 -0.0066
37945OCT     C175889   2.183  15.307  15.264 -0.4489  0.0805  0.1650
37945OCT     C275890   2.338  15.755  15.334  0.1134  0.0342  0.2210
37946OCT     C175891   6.449  21.710   8.687  0.0991  0.0733  0.0879
37946OCT     C275892   6.935  21.822   8.663 -0.3780 -0.1071  0.0269
37947OCT     C175893   8.529  10.873   8.961  0.0119  0.1358 -0.1073
37947OCT     C275894   8.076  10.951   8.887  0.0996 -0.0416 -0.1983
37948OCT     C175895  20.389   1.108  12.076  0.1574  0.1084 -0.1130
37948OCT     C275896  20.698   1.070  11.725 -0.0730 -0.2275  0.1882
37949OCT     C175897  21.056  14.078  21.042  0.1424  0.1264 -0.2545
37949OCT     C275898  20.707  14.067  21.361  0.0496  0.0768  0.3999
37950OCT     C175899  15.022  11.356  12.481  0.0325 -0.1763  0.2083
37950OCT     C275900  15.301  11.766  12.622  0.0024  0.2356  0.1179
37951OCT     C175901  13.840  10.038   2.213  0.1326 -0.2429  0.2098
37951OCT     C275902  13.505  10.226   1.927 -0.0992  0.0412 -0.0996
37952OCT     C175903  16.138   4.008   0.039 -0.0534 -0.1414 -0.1143
37952OCT     C275904  15.860   3.642   0.278 -0.1417  0.1477  0.0347
37953OCT     C175905   6.170  18.440  18.288 -0.1310  0.2041 -0.0469
37953OCT     C275906   5.906  18.879  18.265 -0.1672  0.3779  0.1466
37954OCT     C175907  13.276   6.673  10.104  0.4663  0.2318  0.3552
37954OCT     C275908  12.862   6.913  10.035  0.0756 -0.1057 -0.0781
37955OCT     C175909  23.009  15.285   2.605  0.0010  0.0834 -0.1582
37955OCT     C275910  23.261  15.591   2.783 -0.0997 -0.4494 -0.0010
37956OCT     C175911  11.394  19.360  11.584  0.1930  0.0470 -0.0235
37956OCT     C275912  11.476  19.836  11.412  0.1376 -0.0661 -0.1305
37957OCT     C175913   7.484   9.802  21.576  0.4293  0.3767  0.1173
37957OCT     C275914   7.677   9.384  21.669 -0.0118 -0.4144 -0.0172
37958OCT     C175915  12.971  16.010  10.554 -0.0673  0.2019  0.2473
37958OCT     C275916  12.529  15.973  10.768 -0.0227 -0.2022 -0.2181
37959OCT     C175917  17.031   5.023  17.555  0.0950  0.0284  0.2277
37959OCT     C275918  16.678   5.369  17.693 -0.3862  0.1233  0.3338
37960OCT     C175919   5.943  20.731  14.703  0.0645 -0.0311  0.1258
37960OCT     C275920   5.912  20.523  15.173  0.1552 -0.0762  0.1558
37961OCT     C175921  10.387  19.276  17.004 -0.2906 -0.0469 -0.1060
37961OCT     C275922  10.214  18.857  17.090 -0.0050 -0.4576  0.1112
37962OCT     C175923  15.129   3.206  11.935 -0.2279  0.2235  0.2693
37962OCT     C275924  15.349   3.635  12.000  0.1184 -0.0265  0.0512
37963OCT     C175925  21.442  16.317  18.567 -0.0247 -0.2541  0.0533
37963OCT     C275926  21.817  16.295  18.873 -0.3195  0.0761 -0.3540
37964OCT     C175927   3.215  14.121  12.205  0.0666 -0.4304  0.0625
37964OCT     C275928   3.419  13.727  12.396  0.0114 -0.0542  0.3348
37965OCT     C175929   7.560  20.342  23.662  0.1136 -0.0990 -0.1073
37965OCT     C275930   7.496  19.955  23.428  0.0095  0.0615  0.1243
37966OCT     C175931  14.657   7.962   8.675 -0.0960 -0.1121  0.1884
37966OCT     C275932  14.370   8.322   8.771 -0.1036  0.1438 -0.2110
37967OCT     C175933   9.535   0.596  20.246 -0.3124  0.0451  0.2994
37967OCT     C275934   9.904   0.348  20.035 -0.0563  0.1906 -0.0278
37968OCT     C175935  15.808   7.461   3.923  0.1798 -0.2815 -0.0316
37968OCT     C275936  15.396   7.368   4.104 -0.3440 -0.2401 -0.2696
37969OCT     C175937   4.329   3.152   4.822 -0.0197 -0.0900 -0.0604
37969OCT     C275938   4.624   3.427   4.608  0.0344  0.1154  0.1098
37970OCT     C175939  10.184   1.314  23.063 -0.4693  0.3518 -0.2189
37970OCT     C275940   9.890   1.501  22.773 -0.3521 -0.1178 -0.0304
37971OCT     C175941  23.553   6.493  21.878 -0.2087  0.3303 -0.2319
37971OCT     C275942  23.390   6.888  21.680 -0.1585 -0.0213 -0.1529
37972OCT     C175943  18.895  19.612   4.906  0.1543 -0.0120 -0.1034
37972OCT     C275944  18.540  19.864   5.067  0.3057 -0.0673 -0.1448
37973OCT     C175945   6.868  19.507  15.174  0.0118  0.1513  0.2200
37973OCT     C275946   6.637  19.436  14.775 -0.1445 -0.2534 -0.4363
37974OCT     C175947  16.707   4.451  19.232  0.2155  0.0130  0.3019
37974OCT     C275948  16.979   4.281  19.597 -0.1372 -0.1710 -0.2823
37975OCT     C175949  18.610   4.810  21.327  0.3495  0.2619  0.3840
37975OCT     C275950  18.522   4.996  21.739  0.1445  0.0174  0.0290
37976OCT     C175951   7.991   0.497   8.967 -0.4436 -0.0027 -0.2446
37976OCT     C275952   7.834   0.366   8.565 -0.1071 -0.2445 -0.2926
37977OCT     C175953  15.370   7.782  10.107  0.1699  0.1819  0.4148
37977OCT     C275954  15.748   7.897  10.308 -0.3954  0.1002 -0.4564
37978OCT     C175955   9.297   4.211  12.192  0.2049  0.1585 -0.3591
37978OCT     C275956   9.032   4.025  12.459  0.1261  0.1010  0.0731
37979OCT     C175957   7.902   0.271  14.407 -0.0337  0.0648 -0.1274
37979OCT     C275958   7.869  23.570  14.253 -0.1980  0.1999  0.0591
37980OCT     C175959  18.870  17.857  16.212 -0.0608  0.0175  0.0872
37980OCT     C275960  18.637  17.889  15.832  0.1348  0.0591  0.1786
37981OCT     C175961  22.633  21.446  15.915  0.0349 -0.2084  0.1394
37981OCT     C275962  22.208  21.244  15.942  0.0116  0.0767 -0.3521
37982OCT     C175963  10.916  18.833   5.766 -0.2855  0.5723  0.0274
37982OCT     C275964  11.179  18.453   5.595 -0.0036  0.2031  0.0151
37983OCT     C175965  10.503  22.208   2.921 -0.1981  0.1794  0.1055
37983OCT     C275966  10.165  21.902   2.829 -0.3106  0.2603 -0.0020
37984OCT     C175967   7.186  21.704  18.713 -0.0565 -0.1444 -0.4187
37984OCT     C275968   7.388  21.785  19.167  0.0473 -0.5992  0.3989
37985OCT     C175969  19.276  21.375  12.575 -0.1709 -0.3092 -0.1571
37985OCT     C275970  18.884  21.238  12.745  0.3508  0.0352  0.1478
37986OCT     C175971  13.992  22.845  19.810  0.3570  0.0826 -0.0309
37986OCT     C275972  13.764  22.462  19.853 -0.0094  0.3215  0.1186
37987OCT     C175973   1.113  10.051   8.458 -0.0252  0.3696  0.2681
37987OCT     C275974   1.018  10.257   8.068 -0.1091  0.1186  0.3408
37988OCT     C175975  22.114  15.145  23.624 -0.1830  0.0645  0.0740
37988OCT     C275976  21.939  15.217   0.365  0.4255  0.2113  0.2405
37989OCT     C175977  23.161   3.158   3.555  0.1299  0.0655  0.2096
37989OCT     C275978  23.461   2.816   3.523 -0.2667  0.0326 -0.4266
37990OCT     C175979   3.899   4.227   7.231  0.2648  0.0677  0.1065
37990OCT     C275980   4.069   3.811   7.199 -0.4619  0.2210 -0.0470
37991OCT     C175981  16.875  11.900   5.082 -0.2342  0.2557  0.0104
37991OCT     C275982  16.475  12.184   5.130  0.0927  0.5064 -0.1427
37992OCT     C175983  19.639   5.860   8.818  0.0890  0.0362 -0.2032
37992OCT     C275984  19.659   5.467   8.608 -0.3678  0.0131  0.0658
37993OCT     C175985   7.597   6.480   5.305 -0.0442  0.3019 -0.2171
37993OCT     C275986   7.892   6.628   5.561 -0.0060  0.0637  0.2119
37994OCT     C175987  17.195   1.751   3.903  0.1863 -0.0778  0.1999
37994OCT     C275988  16.729   1.617   4.004 -0.4865  0.0802  0.1423
37995OCT     C175989   6.332  11.661   2.648  0.2111 -0.0590  0.0852
37995OCT     C275990   6.167  11.857   2.237 -0.1120  0.1487  0.0266
37996OCT     C175991   7.616  19.051  21.585  0.2777  0.0468  0.2998
37996OCT     C275992   7.801  18.714  21.333  0.2296 -0.1362 -0.2415
37997OCT     C175993  11.008  15.055  15.684  0.3731 -0.3861  0.2566
37997OCT     C275994  11.395  14.962  15.912  0.0985 -0.1857 -0.0277
37998OCT     C175995  19.419  10.074  19.326 -0.1007  0.0365  0.0242
37998OCT     C275996  19.535   9.654  19.571 -0.0242  0.0219  0.0514
37999OCT     C175997   8.993  21.653   4.889  0.1147 -0.0500  0.2361
37999OCT     C275998   8.851  22.108   5.065 -0.0760 -0.0635 -0.1218
38000OCT     C175999  14.667  15.431  10.251 -0.0897  0.2397 -0.2829
38000OCT     C276000  14.717  15.045  10.568  0.4392  0.0439 -0.2751
38001OCT     C176001  19.800  14.623  11.376  0.3530 -0.1583  0.3038
38001OCT     C276002  19.790  14.538  11.835 -0.0511 -0.3192  0.0691
38002OCT     C176003   6.396   8.581  21.626  0.1164  0.0972  0.0490
38002OCT     C276004   5.989   8.694  21.485 -0.3100  0.1889  0.2406
38003OCT     C176005  10.960   9.115  10.727  0.3474  0.2692 -0.1201
38003OCT     C276006  10.850   9.102  10.246 -0.1743 -0.1972 -0.1115
38004OCT     C176007  19.171   7.988  20.121 -0.0620 -0.7094 -0.0280
38004OCT     C276008  18.856   8.306  20.009  0.0942  0.1914 -0.0633
38005OCT     C176009  16.553   2.911  17.805  0.0022  0.4021  0.0960
38005OCT     C276010  16.917   2.688  17.617 -0.2519 -0.1075 -0.5669
38006OCT     C176011  20.257   8.014   6.583  0.0222 -0.0414 -0.0113
38006OCT     C276012  19.854   8.017   6.325  0.3687 -0.0930  0.2620
38007OCT     C176013   8.925  17.888  21.078 -0.3188 -0.5116 -0.0981
38007OCT     C276014   8.532  17.634  21.089  0.2048 -0.0256 -0.3142
38008OCT     C176015  16.541   4.930  13.761 -0.0463 -0.0662  0.0244
38008OCT     C276016  16.358   4.928  13.360  0.2261 -0.4139 -0.0622
38009OCT     C176017   5.353  11.118   7.498 -0.2171 -0.3409  0.1775
38009OCT     C276018   5.540  11.547   7.465  0.1603 -0.3200  0.2017
38010OCT     C176019  22.201  11.033   3.391 -0.5608 -0.1311 -0.2291
38010OCT     C276020  22.269  11.509   3.432 -0.7279  0.1243 -0.2498
38011OCT     C176021   5.632  22.344   5.098 -0.1255 -0.2950  0.1066
38011OCT     C276022   5.736  21.923   5.042 -0.0053  0.2818  0.2992
38012OCT     C176023   5.104  10.135  10.726  0.1657  0.0784  0.1217
38012OCT     C276024   5.007  10.644  10.848  0.0203  0.0209 -0.0619
38013OCT     C176025  12.903  21.403  12.334 -0.2206 -0.0205 -0.0163
38013OCT     C276026  13.097  21.416  12.706  0.0076  0.2088  0.1933
38014OCT     C176027   6.488  18.510  22.111 -0.0951  0.0113  0.0486
38014OCT     C276028   6.836  18.791  22.336 -0.0216 -0.3866  0.2512
38015OCT     C176029   9.197   1.926  19.005 -0.3332 -0.1881  0.1394
38015OCT     C276030   9.279   1.572  18.702 -0.1066  0.1003  0.3637
38016OCT     C176031   3.969   3.347  16.056  0.0203 -0.0620 -0.0545
38016OCT     C276032   4.292   3.114  15.815 -0.2426 -0.0466  0.1452
38017OCT     C176033  22.151  18.034   5.042  0.0149 -0.1315 -0.0010
38017OCT     C276034  21.788  18.213   5.184 -0.2044  0.3940  0.0824
38018OCT     C176035   9.399  11.556  18.953 -0.0672 -0.3159 -0.4449
38018OCT     C276036   9.856  11.448  19.055  0.3313  0.0661  0.2209
38019OCT     C176037  23.272   5.226  11.414  0.2027 -0.3754 -0.1134
38019OCT     C276038   0.022   5.229  11.349 -0.2622  0.0839 -0.0477
38020OCT     C176039  19.201  13.280  14.832 -0.2148 -0.1508 -0.0623
38020OCT     C276040  19.610  13.444  15.137  0.0647 -0.2051  0.1969
38021OCT     C176041   1.832  22.024  10.315  0.0875  0.4590 -0.1583
38021OCT     C276042   1.999  21.689  10.561  0.2831  0.0616 -0.2299
38022OCT     C176043   0.812  18.158   4.009  0.0342 -0.0713  0.0710
38022OCT     C276044   0.691  18.083   4.470  0.3963  0.1033  0.1406
38023OCT     C176045  15.876   8.546   4.791 -0.0111 -0.0223 -0.0631
38023OCT     C276046  15.682   8.749   5.205 -0.1523  0.0337 -0.1895
38024OCT     C176047  21.501  17.991   4.865  0.0787  0.1098 -0.1530
38024OCT     C276048  21.541  18.414   4.687 -0.2197  0.0856 -0.2518
38025OCT     C176049   9.324   9.511  17.833  0.0982  0.0939 -0.0891
38025OCT     C276050   9.409   9.702  17.401  0.1938  0.1713  0.1328
38026OCT     C176051   0.025  18.365   0.246  0.2035  0.0457 -0.2051
38026OCT     C276052  23.293  18.256   0.383  0.1411  0.0215 -0.1581
38027OCT     C176053   2.344   0.807  17.183  0.0590 -0.2294  0.3272
38027OCT     C276054   2.576   0.821  16.776 -0.1694 -0.2844  0.1000
38028OCT     C176055   9.624  16.211  15.926 -0.2324 -0.0256  0.3756
38028OCT     C276056   9.607  15.742  15.818  0.4416  0.1459  0.2942
38029OCT     C176057  13.922   4.603  12.160 -0.0065 -0.0670 -0.1331
38029OCT     C276058  13.778   5.018  12.337  0.2322  0.2619  0.0647
38030OCT     C176059  23.245   5.734   9.306  0.0732 -0.4408  0.0378
38030OCT     C276060  23.588   5.575   9.603  0.0017 -0.0947 -0.0177
38031OCT     C176061  10.728  16.922  13.355 -0.2747 -0.0598 -0.1397
38031OCT     C276062  10.394  16.653  13.218 -0.2178  0.0556 -0.2032
38032OCT     C176063  19.367   4.326   5.717 -0.1087  0.7675 -0.5612
38032OCT     C276064  19.686   3.960   5.799  0.0362  0.1947  0.2286
38033OCT     C176065  23.126  20.849  22.537  0.2264 -0.1499  0.2288
38033OCT     C276066  23.369  20.476  22.666 -0.1646 -0.1893  0.3378
38034OCT     C176067  17.213   2.806  18.353 -0.1175 -0.1870  0.1974
38034OCT     C276068  17.248   2.763  18.793 -0.1517 -0.0162  0.0026
38035OCT     C176069   0.847   3.088  11.630  0.0923  0.0032  0.3499
38035OCT     C276070   0.956   2.737  11.932 -0.0225  0.1642  0.0639
38036OCT     C176071  18.338   1.573   2.591 -0.1867  0.0028  0.2474
38036OCT     C276072  18.512   1.183   2.751  0.0678 -0.0545  0.5511
38037OCT     C176073   1.034   9.249   8.248  0.1010 -0.1253  0.2773
38037OCT     C276074   1.007   8.821   8.518 -0.0552  0.2176  0.5588
38038OCT     C176075   2.178   9.018   9.665  0.1521  0.1263 -0.1206
38038OCT     C276076   1.993   9.143  10.105  0.2874  0.4718 -0.2719
38039OCT     C176077   9.520  14.507   8.322  0.1769  0.0037 -0.1313
38039OCT     C276078   9.945  14.346   8.064 -0.0207 -0.3657 -0.0581
38040OCT     C176079   7.552   6.887  13.749  0.3803 -0.0214  0.3038
38040OCT     C276080   7.190   6.688  13.528  0.1315  0.1634 -0.0486
38041OCT     C176081  18.263  16.909  18.800  0.1653  0.0884 -0.0261
38041OCT     C276082  18.223  17.329  18.578 -0.4655 -0.1386 -0.1401
38042OCT     C176083   2.143   8.483   4.558 -0.0601 -0.3297 -0.0930
38042OCT     C276084   2.339   8.252   4.965  0.2193  0.1746 -0.1714
38043OCT     C176085  19.415   3.375   3.914 -0.0212 -0.1219 -0.2992
38043OCT     C276086  19.057   3.126   3.863  0.0846  0.0807  0.1193
38044OCT     C176087  19.000  15.823   1.129 -0.0515  0.0389 -0.0697
38044OCT     C276088  18.662  15.542   0.947 -0.0114 -0.0328 -0.0603
38045OCT     C176089  14.533   3.541   0.586 -0.0969 -0.0045  0.1414
38045OCT     C276090  14.411   3.358   0.180 -0.0752 -0.0459  0.1128
38046OCT     C176091  17.380  11.996  19.598 -0.1882  0.0236  0.1877
38046OCT     C276092  17.089  11.792  19.330 -0.0185 -0.3504 -0.1282
38047OCT     C176093   0.092  20.477  16.543 -0.1526  0.1538 -0.2060
38047OCT     C276094   0.079  20.559  16.091  0.0485  0.2101 -0.2367
38048OCT     C176095  17.534  11.965  14.008 -0.0289 -0.0086  0.1419
38048OCT     C276096  17.783  12.253  13.727 -0.1858 -0.0030 -0.2564
38049OCT     C176097   2.524  16.788  21.984  0.1504  0.2155  0.1531
38049OCT     C276098   2.894  17.080  22.072  0.0370 -0.1136  0.3905
38050OCT     C176099  22.058  13.644  13.217 -0.3563 -0.1145 -0.1414
38050OCT     C276100  22.501  13.636  13.375 -0.0441  0.3543  0.0732
38051OCT     C176101   6.956   4.319  21.110 -0.0115  0.0506  0.3422
38051OCT     C276102   6.868   4.607  21.482  0.2304 -0.1919  0.0295
38052OCT     C176103   1.963   6.733  22.358 -0.0069  0.0858 -0.0774
38052OCT     C276104   1.771   6.511  21.973 -0.1351 -0.2841  0.1308
38053OCT     C176105   7.027   8.136   4.795  0.4250 -0.0990  0.1985
38053OCT     C276106   7.138   8.607   4.868  0.0334 -0.1987 -0.1390
38054OCT     C176107  11.005   2.878   5.299  0.1132  0.1152 -0.4266
38054OCT     C276108  11.344   3.156   5.466 -0.3879 -0.2926  0.1143
38055OCT     C176109   9.740   6.003  20.145  0.5311  0.0350  0.0434
38055OCT     C276110  10.186   6.116  20.180  0.6479  0.0155  0.1270
38056OCT     C176111  20.051   6.342   3.448 -0.4132  0.5318 -0.1561
38056OCT     C276112  19.642   6.202   3.247 -0.1031 -0.0790  0.1347
38057OCT     C176113  15.664  16.647  11.593 -0.1330 -0.2197  0.1795
38057OCT     C276114  15.922  16.401  11.286  0.1760 -0.0099 -0.0248
38058OCT     C176115  21.445  10.503  15.034 -0.1053  0.2038 -0.1091
38058OCT     C276116  21.685  10.340  15.454  0.0702  0.0190  0.0762
38059OCT     C176117   0.136   9.200  20.824 -0.3130 -0.1706  0.0910
38059OCT     C276118   0.007   9.481  20.515  0.0742 -0.0842 -0.0659
38060OCT     C176119   3.452  22.652  19.684 -0.0038  0.1688  0.0481
38060OCT     C276120   3.552  22.919  20.034  0.2722  0.0051  0.0609
38061OCT     C176121  19.057  19.682  22.818 -0.0635  0.4012 -0.1121
38061OCT     C276122  18.762  19.876  23.160 -0.1820  0.0338  0.0106
38062OCT     C176123  19.621  13.379  20.171  0.1976  0.0898  0.1187
38062OCT     C276124  19.659  13.337  20.618  0.0318  0.5091  0.0456
38063OCT     C176125  20.704   9.273   5.451 -0.1160  0.2441  0.1172
38063OCT     C276126  20.652   9.690   5.499 -0.0209  0.2581  0.1186
38064OCT     C176127   2.209   7.018  15.660  0.0166  0.0251 -0.0757
38064OCT     C276128   1.824   7.302  15.725 -0.0047  0.2086  0.0126
38065OCT     C176129   3.645   3.399  10.357  0.1450 -0.4462  0.2190
38065OCT     C276130   4.055   3.296  10.172  0.1262 -0.0283 -0.1572
38066OCT     C176131  17.689  18.058   2.129 -0.0824 -0.2756 -0.5065
38066OCT     C276132  17.731  18.460   1.918  0.3153 -0.0662 -0.2248
38067OCT     C176133   1.986  18.311  10.103 -0.0316 -0.2670 -0.3922
38067OCT     C276134   1.919  18.455   9.650 -0.1528  0.4483  0.4766
38068OCT     C176135  10.321  18.306  13.472  0.0767  0.0044  0.1271
38068OCT     C276136   9.901  18.163  13.304  0.2495  0.1885 -0.0612
38069OCT     C176137  18.761  13.936   6.073 -0.0021 -0.1633  0.0704
38069OCT     C276138  19.073  13.642   5.939  0.0786  0.2146 -0.2202
38070OCT     C176139   7.334  18.978   8.169 -0.1926 -0.2572  0.0966
38070OCT     C276140   6.869  18.929   8.269 -0.1353 -0.1779 -0.2812
38071OCT     C176141  16.382  21.506  22.466  0.1363  0.1970 -0.0126
38071OCT     C276142  16.195  21.585  22.027  0.0546 -0.2908  0.2249
38072OCT     C176143  11.441  19.649   2.262  0.3280 -0.2684  0.0687
38072OCT     C276144  10.913  19.684   2.296  0.0543 -0.2207 -0.1189
38073OCT     C176145  16.021   9.073   0.491 -0.1901 -0.2393 -0.2463
38073OCT     C276146  16.099   8.960   0.959  0.1924 -0.2378 -0.0884
38074OCT     C176147  17.507  10.042  18.845 -0.1621  0.0237 -0.3409
38074OCT     C276148  17.606   9.793  18.454  0.3579 -0.0400  0.0900
38075OCT     C176149   0.234   8.146  20.804  0.1318 -0.2003 -0.0995
38075OCT     C276150   0.138   8.203  20.363 -0.0919  0.0877  0.0701
38076OCT     C176151  16.112  15.568  20.083  0.0896  0.1076  0.0960
38076OCT     C276152  16.420  15.918  20.240 -0.0083  0.0236  0.0191
38077OCT     C176153  18.061   9.121  18.579  0.0821 -0.1838 -0.1948
38077OCT     C276154  17.953   8.722  18.725  0.0061 -0.0031 -0.2258
38078OCT     C176155   1.780  17.841  10.782  0.1543 -0.0777 -0.2865
38078OCT     C276156   1.844  18.282  10.906 -0.5085  0.1439  0.1949
38079OCT     C176157   8.039  23.474  11.815 -0.0726  0.0777  0.2211
38079OCT     C276158   8.027  23.350  11.341  0.0136  0.0324  0.1940
38080OCT     C176159  21.897  13.386  11.000  0.1347  0.1349 -0.1795
38080OCT     C276160  21.729  13.722  10.731 -0.1986 -0.0012  0.0356
38081OCT     C176161   2.037   1.783   9.261  0.0734  0.3062 -0.1006
38081OCT     C276162   1.854   1.608   8.843 -0.2081  0.4892 -0.2444
38082OCT     C176163  14.492  13.837  12.022  0.1887 -0.0499 -0.0118
38082OCT     C276164  14.339  13.920  12.436  0.3694 -0.2860  0.1545
38083OCT     C176165   0.947  16.222  17.372  0.1877  0.1070  0.0444
38083OCT     C276166   1.192  16.314  17.056 -0.3862 -0.2411  0.0483
38084OCT     C176167   4.491  17.515   2.002  0.2303 -0.3103 -0.0708
38084OCT     C276168   4.628  17.914   1.761  0.0266 -0.1345  0.2482
38085OCT     C176169  20.335   1.425  23.165 -0.0012 -0.0731  0.0772
38085OCT     C276170  20.309   1.404  23.607 -0.2936 -0.1413 -0.3699
38086OCT     C176171  19.689  11.972  17.688 -0.2494 -0.2201  0.0814
38086OCT     C276172  19.832  11.879  17.207  0.1493 -0.1744  0.0793
38087OCT     C176173   5.204   4.099  13.684 -0.3282 -0.0271  0.0990
38087OCT     C276174   5.347   3.824  14.075 -0.2311 -0.2250 -0.0037
38088OCT     C176175  21.440  22.401  12.791 -0.0587  0.1489  0.0412
38088OCT     C276176  21.015  22.483  12.909  0.1381 -0.0511 -0.3644
38089OCT     C176177   9.416   3.326  18.281  0.3027 -0.0677 -0.2121
38089OCT     C276178   9.211   3.700  18.072 -0.0894 -0.1312 -0.0096
38090OCT     C176179  22.051   3.659   1.808 -0.0835  0.0936  0.3476
38090OCT     C276180  22.230   3.517   2.248 -0.0895 -0.2012  0.2070
38091OCT     C176181  19.488  22.052   0.803 -0.2963  0.1083 -0.3481
38091OCT     C276182  19.458  22.061   0.319 -0.1323  0.0032  0.4172
38092OCT     C176183   6.582  18.449   6.234  0.1642 -0.4813 -0.3379
38092OCT     C276184   6.724  18.836   6.038  0.2395  0.0389  0.2190
38093OCT     C176185  21.443  23.650   2.387  0.1808 -0.1592 -0.0305
38093OCT     C276186  21.375   0.388   2.382  0.0967  0.3048  0.2979
38094OCT     C176187   9.643   0.268   8.839 -0.2508 -0.1558 -0.4673
38094OCT     C276188   9.487   0.116   8.481 -0.0329  0.1654 -0.0823
38095OCT     C176189  21.734   6.714  15.538  0.3135 -0.0485 -0.2210
38095OCT     C276190  21.244   6.713  15.460 -0.1477 -0.0251 -0.1404
38096OCT     C176191   8.158  21.140   5.049 -0.0138 -0.0898  0.3055
38096OCT     C276192   8.354  20.966   5.476 -0.0226 -0.5596 -0.0940
38097OCT     C176193  12.409  20.228   6.677  0.0028 -0.1943  0.1902
38097OCT     C276194  12.807  20.291   6.511 -0.3584  0.3518  0.2747
38098OCT     C176195  10.171   6.597  17.685 -0.1631 -0.1747 -0.1117
38098OCT     C276196   9.892   6.347  18.001 -0.0506  0.3575 -0.0648
38099OCT     C176197  11.899  17.898   6.888  0.1607 -0.3425  0.3320
38099OCT     C276198  11.423  17.940   6.819  0.1580  0.0890 -0.1063
38100OCT     C176199   7.248   7.786  21.046  0.2812  0.1574 -0.4331
38100OCT     C276200   7.578   7.571  20.852  0.0182 -0.2921 -0.1117
38101OCT     C176201  10.877   6.812   3.675 -0.1925 -0.1185  0.4007
38101OCT     C276202  10.826   6.349   3.789  0.0694  0.0261 -0.0559
38102OCT     C176203   6.703  11.454   7.662 -0.1445  0.0673 -0.2071
38102OCT     C276204   6.780  10.998   7.625  0.0779  0.0521 -0.2349
38103OCT     C176205   3.651  15.792  18.314  0.3276  0.1215 -0.0429
38103OCT     C276206   3.781  16.070  18.705 -0.2315  0.0888 -0.0936
38104OCT     C176207   6.906   7.779   0.769  0.0306  0.2788  0.3133
38104OCT     C276208   7.342   7.817   0.989  0.4663  0.0758  0.0370
38105OCT     C176209   2.498  11.466   8.260  0.1669 -0.1032  0.1494
38105OCT     C276210   2.724  11.771   7.997 -0.1601  0.0858 -0.2196
38106OCT     C176211  15.755   1.274   8.337  0.4385 -0.2228  0.1271
38106OCT     C276212  15.768   1.120   8.754 -0.1583 -0.1110 -0.0914
38107OCT     C176213  19.303  20.772  14.805 -0.1269  0.1295  0.1479
38107OCT     C276214  18.935  20.664  15.011  0.1657 -0.2979 -0.3317
38108OCT     C176215  14.886   1.386  15.664  0.2257  0.1716  0.1160
38108OCT     C276216  15.263   1.630  15.667 -0.0356  0.0805 -0.0218
38109OCT     C176217  11.533  12.539   2.387 -0.4245  0.2144  0.1505
38109OCT     C276218  11.735  12.760   2.817 -0.3119  0.1401  0.1441
38110OCT     C176219  20.612  13.462  22.064 -0.3520 -0.2662 -0.4438
38110OCT     C276220  20.295  13.640  21.728 -0.0911 -0.0727 -0.1021
38111OCT     C176221   5.980   8.742  14.820 -0.0621 -0.1166  0.1622
38111OCT     C276222   5.629   8.490  15.031 -0.2445 -0.0652 -0.0275
38112OCT     C176223   4.316   1.031   7.273 -0.2214 -0.0200  0.3621
38112OCT     C276224   4.309   0.615   7.203 -0.0276  0.0792  0.5338
38113OCT     C176225   6.422   4.480  20.004  0.2469  0.4870 -0.1892
38113OCT     C276226   6.413   4.484  19.514 -0.1077  0.0194  0.4070
38114OCT     C176227  15.286  14.219   3.589 -0.0532  0.1155  0.0861
38114OCT     C276228  15.409  14.552   3.231 -0.1926  0.0543  0.1174
38115OCT     C176229  14.285  23.700  17.617  0.1465  0.2833 -0.1149
38115OCT     C276230  14.091  23.661  17.202  0.1713 -0.0407  0.0093
38116OCT     C176231  19.971  20.346   9.569  0.0245  0.2590  0.0168
38116OCT     C276232  20.132  20.680   9.316  0.1292 -0.2475  0.2495
38117OCT     C176233  19.179  20.918   4.886  0.1873 -0.2633  0.0113
38117OCT     C276234  19.622  20.933   4.907 -0.3320  0.6060  0.0365
38118OCT     C176235  22.880  13.460   0.970  0.0795 -0.1628 -0.0941
38118OCT     C276236  22.493  13.363   0.708 -0.2956  0.0994 -0.1571
38119OCT     C176237  17.316  17.648   6.199 -0.1386 -0.2257 -0.1818
38119OCT     C276238  17.508  17.827   6.631 -0.1085 -0.0593  0.0820
38120OCT     C176239  13.742   8.675  22.962  0.1419  0.2478  0.1662
38120OCT     C276240  13.674   8.958  23.287  0.2418  0.0046  0.2975
38121OCT     C176241  19.524   2.011   4.197  0.1216  0.2475  0.0592
38121OCT     C276242  19.738   2.259   4.526 -0.1247 -0.0370  0.2924
38122OCT     C176243   0.510  15.361   4.214  0.1571 -0.1497 -0.1676
38122OCT     C276244   0.703  15.488   4.582 -0.3464 -0.0151 -0.0822
38123OCT     C176245   1.944   8.497   5.050  0.0269  0.4476  0.0862
38123OCT     C276246   1.977   8.873   5.294 -0.0915  0.0824 -0.1288
38124OCT     C176247  21.660   0.351  22.502  0.0914 -0.3563 -0.0398
38124OCT     C276248  21.401   0.699  22.323 -0.2135  0.1469 -0.3539
38125OCT     C176249   2.667  14.303  22.235  0.0453 -0.2342  0.4573
38125OCT     C276250   3.130  14.450  22.227 -0.1401  0.3116  0.1777
38126OCT     C176251  18.709   5.167  14.082  0.0699  0.2457 -0.0447
38126OCT     C276252  18.457   5.516  13.937  0.1242 -0.0027  0.2082
38127OCT     C176253  11.116  14.740   3.785 -0.1121  0.0751 -0.3542
38127OCT     C276254  11.230  14.524   4.174  0.2581 -0.2897  0.2565
38128OCT     C176255   6.861  17.248  21.831  0.1555  0.3364 -0.0973
38128OCT     C276256   6.440  17.103  21.643 -0.1225 -0.3581 -0.1104
38129OCT     C176257  11.414   0.981   9.942 -0.2156  0.3118 -0.0374
38129OCT     C276258  11.107   0.887  10.295  0.1797  0.1500  0.1100
38130OCT     C176259   2.124  19.223  23.616 -0.2236  0.0770  0.5886
38130OCT     C276260   2.370  18.820  23.378  0.0044  0.3430 -0.0860
38131OCT     C176261   7.852  13.004  15.249  0.1419 -0.0349  0.0299
38131OCT     C276262   7.746  13.243  15.588 -0.3849  0.0158 -0.1103
38132OCT     C176263   1.001  16.263  20.128  0.1686 -0.1546  0.0902
38132OCT     C276264   1.041  16.728  20.079 -0.4355 -0.1466 -0.1894
38133OCT     C176265   8.741  11.557  19.678  0.6013 -0.2374 -0.0244
38133OCT     C276266   9.023  11.738  19.320 -0.0458  0.2935  0.4144
38134OCT     C176267  15.645  21.163  23.064  0.1273  0.3371  0.3667
38134OCT     C276268  15.602  21.062  22.574 -0.0216  0.1234  0.1085
38135OCT     C176269  16.310  15.177  17.090 -0.2791  0.3451  0.0249
38135OCT     C276270  15.880  15.299  17.036 -0.0085 -0.1505  0.1140
38136OCT     C176271   5.581   3.125  16.717 -0.0385 -0.0233 -0.2489
38136OCT     C276272   5.223   2.814  16.606  0.1444 -0.3488  0.0348
38137OCT     C176273  19.459  23.703   2.769 -0.3082 -0.0018  0.1470
38137OCT     C276274  19.643  23.331   2.584 -0.2138 -0.2981  0.0318
38138OCT     C176275  11.073   3.408   4.348  0.4128 -0.3933  0.4984
38138OCT     C276276  10.627   3.328   4.503 -0.2983  0.1701 -0.0504
38139OCT     C176277   6.327  16.491   8.306 -0.0206  0.1286 -0.0116
38139OCT     C276278   6.191  16.187   8.620 -0.0652 -0.0359  0.1087
38140OCT     C176279  21.038  20.657   9.633  0.0385  0.0488  0.0929
38140OCT     C276280  21.472  20.790   9.503  0.0509  0.2260  0.3391
38141OCT     C176281  12.091  10.673  13.446 -0.1432  0.3778 -0.0021
38141OCT     C276282  12.217  10.788  13.882 -0.0879  0.0730  0.1541
38142OCT     C176283   5.648  13.579   3.841  0.1048  0.0986  0.1454
38142OCT     C276284   5.345  13.302   4.069  0.0449  0.0143  0.0495
38143OCT     C176285   5.137  11.147   8.882  0.2012 -0.2199  0.0900
38143OCT     C276286   5.568  10.989   8.986  0.1900 -0.2724  0.0459
38144OCT     C176287  15.158   1.960  12.034  0.3333 -0.2722  0.5323
38144OCT     C276288  14.685   2.106  12.065  0.0957 -0.2909  0.1918
38145OCT     C176289   8.213   2.742   0.710  0.1352 -0.3724  0.0414
38145OCT     C276290   8.125   2.401   0.949 -0.0368  0.1326 -0.1672
38146OCT     C176291  14.900  18.813   1.015 -0.2973 -0.5451 -0.1762
38146OCT     C276292  15.016  18.655   0.629  0.1685  0.0815  0.1253
38147OCT     C176293   5.877  15.527  15.450  0.2362  0.1702  0.1551
38147OCT     C276294   6.127  15.136  15.347 -0.2437 -0.1729  0.1843
38148OCT     C176295   6.582   9.152  17.106  0.1799  0.0662 -0.1004
38148OCT     C276296   7.058   9.191  17.238 -0.3044  0.0434  0.4082
38149OCT     C176297  11.223  20.456   6.447 -0.1889  0.0022  0.2088
38149OCT     C276298  11.408  20.479   6.883  0.0372  0.0182  0.3692
38150OCT     C176299  10.183   5.506  16.273 -0.3319 -0.0791  0.3263
38150OCT     C276300  10.244   5.319  15.850 -0.1869 -0.0072 -0.1878
38151OCT     C176301   3.726  20.522  14.576  0.0705  0.0463  0.3387
38151OCT     C276302   3.890  20.349  14.942 -0.2257  0.2722 -0.0682
38152OCT     C176303   5.670  16.406  15.926  0.2476  0.0064  0.1374
38152OCT     C276304   5.379  16.662  16.253  0.0930  0.3644  0.1802
38153OCT     C176305  23.311  15.612  10.491 -0.2796  0.4690 -0.1408
38153OCT     C276306  23.086  15.413  10.854  0.0364 -0.2483 -0.0651
38154OCT     C176307  13.399   9.770  12.613 -0.0240  0.0080 -0.4407
38154OCT     C276308  13.626  10.027  12.931 -0.2321  0.1051 -0.1200
38155OCT     C176309   5.126   9.264  22.052 -0.2641  0.4363  0.1274
38155OCT     C276310   4.752   9.014  22.235  0.2928 -0.0598 -0.1070
38156OCT     C176311  21.221  22.383  23.179  0.1699 -0.0212 -0.0931
38156OCT     C276312  21.620  22.275  23.395  0.3587 -0.1480 -0.0768
38157OCT     C176313  19.834   9.094  18.434 -0.1404 -0.0024  0.2962
38157OCT     C276314  20.240   9.287  18.327  0.0445  0.1438 -0.4150
38158OCT     C176315  19.350  19.087  15.408 -0.0624 -0.1613  0.0443
38158OCT     C276316  19.790  19.127  15.236 -0.1674 -0.1349 -0.1551
38159OCT     C176317  17.852   6.721  18.774 -0.2067  0.0189  0.0338
38159OCT     C276318  17.968   6.492  19.143  0.2552  0.0973 -0.0663
38160OCT     C176319  18.110  21.838  19.782 -0.0514  0.0565  0.0326
38160OCT     C276320  18.566  21.804  19.752 -0.2010 -0.1152  0.1447
38161OCT     C176321  11.100   6.875   7.687 -0.2222 -0.0907 -0.4355
38161OCT     C276322  11.028   6.736   7.274  0.2607  0.2519 -0.0505
38162OCT     C176323  20.707  23.357   1.734  0.2396  0.5502 -0.0480
38162OCT     C276324  20.824   0.105   1.574  0.1313 -0.0359  0.3141
38163OCT     C176325   3.068   2.660   6.741  0.0471 -0.1326  0.1630
38163OCT     C276326   3.268   2.522   7.113  0.1761 -0.0298  0.1773
38164OCT     C176327  15.783  21.820  12.919  0.1835 -0.1699  0.0606
38164OCT     C276328  15.955  22.201  13.132 -0.0404 -0.1320  0.0412
38165OCT     C176329   4.700  14.511  18.384  0.3885  0.3044  0.0784
38165OCT     C276330   4.285  14.518  18.225 -0.2635  0.0811  0.0563
38166OCT     C176331  22.175  18.886  11.043 -0.0969  0.3384 -0.1223
38166OCT     C276332  22.443  18.635  11.342 -0.1843  0.2922  0.0080
38167OCT     C176333  22.084   4.354  17.303  0.4728 -0.1555  0.2650
38167OCT     C276334  22.059   4.201  16.856 -0.4146  0.0548  0.0827
38168OCT     C176335  12.026   3.779   0.675 -0.0759 -0.1623  0.3103
38168OCT     C276336  11.550   3.896   0.564 -0.1485 -0.3777  0.0652
38169OCT     C176337   1.944   6.034   3.624 -0.1327 -0.1908 -0.0492
38169OCT     C276338   2.260   6.084   3.333 -0.1242 -0.1143 -0.1113
38170OCT     C176339  14.475   8.753  20.453 -0.1848  0.1629  0.0163
38170OCT     C276340  14.723   8.551  20.794  0.2510 -0.1629  0.1018
38171OCT     C176341   6.891   8.066  11.428  0.3196 -0.0609  0.1128
38171OCT     C276342   7.184   8.071  11.081  0.4641 -0.0222  0.0803
38172OCT     C176343  23.336  13.999  12.951 -0.2960  0.2703  0.2416
38172OCT     C276344  22.978  13.865  12.731 -0.0286  0.0146  0.2122
38173OCT     C176345  13.338  15.092  18.475 -0.0569 -0.0086  0.2902
38173OCT     C276346  13.162  15.127  18.031 -0.0508 -0.2270 -0.0903
38174OCT     C176347  22.409   3.116  13.414 -0.1712  0.1524  0.2629
38174OCT     C276348  22.713   3.118  12.994 -0.1107  0.1225 -0.0072
38175OCT     C176349  19.299   9.801   0.889  0.0272 -0.0288  0.2806
38175OCT     C276350  19.715   9.578   0.845  0.0946 -0.4152  0.2310
38176OCT     C176351   7.979   4.486   9.067  0.0848 -0.0497  0.0743
38176OCT     C276352   8.030   4.828   9.423 -0.1987  0.2147  0.1220
38177OCT     C176353   1.166  23.464   4.917  0.4368 -0.0519 -0.0175
38177OCT     C276354   1.397  23.355   4.573  0.2595  0.4509  0.0980
38178OCT     C176355  15.566   8.752  20.799 -0.0966  0.0832  0.3580
38178OCT     C276356  15.607   8.512  21.217  0.4597  0.3401  0.0456
38179OCT     C176357   2.090  13.161   3.374  0.1400  0.0734  0.2488
38179OCT     C276358   2.127  13.262   2.873 -0.2590  0.2235  0.0456
38180OCT     C176359  17.766   7.512  15.274  0.3285  0.0522 -0.0036
38180OCT     C276360  17.612   7.278  14.899  0.2108 -0.3101 -0.0804
38181OCT     C176361  14.133  19.541   8.193 -0.3408 -0.0863  0.0211
38181OCT     C276362  14.569  19.441   8.216  0.2457  0.2082 -0.3980
38182OCT     C176363  17.695  21.448  22.563  0.2037 -0.2348 -0.1185
38182OCT     C276364  17.845  21.081  22.361 -0.4106 -0.6158  0.2302
38183OCT     C176365  20.967  11.266   2.306 -0.1953  0.0411 -0.2031
38183OCT     C276366  21.005  11.591   2.670  0.0912  0.1170 -0.0688
38184OCT     C176367  10.886   5.051  12.108  0.1068  0.2658 -0.1380
38184OCT     C276368  11.022   4.609  12.089  0.2431  0.3101  0.0755
38185OCT     C176369  14.217  22.195  21.632 -0.2669 -0.0682  0.4189
38185OCT     C276370  14.678  22.162  21.618  0.0382 -0.3369 -0.1590
38186OCT     C176371  23.502   2.687   9.120 -0.0094  0.1770 -0.0154
38186OCT     C276372  23.094   2.551   9.379  0.2228 -0.1589  0.0216
38187OCT     C176373  20.532   1.892  21.327  0.0410 -0.3271 -0.2388
38187OCT     C276374  20.494   2.343  21.282 -0.0529 -0.0531  0.4561
38188OCT     C176375   5.182   5.506  13.431  0.1200  0.2879  0.1650
38188OCT     C276376   4.952   5.092  13.472 -0.1723  0.0332 -0.0541
38189OCT     C176377  18.160   0.765   0.148 -0.1529 -0.0303 -0.2569
38189OCT     C276378  18.089   0.336   0.087 -0.2900  0.0341 -0.3583
38190OCT     C176379  18.411   3.379   5.252  0.0991 -0.0565  0.0358
38190OCT     C276380  18.260   3.258   4.817 -0.4675  0.1466 -0.1121
38191OCT     C176381   3.646   7.923  17.991  0.2675 -0.0034  0.5108
38191OCT     C276382   3.844   8.116  17.569 -0.0100 -0.0329  0.0690
38192OCT     C176383   2.025  18.107   5.514 -0.2067  0.3074 -0.1373
38192OCT     C276384   2.180  17.804   5.269  0.3754 -0.1290 -0.0120
38193OCT     C176385  12.158  21.583  16.299  0.0938 -0.1642  0.1072
38193OCT     C276386  12.323  21.225  16.045  0.1003 -0.1296  0.0508
38194OCT     C176387  12.881  16.275   2.723 -0.1734 -0.4613  0.1467
38194OCT     C276388  12.504  16.323   2.934 -0.1668  0.1603  0.0881
38195OCT     C176389  16.447   6.520  20.019  0.1472  0.0155  0.1649
38195OCT     C276390  16.597   6.260  20.343  0.0847 -0.0255  0.1838
38196OCT     C176391   9.714  19.010   7.425  0.1658  0.2284  0.3335
38196OCT     C276392   9.345  19.163   7.200  0.3788 -0.1285 -0.1102
38197OCT     C176393  10.273  13.113  20.893  0.4282 -0.2114 -0.0880
38197OCT     C276394  10.687  12.926  21.002  0.1368 -0.0658 -0.3565
38198OCT     C176395  19.502  17.257  15.744 -0.2395  0.1154 -0.3673
38198OCT     C276396  19.770  17.624  15.636 -0.2108 -0.3190  0.3006
38199OCT     C176397   0.596  18.446   7.389 -0.2184 -0.0181 -0.2255
38199OCT     C276398   0.732  18.805   7.666 -0.0283 -0.1565  0.1500
38200OCT     C176399   7.905  10.159   4.911 -0.3279 -0.0281 -0.0229
38200OCT     C276400   7.841  10.555   5.128 -0.1723  0.1034 -0.1610
38201OCT     C176401   5.209  23.389  21.963 -0.3278  0.1442  0.0115
38201OCT     C276402   5.501  23.269  22.329  0.0905  0.3517 -0.0325
38202OCT     C176403  17.594   3.851  11.773  0.0426  0.3594  0.1173
38202OCT     C276404  17.512   3.722  12.177  0.0320  0.2063  0.0798
38203OCT     C176405   4.375  23.373   1.153  0.0244  0.1231 -0.1502
38203OCT     C276406   4.721  23.700   1.274 -0.0595  0.4287  0.0649
38204OCT     C176407   1.336   3.828   7.966 -0.1900 -0.0949 -0.1083
38204OCT     C276408   1.521   3.883   7.556  0.0629 -0.1616 -0.2645
38205OCT     C176409  13.320  18.227  22.499  0.2571  0.1015  0.4515
38205OCT     C276410  13.562  17.927  22.211  0.2294 -0.1114  0.3017
38206OCT     C176411   1.569   7.532   6.501 -0.2091  0.3829  0.3695
38206OCT     C276412   1.275   7.954   6.403  0.0433 -0.3003 -0.0811
38207OCT     C176413   7.278  18.717  13.507 -0.2066  0.1638 -0.0834
38207OCT     C276414   6.925  18.786  13.271 -0.0928  0.0013 -0.0376
38208OCT     C176415  12.191  17.474  23.205  0.0795  0.0637  0.2476
38208OCT     C276416  12.064  17.099  23.028 -0.0057  0.0993 -0.1083
38209OCT     C176417  18.849  18.170   0.397  0.1619 -0.3170  0.1489
38209OCT     C276418  18.414  18.033   0.423  0.3865  0.0150  0.0657
38210OCT     C176419   3.966  20.587  11.287  0.0840 -0.0788  0.3114
38210OCT     C276420   3.997  20.387  11.693 -0.0093 -0.1548 -0.3215
38211OCT     C176421  11.220   4.054  20.283  0.2925 -0.0317  0.3803
38211OCT     C276422  10.940   3.633  20.300  0.0402 -0.4555 -0.3474
38212OCT     C176423  15.395   3.182   4.138  0.0962 -0.0478 -0.5049
38212OCT     C276424  15.725   2.870   4.343  0.3886 -0.3833  0.0936
38213OCT     C176425  13.451  10.090  11.201  0.1487  0.2880 -0.1390
38213OCT     C276426  13.642  10.453  11.299  0.0585  0.1472 -0.2827
38214OCT     C176427  20.349   9.406   2.042 -0.0785  0.1592  0.1150
38214OCT     C276428  20.240   9.240   1.646  0.0969 -0.0285 -0.0703
38215OCT     C176429  17.261  23.399  14.497  0.1572  0.2010 -0.4185
38215OCT     C276430  16.832  23.314  14.328  0.0810 -0.0779  0.0784
38216OCT     C176431  13.635   0.376   5.711 -0.0772 -0.1483 -0.5001
38216OCT     C276432  13.183   0.345   5.747  0.5102  0.1879  0.2931
38217OCT     C176433  14.821  16.914  19.112 -0.0098 -0.1272 -0.3317
38217OCT     C276434  14.575  17.264  18.868  0.0232 -0.1501 -0.2392
38218OCT     C176435   1.819   9.405   1.261  0.0286  0.2726  0.0652
38218OCT     C276436   1.628   9.443   0.784 -0.1779 -0.1052  0.0727
38219OCT     C176437  14.592  12.724   2.195  0.1864 -0.0337  0.3246
38219OCT     C276438  14.504  12.466   2.512  0.1206 -0.0325  0.5376
38220OCT     C176439  18.992   9.157   5.252  0.2026 -0.0442 -0.2666
38220OCT     C276440  19.421   9.385   5.252 -0.0023  0.1254 -0.2358
38221OCT     C176441   7.165  23.234  13.546 -0.2575 -0.3421 -0.0592
38221OCT     C276442   7.082  22.954  13.902 -0.2539  0.2676  0.1507
38222OCT     C176443   8.598  22.007   2.446 -0.0188  0.2147 -0.1143
38222OCT     C276444   8.323  21.676   2.590 -0.0887 -0.2753  0.0904
38223OCT     C176445  20.547  15.067  13.133  0.0561 -0.1691 -0.0707
38223OCT     C276446  20.820  15.367  12.880 -0.4797 -0.1887 -0.2129
38224OCT     C176447   1.750  12.768   6.669  0.0227  0.2865  0.0104
38224OCT     C276448   1.890  12.284   6.559 -0.2585 -0.2156 -0.1325
38225OCT     C176449  11.172   7.329   8.524  0.2159  0.1608  0.2530
38225OCT     C276450  11.595   7.462   8.387 -0.1688  0.2569  0.0151
38226OCT     C176451   6.149  11.888   4.836 -0.2739  0.0210  0.1840
38226OCT     C276452   5.902  11.600   5.128  0.0042  0.0104  0.2989
38227OCT     C176453  14.487  11.198  18.787 -0.2629 -0.0329 -0.3643
38227OCT     C276454  14.227  11.383  18.423 -0.2514 -0.0739  0.2471
38228OCT     C176455  12.823  15.427  21.806  0.0645 -0.1848 -0.2423
38228OCT     C276456  13.045  15.789  21.614 -0.1645  0.1213 -0.0958
38229OCT     C176457  22.784  16.657   7.093  0.2441 -0.0477 -0.1472
38229OCT     C276458  23.067  16.934   6.858 -0.2324 -0.0289 -0.2135
38230OCT     C176459  20.359   9.695  19.712  0.2147 -0.1587  0.0858
38230OCT     C276460  20.582   9.427  19.419  0.2297 -0.0434  0.0619
38231OCT     C176461  12.739   1.179   5.324 -0.0754 -0.0730 -0.2627
38231OCT     C276462  12.561   0.737   5.266  0.1960 -0.3543 -0.0754
38232OCT     C176463   0.452   6.625  21.515 -0.3584 -0.2401  0.0803
38232OCT     C276464   0.334   6.384  21.908 -0.2482 -0.0331 -0.1123
38233OCT     C176465   1.942  21.281  15.296  0.2305  0.1828 -0.2610
38233OCT     C276466   2.230  21.604  15.290  0.0337 -0.4288 -0.0743
38234OCT     C176467   3.302  12.674   5.841  0.1614  0.1830  0.4298
38234OCT     C276468   3.757  12.601   5.780 -0.2960  0.0220 -0.4779
38235OCT     C176469   0.504  14.221   3.579  0.1469 -0.1688 -0.1382
38235OCT     C276470   0.564  14.624   3.775 -0.1566  0.2619 -0.2098
38236OCT     C176471   4.811  12.761   2.445  0.1768 -0.1692  0.0991
38236OCT     C276472   4.717  13.182   2.544 -0.0560 -0.1654 -0.1215
38237OCT     C176473   2.490  11.890  15.029  0.2468 -0.1951  0.1047
38237OCT     C276474   2.220  12.247  15.252 -0.4322  0.2004  0.0234
38238OCT     C176475  17.829   7.898  16.240  0.2281 -0.2091 -0.2585
38238OCT     C276476  17.880   8.306  16.488 -0.0820 -0.3645 -0.3043
38239OCT     C176477   2.635  20.806   1.046 -0.3013  0.1729  0.2338
38239OCT     C276478   2.301  21.062   1.268 -0.1320 -0.0839 -0.1599
38240OCT     C176479   3.797  17.394  13.775 -0.1936  0.2148  0.0762
38240OCT     C276480   3.481  17.720  13.796  0.0675  0.0410 -0.5189
38241OCT     C176481  13.834  17.331   7.575  0.3707 -0.0924 -0.2178
38241OCT     C276482  13.792  16.954   7.893 -0.2970  0.1956  0.0181
38242OCT     C176483   7.453  19.469   4.987 -0.1480 -0.0035  0.4860
38242OCT     C276484   7.039  19.694   4.859 -0.0696  0.1512 -0.3833
38243OCT     C176485  15.646  20.274  17.439 -0.6026  0.0921  0.0301
38243OCT     C276486  15.272  20.574  17.387 -0.0382  0.0941  0.3988
38244OCT     C176487   7.868   5.089  21.719  0.1199  0.1232  0.2581
38244OCT     C276488   7.526   5.434  21.582 -0.5346  0.1041 -0.1270
38245OCT     C176489  23.192   3.422  19.176 -0.0675  0.0144  0.0613
38245OCT     C276490  23.045   3.852  19.331  0.1735  0.1772  0.2234
38246OCT     C176491  16.310   1.209  16.907  0.1667  0.1621  0.1145
38246OCT     C276492  15.874   0.999  16.785 -0.1733 -0.0990  0.0335
38247OCT     C176493  19.196  13.728   1.319 -0.1033  0.3187 -0.2327
38247OCT     C276494  18.815  13.820   1.563 -0.0740  0.0507  0.3292
38248OCT     C176495   1.462  18.859   1.163  0.2940 -0.2134  0.2264
38248OCT     C276496   1.406  19.236   1.462 -0.0439 -0.2563  0.2897
38249OCT     C176497  10.156  10.324  11.243 -0.0971 -0.2201 -0.0011
38249OCT     C276498  10.111  10.740  11.111 -0.2534  0.3542 -0.2117
38250OCT     C176499  21.819  12.030  22.503  0.1260 -0.1857 -0.1713
38250OCT     C276500  21.579  11.928  22.849  0.0747 -0.1543  0.1169
38251OCT     C176501  19.362  14.130  14.472 -0.1420 -0.0668 -0.0539
38251OCT     C276502  19.279  13.968  14.102 -0.1946  0.0669  0.2236
38252OCT     C176503  16.820   4.227  16.317 -0.2129 -0.0181  0.2177
38252OCT     C276504  17.165   4.528  16.410  0.2975  0.0743  0.0652
38253OCT     C176505   8.250  11.327   5.943  0.3682 -0.2490  0.1787
38253OCT     C276506   8.072  11.763   5.843 -0.2619 -0.0702  0.0508
38254OCT     C176507  13.259   3.462  14.431  0.0579  0.3021  0.3783
38254OCT     C276508  13.036   3.832  14.510 -0.0108 -0.1071  0.3416
38255OCT     C176509  14.426  22.765  16.123 -0.1207 -0.0520 -0.0281
38255OCT     C276510  14.485  22.510  16.523 -0.1031  0.2216  0.2634
38256OCT     C176511  10.170   9.000   7.043 -0.1503 -0.2377  0.2441
38256OCT     C276512  10.286   8.550   7.227 -0.1477  0.0251  0.2137
38257OCT     C176513   2.326  10.445  13.678  0.1088  0.1124  0.4134
38257OCT     C276514   1.902  10.248  13.558  0.2786  0.1779  0.0919
38258OCT     C176515   9.285  16.772  16.479 -0.0906 -0.1904  0.2300
38258OCT     C276516   9.700  16.838  16.696  0.1050 -0.0859 -0.1282
38259OCT     C176517   3.791   0.120   3.555 -0.1735 -0.3902 -0.0099
38259OCT     C276518   3.835  23.487   3.275  0.0105  0.1591 -0.2094
38260OCT     C176519  20.043   7.212  16.483  0.2546  0.1113 -0.1745
38260OCT     C276520  19.907   7.652  16.406  0.0799  0.0468 -0.2363
38261OCT     C176521  18.716  17.602  22.797  0.3341 -0.2567 -0.0866
38261OCT     C276522  18.623  17.984  22.997 -0.1257 -0.1225 -0.1806
38262OCT     C176523   6.383   4.811  10.597 -0.5240  0.0161 -0.1175
38262OCT     C276524   6.012   4.562  10.492  0.0449 -0.0068  0.0752
38263OCT     C176525  23.095  18.883  13.080  0.1034  0.0018 -0.5675
38263OCT     C276526  22.908  18.762  13.500  0.1222  0.3298  0.0272
38264OCT     C176527  18.558  19.322   3.615  0.1918  0.0065  0.1270
38264OCT     C276528  18.525  18.995   3.260 -0.1421  0.0121 -0.1112
38265OCT     C176529   5.016   9.201  13.927 -0.0365 -0.1474  0.1794
38265OCT     C276530   5.373   9.412  13.747 -0.2376 -0.3223 -0.5560
38266OCT     C176531   6.823  23.439  16.138  0.1652  0.3768 -0.0570
38266OCT     C276532   7.118  23.131  16.359 -0.1185 -0.1082 -0.0227
38267OCT     C176533  14.024  12.259  19.301 -0.1000 -0.0406  0.0301
38267OCT     C276534  14.462  12.401  19.297  0.2810 -0.0040  0.0983
38268OCT     C176535   3.387   6.269  19.942  0.1435 -0.0018 -0.0059
38268OCT     C276536   3.675   6.573  20.087 -0.1132  0.1191  0.0991
38269OCT     C176537  13.192   4.160  15.008  0.2948 -0.3938 -0.2245
38269OCT     C276538  13.439   4.161  15.398  0.1929  0.0650 -0.1001
38270OCT     C176539   6.010  20.818  10.778  0.3099  0.0880 -0.1469
38270OCT     C276540   5.987  20.601  11.228  0.1122 -0.1458 -0.0831
38271OCT     C176541   9.124  21.368   1.301  0.0402  0.2522  0.0012
38271OCT     C276542   9.056  21.511   0.887 -0.0808 -0.1559 -0.1494
38272OCT     C176543  18.988  21.428  21.407 -0.1304  0.0175  0.0911
38272OCT     C276544  18.562  21.454  21.266 -0.2904  0.0581  0.2478
38273OCT     C176545  22.854  18.689   2.067 -0.1844  0.0533 -0.2466
38273OCT     C276546  23.001  18.752   1.630 -0.1455  0.0752 -0.0862
38274OCT     C176547   4.812  20.838  19.188  0.2074  0.0601  0.1229
38274OCT     C276548   5.018  20.412  19.340  0.1873  0.3526 -0.1795
38275OCT     C176549  11.181   5.643   5.774 -0.0758 -0.2151 -0.1010
38275OCT     C276550  11.264   5.406   5.405  0.3905 -0.1874 -0.1245
38276OCT     C176551  17.113   3.262   0.158 -0.2254 -0.2576  0.1245
38276OCT     C276552  17.454   3.559   0.256 -0.1183 -0.2787 -0.2047
38277OCT     C176553  18.280  18.943  23.418 -0.1882  0.1168 -0.0511
38277OCT     C276554  18.156  18.515  23.704 -0.4696  0.0307  0.1090
38278OCT     C176555   3.284   3.816  20.393  0.0301 -0.0199  0.2247
38278OCT     C276556   2.968   4.013  20.712 -0.0019  0.0012  0.0209
38279OCT     C176557   5.932  20.251   2.244  0.3347 -0.0450 -0.3070
38279OCT     C276558   6.045  20.494   2.578 -0.1824  0.1491 -0.0553
38280OCT     C176559  10.687  19.196  20.553 -0.0252 -0.0209 -0.1329
38280OCT     C276560  10.760  18.887  20.235  0.0667 -0.1388 -0.0919
38281OCT     C176561  19.719  19.648  22.553 -0.4085  0.3838  0.2332
38281OCT     C276562  19.279  19.785  22.376  0.0479  0.0019  0.3006
38282OCT     C176563   7.798  20.514  20.469  0.1655 -0.1080 -0.1617
38282OCT     C276564   7.640  20.438  20.033  0.0846 -0.0126  0.0507
38283OCT     C176565  12.963   8.582   0.551  0.1731  0.0739 -0.0535
38283OCT     C276566  13.218   8.793   0.251  0.0555 -0.2661 -0.0691
38284OCT     C176567  21.955  15.114  18.241  0.1227 -0.0664  0.2510
38284OCT     C276568  21.511  14.933  18.040 -0.2886  0.1236  0.2636
38285OCT     C176569  21.090   9.706  18.272 -0.0352 -0.1930  0.0432
38285OCT     C276570  21.493   9.956  18.445  0.2910  0.3111  0.1878
38286OCT     C176571  20.158  12.040   0.336  0.1477 -0.3431  0.3039
38286OCT     C276572  19.846  11.807   0.593 -0.1765 -0.2243  0.0767
38287OCT     C176573   7.655  20.889   8.784 -0.1629  0.0784 -0.0131
38287OCT     C276574   7.988  21.213   9.007  0.0287  0.3505  0.0165
38288OCT     C176575   7.171   2.013  11.395  0.0890  0.2129 -0.1092
38288OCT     C276576   7.336   2.145  10.965  0.0176 -0.2472 -0.4128
38289OCT     C176577  11.034   5.514  22.539  0.1013 -0.2813 -0.0013
38289OCT     C276578  10.866   5.887  22.757 -0.0530  0.1104  0.0901
38290OCT     C176579   3.291   4.156   7.427  0.0849  0.1192 -0.1277
38290OCT     C276580   2.971   4.052   7.755 -0.2494 -0.0307  0.0651
38291OCT     C176581  13.012  21.030   4.079 -0.2077 -0.2840 -0.0566
38291OCT     C276582  13.266  21.143   4.481  0.0571  0.5454 -0.0311
38292OCT     C176583   2.462   7.142   4.317  0.2056  0.1298  0.2526
38292OCT     C276584   2.375   6.753   4.171 -0.5367 -0.0677  0.1312
38293OCT     C176585   4.891  19.546   3.688  0.3425  0.3095  0.0832
38293OCT     C276586   5.254  19.191   3.765  0.3913 -0.3266  0.4375
38294OCT     C176587   9.401  18.968  18.147  0.1198  0.0758 -0.1400
38294OCT     C276588   9.652  19.085  17.822 -0.1382 -0.0579  0.2046
38295OCT     C176589  10.994   0.814   0.566  0.0998 -0.2132 -0.1235
38295OCT     C276590  10.912   0.992   0.166  0.2708  0.4050  0.0138
38296OCT     C176591   4.399  19.326   0.283 -0.0264 -0.6258  0.0589
38296OCT     C276592   4.582  18.891   0.392  0.1640 -0.0037 -0.2204
38297OCT     C176593   7.649   7.070  10.279  0.2735 -0.0089  0.0841
38297OCT     C276594   8.047   6.894  10.259 -0.1681  0.1685 -0.1971
38298OCT     C176595   1.608   0.559  20.617  0.1929  0.0562 -0.2406
38298OCT     C276596   1.853   0.678  20.996  0.1587  0.2300 -0.2676
38299OCT     C176597   8.735  21.906  17.295  0.5434 -0.2511  0.3235
38299OCT     C276598   9.062  21.738  16.982 -0.3885 -0.0902  0.0245
38300OCT     C176599   5.675  23.190  17.163 -0.0856  0.2060 -0.0957
38300OCT     C276600   5.928  23.560  17.301 -0.0286 -0.0678 -0.0667
38301OCT     C176601  16.625   7.024   0.170  0.3245  0.0186 -0.3823
38301OCT     C276602  16.625   7.186  23.503  0.0480  0.0991 -0.1252
38302OCT     C176603   3.756  10.417   5.842  0.3641  0.1999  0.2456
38302OCT     C276604   3.875  10.583   6.345 -0.1801 -0.1367  0.0227
38303OCT     C176605  19.900  10.337   1.496 -0.0562  0.1277 -0.1396
38303OCT     C276606  20.200  10.611   1.780  0.0079  0.5221  0.1202
38304OCT     C176607   3.778  18.912  12.112 -0.2978 -0.3767  0.0375
38304OCT     C276608   4.166  18.628  12.043  0.5633 -0.0668 -0.0171
38305OCT     C176609  12.846  19.031  20.001 -0.2660  0.0134 -0.0592
38305OCT     C276610  12.959  19.161  20.452  0.0022 -0.0222 -0.0939
38306OCT     C176611  20.737   7.053   8.053  0.3307  0.0525 -0.2922
38306OCT     C276612  20.904   7.128   7.634  0.0241 -0.0829  0.2763
38307OCT     C176613  21.479  11.559  13.771  0.1321  0.2679 -0.2041
38307OCT     C276614  21.574  11.933  13.480  0.0964  0.1344 -0.4565
38308OCT     C176615  16.383  12.595  11.647  0.0852 -0.0259  0.0395
38308OCT     C276616  16.105  12.971  11.666  0.0088 -0.0930 -0.1598
38309OCT     C176617  20.746  16.169  18.278  0.0002  0.2088 -0.0360
38309OCT     C276618  20.649  16.578  18.079  0.1486  0.2010 -0.4484
38310OCT     C176619  20.937   8.727  18.875  0.1718 -0.0817  0.1941
38310OCT     C276620  20.711   8.878  18.493 -0.3021 -0.0843 -0.1072
38311OCT     C176621   7.901  21.801   0.062 -0.0888  0.3890  0.4072
38311OCT     C276622   8.263  21.970   0.349 -0.0358 -0.0222 -0.3463
38312OCT     C176623  20.952   8.856  22.975 -0.0666 -0.3524 -0.2609
38312OCT     C276624  20.534   9.032  22.949  0.1351 -0.3849 -0.3171
38313OCT     C176625   7.763   5.073   5.353 -0.1090  0.1280 -0.0390
38313OCT     C276626   7.725   4.756   5.024  0.1818  0.1024  0.1302
38314OCT     C176627  18.051  20.712  18.773  0.2972 -0.0833  0.0205
38314OCT     C276628  18.198  20.346  19.054 -0.4090  0.0436  0.1755
38315OCT     C176629   0.595   3.711  15.257 -0.0460  0.3683  0.0725
38315OCT     C276630   0.337   4.011  15.500 -0.2407 -0.3002 -0.2065
38316OCT     C176631  13.953  15.282  14.924  0.0690  0.0614  0.1137
38316OCT     C276632  14.281  15.167  14.667 -0.2098 -0.0860 -0.2056
38317OCT     C176633   7.914   6.012   5.963  0.0990  0.1366 -0.0712
38317OCT     C276634   8.351   5.952   5.755  0.1422 -0.0728 -0.0487
38318OCT     C176635   1.756  11.850  15.555 -0.2942 -0.1575 -0.0184
38318OCT     C276636   1.569  11.412  15.534  0.1097 -0.6007 -0.4225
38319OCT     C176637  18.073  18.800   1.278  0.0918 -0.1175  0.2153
38319OCT     C276638  17.695  18.553   1.417  0.3039 -0.1291 -0.1070
38320OCT     C176639   5.435   7.503  14.808  0.1778  0.1741 -0.5056
38320OCT     C276640   5.737   7.419  14.455  0.1393 -0.1900  0.0649
38321OCT     C176641  22.776   7.500   7.356  0.0751  0.1485  0.1105
38321OCT     C276642  22.260   7.543   7.329  0.1289  0.2770 -0.1075
38322OCT     C176643   3.896  22.048  19.093 -0.3115 -0.1610  0.1375
38322OCT     C276644   3.508  22.225  19.312 -0.1950 -0.1134 -0.0476
38323OCT     C176645   4.917   4.441  13.362  0.1393  0.0771  0.3061
38323OCT     C276646   4.491   4.285  13.527 -0.0271 -0.0167 -0.1078
38324OCT     C176647  13.151   4.692   3.053  0.3101 -0.1404  0.0885
38324OCT     C276648  13.293   5.105   3.224  0.1108 -0.0816 -0.1851
38325OCT     C176649  19.016   9.520   2.639  0.0853  0.2126 -0.1395
38325OCT     C276650  19.319   9.138   2.675 -0.4196 -0.0490 -0.3619
38326OCT     C176651  15.121  18.478   4.964  0.1773 -0.0934  0.0961
38326OCT     C276652  15.307  18.884   5.206  0.1665 -0.1007 -0.1361
38327OCT     C176653  20.977  19.681   9.421 -0.3718 -0.3802  0.4016
38327OCT     C276654  21.320  20.052   9.425  0.0614  0.2463  0.0307
38328OCT     C176655   9.855  21.861   3.157  0.5103  0.1609 -0.4992
38328OCT     C276656   9.388  21.925   3.098  0.1870  0.0725  0.1659
38329OCT     C176657   7.794  18.918  17.693  0.2253  0.1275  0.5310
38329OCT     C276658   8.034  18.981  17.327  0.2158 -0.0847 -0.0292
38330OCT     C176659   3.783  23.571  23.680 -0.1089 -0.0094 -0.2170
38330OCT     C276660   4.029   0.252   0.046 -0.2064 -0.1317  0.0536
38331OCT     C176661   1.370   7.891  18.419 -0.2630 -0.0786  0.1999
38331OCT     C276662   1.589   8.259  18.683 -0.0787  0.2578 -0.0610
38332OCT     C176663   8.352  21.642  17.446 -0.2283  0.0728 -0.0531
38332OCT     C276664   7.973  21.960  17.532  0.5467  0.2279  0.2253
38333OCT     C176665  22.983  11.272  16.861  0.2552 -0.1744  0.2891
38333OCT     C276666  23.189  11.645  16.708 -0.3165 -0.2475  0.3827
38334OCT     C176667   0.435  17.217  17.996 -0.0306 -0.0353  0.3617
38334OCT     C276668   0.302  17.699  18.110 -0.0125 -0.3065  0.1228
38335OCT     C176669  10.583   1.241  21.124  0.4370  0.2181 -0.1516
38335OCT     C276670  10.460   1.666  21.230 -0.4053 -0.1833  0.0827
38336OCT     C176671   8.511   3.151  16.332  0.2257  0.3247 -0.2397
38336OCT     C276672   8.470   2.738  16.590 -0.0289 -0.1508  0.0698
38337OCT     C176673  10.326  20.357   8.056 -0.3626  0.0423  0.2320
38337OCT     C276674  10.657  20.568   8.286  0.1225  0.0134 -0.0769
38338OCT     C176675  12.387   0.682   0.424 -0.0109 -0.0724  0.2453
38338OCT     C276676  12.419   0.279   0.284 -0.2546 -0.2992  0.3112
38339OCT     C176677  12.366  19.181   6.917  0.0393  0.1113  0.1675
38339OCT     C276678  12.831  19.198   6.910 -0.0790  0.0586  0.3857
38340OCT     C176679   5.274   7.086  22.138 -0.2562 -0.3455  0.0721
38340OCT     C276680   5.562   7.345  22.401 -0.1030  0.0183  0.0131
38341OCT     C176681   3.009  17.495   6.374 -0.1496 -0.1006 -0.0375
38341OCT     C276682   2.607  17.266   6.343 -0.1326  0.1608  0.3594
38342OCT     C176683   0.047  18.620  12.257 -0.0901  0.1468  0.0827
38342OCT     C276684   0.430  18.667  12.542 -0.1591  0.0646 -0.2104
38343OCT     C176685  17.855   7.726   6.539  0.1972  0.1124 -0.2553
38343OCT     C276686  17.719   7.619   7.026  0.1638  0.2572 -0.0289
38344OCT     C176687  18.946   9.214  22.212  0.1301 -0.2111  0.1964
38344OCT     C276688  19.381   9.269  22.219 -0.1130 -0.4390 -0.3569
38345OCT     C176689   6.285  19.037   2.882 -0.3459  0.2647  0.0140
38345OCT     C276690   6.093  18.970   2.501  0.1522  0.1250  0.0478
38346OCT     C176691   4.041  19.064  15.283 -0.1841 -0.1550 -0.0950
38346OCT     C276692   4.103  18.681  15.096 -0.1351  0.3269  0.1764
38347OCT     C176693  15.238  13.326   7.132 -0.0277 -0.3493  0.1766
38347OCT     C276694  15.672  13.246   7.056 -0.3509 -0.0071 -0.1607
38348OCT     C176695  17.125  17.554  12.500 -0.2252 -0.0909 -0.0064
38348OCT     C276696  17.105  17.220  12.094 -0.0269  0.0095  0.3271
38349OCT     C176697  16.743   1.965   0.443 -0.1125  0.2471  0.1143
38349OCT     C276698  16.889   1.708   0.049  0.2437 -0.2552 -0.1524
38350OCT     C176699  16.245   5.487  15.929 -0.1180 -0.2195 -0.3140
38350OCT     C276700  16.261   5.968  15.870 -0.2978 -0.3765 -0.4508
38351OCT     C176701   7.529  22.036   1.869  0.2860  0.0544 -0.0776
38351OCT     C276702   7.336  21.947   1.454 -0.1065 -0.3280  0.0730
38352OCT     C176703  14.623  20.215  11.593 -0.0493 -0.0337 -0.0115
38352OCT     C276704  14.215  20.031  11.707  0.1596 -0.0670  0.0787
38353OCT     C176705   7.428   6.968  17.973  0.0894 -0.0451 -0.1365
38353OCT     C276706   7.207   7.338  18.124 -0.1167 -0.0864  0.4807
38354OCT     C176707  10.473  11.127   9.700  0.1633 -0.0137 -0.0281
38354OCT     C276708  10.221  10.912   9.974 -0.0976 -0.3118 -0.0363
38355OCT     C176709  20.497  18.526  22.983  0.2912  0.0489  0.1429
38355OCT     C276710  20.034  18.553  23.183  0.0416 -0.2607 -0.0965
38356OCT     C176711   7.608   0.159  22.688  0.0584 -0.1230  0.0398
38356OCT     C276712   7.789   0.179  23.123  0.1071 -0.0071 -0.0162
38357OCT     C176713   1.770   4.529   2.491  0.1395  0.3264 -0.1153
38357OCT     C276714   1.653   4.433   2.922 -0.1506  0.0008 -0.0750
38358OCT     C176715   2.204   8.621  20.819 -0.1901 -0.0407 -0.0779
38358OCT     C276716   1.843   8.376  20.912 -0.0023 -0.0333 -0.0797
38359OCT     C176717   6.630  20.771  10.956 -0.0536  0.0293  0.3015
38359OCT     C276718   6.835  21.045  10.650 -0.0222 -0.2599  0.3172
38360OCT     C176719  20.430  16.519   9.061  0.0880 -0.2786  0.0092
38360OCT     C276720  20.261  16.995   8.943 -0.0402  0.0118  0.0470
38361OCT     C176721   4.481  15.370  20.555 -0.3251 -0.1304 -0.0016
38361OCT     C276722   4.366  15.849  20.527  0.3004  0.1232 -0.0256
38362OCT     C176723  14.359  21.487   4.921 -0.3396 -0.0768  0.2491
38362OCT     C276724  14.105  21.203   4.628  0.1108 -0.0959  0.4522
38363OCT     C176725   5.199  19.177   7.194 -0.3421  0.1113 -0.1513
38363OCT     C276726   5.170  19.363   7.603  0.3630  0.3157 -0.0436
38364OCT     C176727   6.530  15.193   6.385  0.0041 -0.1916 -0.3831
38364OCT     C276728   6.447  15.286   5.950  0.2280 -0.2235  0.2539
38365OCT     C176729  12.909  23.372   6.967  0.2350  0.1734  0.1859
38365OCT     C276730  12.646  23.104   6.693 -0.1348 -0.0381  0.1540
38366OCT     C176731  23.124  12.200   4.156 -0.0079 -0.1396  0.3667
38366OCT     C276732  23.065  12.433   3.755  0.1383  0.4184  0.5791
38367OCT     C176733  22.078   4.802  22.956  0.0602  0.1352 -0.1911
38367OCT     C276734  22.313   4.440  22.803 -0.4110  0.1644  0.0478
38368OCT     C176735  15.060  14.925   7.218  0.2065  0.2266 -0.0700
38368OCT     C276736  14.866  15.007   6.771  0.1672 -0.1569  0.1904
38369OCT     C176737  11.989  18.333   5.983  0.0158  0.2276 -0.2740
38369OCT     C276738  12.341  18.131   5.808  0.2335  0.2533  0.0837
38370OCT     C176739   4.382   1.154   2.408  0.3140  0.0498  0.1235
38370OCT     C276740   4.227   0.737   2.495 -0.0753  0.2221 -0.1613
38371OCT     C176741   7.462  23.570   0.474 -0.1688  0.0415  0.6256
38371OCT     C276742   7.451   0.139   0.781  0.2607 -0.0677 -0.2461
38372OCT     C176743  16.507   7.412  14.345 -0.4272 -0.1529  0.0096
38372OCT     C276744  16.904   7.305  14.486 -0.3087  0.1139 -0.2819
38373OCT     C176745  14.834  19.323   6.282  0.0072  0.0042 -0.3170
38373OCT     C276746  15.009  19.325   6.706 -0.4101 -0.1609 -0.0902
38374OCT     C176747  11.550  15.372  22.790 -0.0780  0.1960  0.2038
38374OCT     C276748  11.420  15.126  22.400 -0.2257  0.0607  0.3774
38375OCT     C176749  23.573  15.954   0.531 -0.2313  0.1643  0.3063
38375OCT     C276750   0.140  15.736   0.840 -0.2092  0.3164 -0.1863
38376OCT     C176751  23.110  10.623   3.144 -0.2152  0.0367 -0.0476
38376OCT     C276752  22.992  10.566   2.705 -0.0951  0.0150 -0.5658
38377OCT     C176753  20.555   6.521   1.073 -0.1014  0.1601  0.0085
38377OCT     C276754  20.257   6.155   1.024  0.1942  0.0602 -0.3891
38378OCT     C176755  18.517  14.218  11.015 -0.0573 -0.1238  0.1604
38378OCT     C276756  18.323  14.132  11.427 -0.5515  0.0792 -0.3785
38379OCT     C176757  18.208  21.517  19.410 -0.3999 -0.0955 -0.0344
38379OCT     C276758  18.008  21.169  19.100  0.1571 -0.4861  0.1198
38380OCT     C176759   2.378  20.558   0.245 -0.1897 -0.2563  0.4430
38380OCT     C276760   2.305  20.810   0.659  0.2382  0.1366  0.3069
38381OCT     C176761   8.592  13.674   6.073  0.1004 -0.2614 -0.1777
38381OCT     C276762   8.587  14.130   6.282 -0.1026  0.2722  0.2442
38382OCT     C176763   7.304   6.388  23.554 -0.2430  0.0276 -0.0768
38382OCT     C276764   7.353   5.990  23.246 -0.1587 -0.3254 -0.2637
38383OCT     C176765   9.150   4.918  16.450 -0.2294  0.1467 -0.1189
38383OCT     C276766   9.614   4.696  16.435 -0.1278 -0.2930  0.2978
38384OCT     C176767  23.336  14.171   1.465 -0.0605 -0.0797  0.3508
38384OCT     C276768  22.925  14.178   1.216 -0.0576 -0.0970  0.1091
38385OCT     C176769  19.032   8.057   6.138  0.0878  0.3811 -0.0318
38385OCT     C276770  19.309   7.836   6.468 -0.0948 -0.0351 -0.1896
38386OCT     C176771  16.363  18.403  12.177 -0.2614 -0.0256 -0.1860
38386OCT     C276772  16.733  18.187  12.073  0.0805  0.1534  0.1767
38387OCT     C176773   8.445   2.311  21.804  0.0006 -0.3949 -0.2201
38387OCT     C276774   8.531   2.366  21.301  0.1770  0.1876  0.1691
38388OCT     C176775  16.020   4.393  15.448  0.0558 -0.0041 -0.3425
38388OCT     C276776  15.775   4.058  15.215  0.2723  0.1140 -0.0150
38389OCT     C176777   5.234  11.773   1.041 -0.0383 -0.5475 -0.1343
38389OCT     C276778   4.975  11.374   1.040 -0.3189  0.0156  0.0075
38390OCT     C176779  20.873   3.421   1.565 -0.0715 -0.1319  0.2312
38390OCT     C276780  21.307   3.236   1.546  0.0538 -0.0826  0.1673
38391OCT     C176781  17.479  16.305  13.473  0.1726 -0.4135  0.1125
38391OCT     C276782  17.610  16.329  13.084  0.3623 -0.0043  0.1101
38392OCT     C176783   7.477  22.410  21.868 -0.5946 -0.0168  0.1688
38392OCT     C276784   7.043  22.383  21.798  0.1968  0.0508 -0.0025
38393OCT     C176785  15.532   9.294  22.431  0.0746 -0.1877  0.1144
38393OCT     C276786  15.832   9.630  22.436  0.1739 -0.0152  0.2627
38394OCT     C176787  23.103   1.923  10.657  0.2595 -0.4861  0.1641
38394OCT     C276788  23.255   1.524  10.469 -0.1162  0.1762 -0.0919
38395OCT     C176789  14.059   5.092  22.288  0.0272 -0.2124  0.2373
38395OCT     C276790  14.404   5.185  22.529 -0.0926 -0.3331 -0.2534
38396OCT     C176791   3.707  10.878   1.209  0.6912 -0.0709 -0.3521
38396OCT     C276792   3.882  11.312   1.174  0.1528  0.2401 -0.0196
38397OCT     C176793  22.962   1.773  11.106 -0.2518 -0.2249 -0.1169
38397OCT     C276794  22.767   2.148  11.310  0.1296  0.1193  0.3156
38398OCT     C176795  20.584  11.364  12.363 -0.0530 -0.1800  0.1528
38398OCT     C276796  20.753  10.983  12.261  0.2266 -0.0151 -0.0023
38399OCT     C176797  21.612   1.831  21.440 -0.1225  0.0196 -0.0702
38399OCT     C276798  21.438   1.490  21.822 -0.0404  0.0941 -0.1712
38400OCT     C176799  20.868   1.819   3.763 -0.3259  0.0236  0.0679
38400OCT     C276800  20.936   2.167   4.076  0.0806  0.0939 -0.0060
38401OCT     C176801   3.727  21.860  14.905  0.0340 -0.0104 -0.0733
38401OCT     C276802   3.666  22.242  14.641  0.1640 -0.2056 -0.4189
38402OCT     C176803  17.919  19.153   3.926  0.0603 -0.0867  0.1292
38402OCT     C276804  18.099  18.735   4.061  0.1782 -0.2311 -0.1519
38403OCT     C176805   0.884  10.661  21.181 -0.3193  0.1636  0.0920
38403OCT     C276806   1.047  10.721  20.728 -0.1593  0.2543 -0.2024
38404OCT     C176807  21.555  23.032  10.714  0.1213  0.5673  0.1424
38404OCT     C276808  21.574  22.623  10.970  0.4208 -0.1648 -0.1502
38405OCT     C176809   3.949  14.714  12.145 -0.1091  0.0919  0.0288
38405OCT     C276810   4.029  14.896  11.717 -0.1323 -0.1525  0.0839
38406OCT     C176811  20.644  18.134  10.015  0.1824  0.1602  0.1311
38406OCT     C276812  20.717  18.351   9.627 -0.0110  0.1399  0.3889
38407OCT     C176813  18.066   7.460  10.991 -0.0107 -0.0483  0.3807
38407OCT     C276814  18.032   7.124  11.282 -0.0128 -0.0586 -0.1127
38408OCT     C176815   8.573   7.130  15.533  0.2354 -0.2875  0.2470
38408OCT     C276816   8.113   7.018  15.545 -0.0817  0.0599 -0.1317
38409OCT     C176817  12.684   1.410  20.344 -0.2992 -0.3970  0.3887
38409OCT     C276818  12.935   1.089  20.623  0.0037  0.1634  0.0278
38410OCT     C176819   0.052   6.645  19.818  0.1314  0.1403 -0.4692
38410OCT     C276820   0.435   6.754  19.633 -0.2010  0.1877  0.1129
38411OCT     C176821  17.278   6.669  20.638  0.3032 -0.0224 -0.0795
38411OCT     C276822  17.651   6.447  20.467 -0.1441  0.1413 -0.0736
38412OCT     C176823  20.695  21.274   2.863  0.1350  0.0400  0.0774
38412OCT     C276824  20.269  20.996   2.871  0.0456 -0.2412  0.4068
38413OCT     C176825  10.251   5.078  16.498  0.2427  0.1339  0.3935
38413OCT     C276826  10.333   4.600  16.605 -0.0489  0.0196 -0.1035
38414OCT     C176827  13.837  17.316   2.992 -0.0598  0.0258 -0.1353
38414OCT     C276828  14.073  17.759   2.987 -0.0353 -0.1008  0.0762
38415OCT     C176829  20.371   4.053  19.091 -0.3780  0.0389 -0.2169
38415OCT     C276830  20.534   4.451  18.945 -0.2454  0.1973 -0.1216
38416OCT     C176831  16.832  10.199  15.806  0.0798 -0.2053  0.0814
38416OCT     C276832  16.633  10.526  15.954 -0.2370 -0.1940  0.0396
38417OCT     C176833  11.167  18.906   4.919 -0.0927  0.1917 -0.3126
38417OCT     C276834  11.271  18.921   5.371 -0.1883 -0.1461 -0.1159
38418OCT     C176835  19.160   8.076  17.980 -0.1493 -0.2972  0.0036
38418OCT     C276836  18.767   8.245  17.986 -0.0455 -0.3049  0.1311
38419OCT     C176837  22.206  14.103  20.385 -0.0522 -0.0403 -0.0071
38419OCT     C276838  22.164  13.670  20.608 -0.0777 -0.3739  0.1497
38420OCT     C176839   1.413  18.237  22.407  0.2259 -0.2050 -0.1209
38420OCT     C276840   0.964  18.405  22.533  0.0376 -0.0482 -0.0535
38421OCT     C176841   4.005  11.082  23.235  0.0843 -0.2643 -0.1593
38421OCT     C276842   4.348  11.223  23.590 -0.1030 -0.0677 -0.4827
38422OCT     C176843  22.598  18.258   5.327 -0.3978  0.3132  0.1825
38422OCT     C276844  22.994  18.134   5.129 -0.0831 -0.0048  0.1488
38423OCT     C176845   8.265  15.018   9.324  0.1741 -0.2097 -0.2582
38423OCT     C276846   8.627  15.054   9.603  0.2845  0.1585  0.3981
38424OCT     C176847  21.202   5.156   6.811 -0.0232 -0.0288  0.2734
38424OCT     C276848  21.604   5.292   6.599 -0.0626  0.3832  0.0625
38425OCT     C176849   4.679  20.427  18.556 -0.1814  0.0034  0.1264
38425OCT     C276850   4.601  19.983  18.487 -0.0171 -0.1259  0.1260
38426OCT     C176851   1.714   5.094   1.432 -0.2084 -0.2073  0.0254
38426OCT     C276852   1.330   5.224   1.263 -0.2012  0.3915 -0.1486
38427OCT     C176853  22.875  20.319  22.831  0.0120  0.2876  0.0877
38427OCT     C276854  22.726  19.945  22.547  0.1417  0.2628 -0.2849
38428OCT     C176855   6.705  11.177  18.682  0.1221 -0.2491 -0.1759
38428OCT     C276856   7.040  11.026  18.970 -0.0208  0.0222 -0.2864
38429OCT     C176857   2.439   0.868  10.665  0.0117  0.2429 -0.2648
38429OCT     C276858   2.273   1.288  10.643  0.3460  0.1137 -0.0692
38430OCT     C176859  20.480   7.477  11.991 -0.2298  0.0285 -0.0365
38430OCT     C276860  20.623   7.924  12.031  0.1485 -0.0330  0.0929
38431OCT     C176861  21.933   7.927   7.414  0.0146 -0.3616 -0.2824
38431OCT     C276862  21.736   7.550   7.351 -0.2648  0.3787 -0.1762
38432OCT     C176863  21.117  13.693  12.679  0.1554  0.1080 -0.0655
38432OCT     C276864  20.791  13.440  12.728  0.1657  0.3964 -0.2434
38433OCT     C176865  18.380  18.618  15.820 -0.0826  0.0999 -0.1755
38433OCT     C276866  18.732  18.443  16.065  0.1499  0.0780 -0.0836
38434OCT     C176867  18.376   0.563  22.849 -0.3226 -0.6133  0.1448
38434OCT     C276868  18.707   0.406  23.065 -0.2790 -0.2078  0.1015
38435OCT     C176869  15.916  17.040  15.105 -0.0615 -0.0575 -0.3081
38435OCT     C276870  15.492  17.003  15.054  0.1601 -0.0676 -0.0873
38436OCT     C176871  18.645  22.378  18.963 -0.0236 -0.2564 -0.1270
38436OCT     C276872  18.334  22.053  18.791 -0.2066 -0.2005 -0.1058
38437OCT     C176873   3.107   9.189  17.399  0.1723 -0.2882 -0.3360
38437OCT     C276874   2.652   9.347  17.222 -0.0909 -0.0914  0.4107
38438OCT     C176875  11.300  17.191  18.169  0.4972  0.1296  0.1422
38438OCT     C276876  11.644  17.490  18.129  0.3014 -0.1290  0.2142
38439OCT     C176877   7.881   2.826   7.624  0.1181  0.0605 -0.0705
38439OCT     C276878   8.019   2.377   7.616 -0.1583  0.0680  0.0212
38440OCT     C176879  13.867   0.305   4.365  0.6712 -0.1397 -0.0763
38440OCT     C276880  13.451   0.089   4.247 -0.0817  0.0324  0.1545
38441OCT     C176881   2.826   6.369  11.842  0.1050 -0.0447 -0.2314
38441OCT     C276882   3.219   6.563  12.007 -0.0037  0.1720 -0.0689
38442OCT     C176883   4.742  16.766   1.899  0.2496  0.0133 -0.4097
38442OCT     C276884   4.900  16.408   1.696 -0.1228 -0.4664 -0.1166
38443OCT     C176885   6.568   4.191  11.201  0.0185 -0.0455 -0.2083
38443OCT     C276886   6.793   4.414  11.547  0.1411 -0.0257 -0.2470
38444OCT     C176887   6.073   0.101   2.989 -0.2959  0.2421  0.3698
38444OCT     C276888   5.955  23.467   2.924  0.0431  0.0579  0.2637
38445OCT     C176889   3.841   8.436   6.885 -0.2983  0.0873 -0.1570
38445OCT     C276890   4.116   8.597   7.239  0.1247  0.1151  0.1297
38446OCT     C176891   1.968   7.936  13.753 -0.1989  0.1365  0.0135
38446OCT     C276892   2.226   8.074  14.180  0.2794  0.0356 -0.2384
38447OCT     C176893  20.840  19.934  17.267 -0.2533 -0.0161 -0.1170
38447OCT     C276894  21.009  20.372  17.249  0.2242  0.1908  0.1955
38448OCT     C176895   1.326   4.095  15.405  0.3731 -0.0672 -0.0357
38448OCT     C276896   1.482   4.538  15.353  0.4573 -0.0560 -0.0840
38449OCT     C176897  22.584   8.264  20.286  0.1772 -0.3735 -0.1066
38449OCT     C276898  22.158   8.101  20.547  0.0764  0.0202 -0.2486
38450OCT     C176899  15.084  19.733  12.902  0.0034 -0.2441 -0.0078
38450OCT     C276900  14.642  19.479  12.811 -0.2237 -0.0414  0.0746
38451OCT     C176901   4.821   2.780  18.070  0.0867  0.0813  0.1070
38451OCT     C276902   5.238   2.841  18.044  0.0787 -0.0421  0.2254
38452OCT     C176903   0.225  16.876  15.590  0.0280  0.2212 -0.3013
38452OCT     C276904   0.078  17.113  15.204 -0.0739 -0.2369  0.0535
38453OCT     C176905  12.829   2.608  21.758 -0.1703  0.1583 -0.0569
38453OCT     C276906  13.125   2.800  21.422  0.2136 -0.1854 -0.1090
38454OCT     C176907   2.603  21.920  11.994  0.2807  0.1655 -0.1042
38454OCT     C276908   2.165  21.866  12.149  0.0196 -0.1526 -0.2720
38455OCT     C176909  22.625   1.990  23.641  0.0657 -0.0623 -0.0613
38455OCT     C276910  23.013   2.194  23.489  0.1544 -0.0480  0.0916
38456OCT     C176911  13.063   1.756   0.679 -0.0591 -0.3599  0.0580
38456OCT     C276912  13.476   1.777   0.764 -0.1721  0.1168 -0.1801
38457OCT     C176913  19.869  15.405   6.920 -0.1040 -0.1509  0.1010
38457OCT     C276914  20.067  15.334   7.346 -0.1403  0.3128 -0.1362
38458OCT     C176915   9.172   6.452   2.356  0.5100  0.0505 -0.1222
38458OCT     C276916   8.802   6.193   2.474  0.0920  0.1103  0.0921
38459OCT     C176917   8.682   4.935  18.100  0.0413 -0.1057 -0.1768
38459OCT     C276918   8.262   4.809  17.975  0.0210 -0.0731 -0.0807
38460OCT     C176919  19.976   2.606   5.399  0.1905 -0.1908  0.2885
38460OCT     C276920  19.735   2.266   5.204  0.1942  0.4157  0.1578
38461OCT     C176921  13.944  11.597   8.689  0.0710 -0.0097  0.0421
38461OCT     C276922  14.176  11.597   8.266  0.0046  0.1674  0.0449
38462OCT     C176923  11.809   8.583  18.358  0.2088  0.0080 -0.1190
38462OCT     C276924  11.548   8.256  18.661 -0.2110 -0.3041 -0.0893
38463OCT     C176925  22.450  10.971  12.943  0.2046 -0.3634 -0.2160
38463OCT     C276926  22.325  10.508  12.957  0.1510  0.3015  0.0284
38464OCT     C176927  22.466  21.972  19.271 -0.0619 -0.0117 -0.1678
38464OCT     C276928  22.149  21.997  19.598  0.1730 -0.2811  0.2692
38465OCT     C176929  10.925  17.509  19.507  0.0832  0.0304  0.2130
38465OCT     C276930  11.060  17.625  19.101 -0.0509 -0.3454 -0.1062
38466OCT     C176931   3.286  10.683  13.552 -0.0693 -0.1038  0.0994
38466OCT     C276932   3.594  10.513  13.841  0.2397 -0.2889  0.1943
38467OCT     C176933  19.659  15.180  20.244 -0.1415  0.0295 -0.0592
38467OCT     C276934  19.846  15.400  20.636  0.1519 -0.1586 -0.2619
38468OCT     C176935  11.593  21.628   1.303 -0.3061  0.1953  0.1529
38468OCT     C276936  11.912  21.563   1.596 -0.3030 -0.0830 -0.0076
38469OCT     C176937  16.691   2.528   9.076 -0.1083 -0.4373  0.0510
38469OCT     C276938  16.518   2.951   9.228  0.2091 -0.0853  0.3249
38470OCT     C176939   0.219   1.785  22.542  0.0061  0.0355  0.1875
38470OCT     C276940   0.277   2.238  22.642  0.1074 -0.1433  0.0168
38471OCT     C176941  10.784   7.793  21.657 -0.1265  0.2301  0.2280
38471OCT     C276942  11.127   7.925  21.945 -0.1093  0.1812 -0.2460
38472OCT     C176943   4.646   0.535  12.828  0.1628 -0.2653  0.0580
38472OCT     C276944   4.706   0.830  12.464 -0.0885  0.1666 -0.2886
38473OCT     C176945   3.119  13.144   5.155 -0.0490 -0.2403  0.0758
38473OCT     C276946   3.470  13.372   5.375 -0.0738  0.1870  0.1905
38474OCT     C176947  17.092  20.672  19.251 -0.0371 -0.0980  0.3696
38474OCT     C276948  17.341  20.914  18.920  0.0955 -0.0821 -0.2382
38475OCT     C176949  10.590   1.880   0.721 -0.4149 -0.0458  0.1357
38475OCT     C276950  10.195   1.634   0.779  0.0864 -0.0200  0.2993
38476OCT     C176951  16.859  19.146  21.466 -0.0672  0.0723 -0.3451
38476OCT     C276952  17.065  18.748  21.609 -0.0471  0.0733 -0.0935
38477OCT     C176953   7.719   8.856   3.355  0.1715  0.3153  0.0991
38477OCT     C276954   7.256   8.765   3.570 -0.1648  0.2229 -0.2191
38478OCT     C176955   3.288   9.703  13.519 -0.1930 -0.0443 -0.0399
38478OCT     C276956   3.078   9.885  13.910 -0.3479  0.2312  0.2429
38479OCT     C176957  14.265   0.216   5.493 -0.0826 -0.2397  0.1033
38479OCT     C276958  14.626  23.710   5.562 -0.0521  0.3253  0.3116
38480OCT     C176959   9.289  10.304   2.383  0.2767  0.1720 -0.1351
38480OCT     C276960   8.852  10.434   2.337  0.2006 -0.0100 -0.3750
38481OCT     C176961  19.719   5.795   1.554 -0.1525 -0.0225  0.1496
38481OCT     C276962  19.987   5.469   1.690 -0.1955  0.2525  0.0063
38482OCT     C176963   3.697  23.327  22.287 -0.0880 -0.0435 -0.1479
38482OCT     C276964   4.149  23.437  22.378 -0.1849 -0.3910  0.1460
38483OCT     C176965  12.643  12.322  16.133 -0.1950 -0.2451  0.0027
38483OCT     C276966  12.742  12.610  15.771  0.0979  0.0708 -0.1057
38484OCT     C176967  19.687  19.995  14.996  0.2152  0.0096 -0.5275
38484OCT     C276968  20.130  20.121  15.139 -0.3614 -0.0976  0.1932
38485OCT     C176969  11.953  10.525  11.197 -0.4460 -0.0952 -0.2626
38485OCT     C276970  12.008  10.957  11.405 -0.3142  0.2795 -0.1964
38486OCT     C176971  19.263  21.274  14.119 -0.2717 -0.4635  0.1189
38486OCT     C276972  19.542  21.183  13.773 -0.0027  0.1271 -0.3552
38487OCT     C176973  14.910   6.643   9.341 -0.0860 -0.0594  0.0225
38487OCT     C276974  14.771   7.037   9.125  0.0435 -0.1200 -0.1935
38488OCT     C176975  11.097   0.643   1.157  0.1079  0.1424 -0.3926
38488OCT     C276976  11.532   0.811   1.304  0.0016  0.0274 -0.1292
38489OCT     C176977  22.105  20.533  13.962 -0.1683  0.4556 -0.0001
38489OCT     C276978  22.065  20.730  14.400 -0.1598 -0.1051 -0.1359
38490OCT     C176979   5.798  22.813  10.101 -0.2439 -0.0670  0.2145
38490OCT     C276980   6.247  22.622  10.064  0.1750 -0.1553  0.0522
38491OCT     C176981  12.003   3.987  14.228 -0.0104  0.0639  0.1459
38491OCT     C276982  11.851   4.369  14.409  0.3707  0.1408  0.0438
38492OCT     C176983   9.294  22.653  10.119 -0.0765 -0.0335  0.0206
38492OCT     C276984   8.830  22.597  10.059  0.1879 -0.0002 -0.2811
38493OCT     C176985  19.942   8.278  21.716 -0.2685 -0.1051  0.0032
38493OCT     C276986  19.664   8.100  21.391  0.3067  0.0247 -0.1602
38494OCT     C176987   7.318  12.170  14.575  0.1922 -0.2417  0.0925
38494OCT     C276988   7.718  12.230  14.333  0.4715  0.2354 -0.2296
38495OCT     C176989   1.624  19.948  21.098  0.2070 -0.1019 -0.1543
38495OCT     C276990   2.066  20.116  21.118  0.0656  0.0706  0.1347
38496OCT     C176991  15.619  22.591  13.872 -0.0444  0.1583  0.1357
38496OCT     C276992  15.779  23.030  13.859 -0.2760  0.2136 -0.2915
38497OCT     C176993  16.335  12.427  15.792  0.0104 -0.2171 -0.0304
38497OCT     C276994  16.505  12.028  16.016 -0.1682  0.1651  0.0128
38498OCT     C176995  23.481  20.006  19.548  0.2918  0.0253  0.0441
38498OCT     C276996  23.326  20.469  19.414 -0.0219  0.0376  0.2168
38499OCT     C176997  16.451   2.991   1.830 -0.2829  0.2519  0.0099
38499OCT     C276998  16.292   3.045   2.251 -0.0154 -0.0893 -0.2850
38500OCT     C176999  16.937  16.208   6.719 -0.3219  0.1233  0.2510
38500OCT     C277000  16.760  15.844   6.458  0.1217  0.1537  0.0426
38501OCT     C177001  21.696   1.049   1.974 -0.0552 -0.1121  0.3664
38501OCT     C277002  21.900   0.889   2.346 -0.1753  0.0732 -0.1602
38502OCT     C177003   9.134   9.876   1.292 -0.2611 -0.1567 -0.1536
38502OCT     C277004   9.163  10.165   1.638  0.2295  0.0341 -0.0134
38503OCT     C177005  20.881  17.216   1.215  0.2356 -0.0092  0.2719
38503OCT     C277006  20.726  16.841   1.059  0.0659  0.0400 -0.2922
38504OCT     C177007  22.488  11.589   7.954 -0.0203 -0.4681 -0.2889
38504OCT     C277008  22.615  11.244   7.704  0.0148 -0.2445  0.0547
38505OCT     C177009   4.392   5.753  11.794  0.4243 -0.3000 -0.0175
38505OCT     C277010   3.989   5.850  12.079 -0.0664 -0.2023  0.0547
38506OCT     C177011   3.974   6.504   1.803 -0.0328 -0.0967  0.2265
38506OCT     C277012   4.309   6.516   1.472  0.1281 -0.0741 -0.0326
38507OCT     C177013  13.380  11.046  12.492 -0.1028 -0.0126 -0.0411
38507OCT     C277014  13.330  10.800  12.901 -0.3685 -0.1204  0.1111
38508OCT     C177015  13.548   8.078  14.383 -0.2522 -0.1448  0.1772
38508OCT     C277016  13.103   7.996  14.342 -0.0450  0.1122 -0.0171
38509OCT     C177017  21.026  17.812   6.565  0.2047  0.0106 -0.1536
38509OCT     C277018  20.948  17.589   6.948 -0.2979  0.1478 -0.0616
38510OCT     C177019  15.050   9.360  21.346  0.3416 -0.1866  0.1421
38510OCT     C277020  14.984   9.714  21.681  0.0646 -0.2513 -0.0341
38511OCT     C177021  19.632   9.947   3.018  0.0800  0.1499  0.2197
38511OCT     C277022  19.672  10.416   3.064  0.1611  0.1068  0.1804
38512OCT     C177023   9.616  13.820   4.737 -0.0027  0.1135  0.0765
38512OCT     C277024  10.017  13.658   4.611 -0.0276  0.1938  0.2564
38513OCT     C177025  12.035  16.178  13.188  0.3531  0.3099  0.1449
38513OCT     C277026  12.468  16.411  13.262  0.0293  0.0958 -0.2311
38514OCT     C177027   1.065  22.272  20.811 -0.1863 -0.0543  0.1197
38514OCT     C277028   1.116  22.752  20.703  0.3167 -0.2545 -0.0110
38515OCT     C177029  14.370   4.755  11.821 -0.4367  0.1227 -0.0950
38515OCT     C277030  14.551   5.196  11.731  0.2473  0.0620 -0.4203
38516OCT     C177031   6.453  16.429   1.572 -0.1650  0.2088 -0.1328
38516OCT     C277032   6.756  16.747   1.677  0.3776 -0.0807 -0.1587
38517OCT     C177033   4.152  19.999  12.109 -0.1962 -0.1061  0.1007
38517OCT     C277034   4.310  19.982  12.559 -0.2872  0.3963 -0.0087
38518OCT     C177035   5.840   3.121   1.964  0.2288 -0.2955  0.0031
38518OCT     C277036   5.582   3.383   2.181  0.0147  0.0997 -0.1611
38519OCT     C177037  16.786  21.033  16.192  0.4465  0.2781 -0.2273
38519OCT     C277038  16.813  21.377  16.515 -0.0003 -0.0361  0.0999
38520OCT     C177039   0.545  22.760  20.622  0.2145 -0.1208  0.1454
38520OCT     C277040   0.789  23.119  20.512  0.1393 -0.1617 -0.3753
38521OCT     C177041  18.051  20.930   6.575 -0.0712 -0.2851  0.2185
38521OCT     C277042  18.311  21.262   6.319  0.2244  0.2041  0.1418
38522OCT     C177043  19.025  15.801   6.530 -0.3531 -0.1207  0.1243
38522OCT     C277044  19.024  16.188   6.257  0.2652 -0.2404  0.0575
38523OCT     C177045  21.639   0.510   1.951 -0.2823 -0.0371  0.1613
38523OCT     C277046  21.892   0.305   2.279  0.1096 -0.1490 -0.1442
38524OCT     C177047  10.682  22.343   4.373 -0.3506 -0.2115 -0.3377
38524OCT     C277048  10.202  22.450   4.402 -0.0781  0.0327 -0.0684
38525OCT     C177049   0.177  20.488  11.910 -0.4153  0.0646 -0.0042
38525OCT     C277050   0.422  20.082  11.988  0.3246 -0.2994  0.0164
38526OCT     C177051   7.699   9.599  12.765  0.7475  0.2060  0.1783
38526OCT     C277052   7.853  10.035  12.896 -0.0789 -0.0807  0.1292
38527OCT     C177053   6.003  16.229   8.039  0.1513  0.0633 -0.1498
38527OCT     C277054   5.988  15.768   8.176 -0.0782 -0.0190 -0.0364
38528OCT     C177055  12.747  19.043  17.112 -0.3873 -0.3276 -0.1374
38528OCT     C277056  13.069  19.195  16.759  0.0345 -0.1510 -0.3759
38529OCT     C177057  10.718  15.372   9.191  0.0995 -0.1059  0.0570
38529OCT     C277058  10.297  15.536   9.389  0.0254  0.3502 -0.3874
38530OCT     C177059   6.874   8.165  18.277  0.0770  0.1340  0.2564
38530OCT     C277060   7.274   8.364  18.290  0.0171  0.1451 -0.1381
38531OCT     C177061  11.588   5.994   4.915 -0.2615  0.1659  0.0961
38531OCT     C277062  11.543   5.796   5.341 -0.1211 -0.2187 -0.0687
38532OCT     C177063  17.029  23.424   5.617 -0.1270 -0.0867  0.0058
38532OCT     C277064  17.424  23.220   5.601 -0.1007  0.0470 -0.0569
38533OCT     C177065  14.680   5.037   8.240 -0.2122  0.1439 -0.0579
38533OCT     C277066  14.535   5.337   8.617  0.1627 -0.0768  0.2341
38534OCT     C177067   9.532   1.600  11.885  0.5169  0.1263 -0.1884
38534OCT     C277068   9.919   1.484  12.100  0.3216  0.0054  0.1556
38535OCT     C177069   0.061   3.660  14.914 -0.1402  0.4356  0.3553
38535OCT     C277070   0.320   3.302  14.771  0.0705 -0.1982 -0.0829
38536OCT     C177071  19.089  14.734  22.975 -0.1460 -0.0240 -0.0432
38536OCT     C277072  18.840  14.390  22.916  0.0500  0.1905 -0.1163
38537OCT     C177073  18.531   3.688   1.873  0.0538 -0.2124 -0.0965
38537OCT     C277074  18.199   3.613   1.460 -0.0051  0.1908 -0.3593
38538OCT     C177075  10.192  10.755   4.761 -0.1830  0.3437 -0.0154
38538OCT     C277076   9.758  10.732   4.767 -0.0390 -0.0510  0.2921
38539OCT     C177077  16.573  15.334  16.480  0.1799  0.1334  0.6165
38539OCT     C277078  16.800  15.451  16.884  0.2383  0.4394 -0.0371
38540OCT     C177079  14.433  17.749  19.550 -0.2374 -0.3293 -0.0355
38540OCT     C277080  14.161  17.789  19.973 -0.1237  0.0552  0.0295
38541OCT     C177081  22.794   6.447  16.638 -0.0433 -0.1364 -0.1070
38541OCT     C277082  22.426   6.249  16.411 -0.2177 -0.0527 -0.2277
38542OCT     C177083  15.500  10.236   3.301  0.0093  0.1607  0.2689
38542OCT     C277084  15.277  10.630   3.199  0.4661 -0.1847 -0.1854
38543OCT     C177085   8.910  20.650   1.682 -0.1203 -0.2023  0.0766
38543OCT     C277086   8.947  20.522   2.166 -0.0247 -0.0258 -0.1611
38544OCT     C177087  17.424   1.398  16.121  0.0367  0.0267 -0.0991
38544OCT     C277088  17.403   1.108  16.443 -0.2715 -0.3166 -0.2776
38545OCT     C177089   1.359  19.052  11.809 -0.2689 -0.3042  0.2698
38545OCT     C277090   1.216  18.897  12.225 -0.2550 -0.1310 -0.1525
38546OCT     C177091  13.579  22.468  14.437  0.1008 -0.1873 -0.1103
38546OCT     C277092  13.533  22.645  14.829 -0.0998  0.0398 -0.0202
38547OCT     C177093   5.425  11.765  14.716  0.3626 -0.4438  0.3658
38547OCT     C277094   5.018  11.704  14.792  0.3228  0.0773 -0.1987
38548OCT     C177095  12.490   8.266  23.609 -0.5016  0.0218 -0.2585
38548OCT     C277096  12.101   8.480  23.481 -0.2035 -0.0175  0.2726
38549OCT     C177097  19.728  18.743   2.596  0.1329  0.1862 -0.2100
38549OCT     C277098  19.738  18.424   2.300  0.0133 -0.1315  0.0576
38550OCT     C177099   4.939   8.286  10.251  0.1388  0.0916 -0.0860
38550OCT     C277100   5.058   7.927  10.018  0.3185 -0.3454 -0.3099
38551OCT     C177101   0.236   0.856  11.456  0.0060  0.1512  0.2212
38551OCT     C277102   0.558   1.148  11.227  0.2072  0.1135  0.0696
38552OCT     C177103  20.754   7.753  15.022 -0.1378 -0.1086 -0.0971
38552OCT     C277104  20.331   7.678  15.066 -0.2036 -0.2303  0.0953
38553OCT     C177105  11.424  22.678   8.397 -0.1304  0.1378 -0.0402
38553OCT     C277106  11.429  22.646   7.938 -0.2672  0.0099 -0.3805
38554OCT     C177107  13.477   6.333  13.950 -0.2497 -0.0481  0.1059
38554OCT     C277108  13.304   6.209  14.326 -0.0689 -0.0134 -0.1276
38555OCT     C177109  17.554  20.042   9.479  0.1225 -0.0671  0.3120
38555OCT     C277110  17.586  20.121   9.944  0.2554 -0.0384  0.5168
38556OCT     C177111   0.182  21.066   2.624  0.0375  0.2895  0.4368
38556OCT     C277112   0.539  21.013   2.310 -0.0903  0.1321 -0.1950
38557OCT     C177113  10.705  18.269  11.304  0.1437  0.3151 -0.0919
38557OCT     C277114  10.898  17.877  11.434  0.2697 -0.0900  0.2141
38558OCT     C177115  11.019   5.275   1.387  0.2645 -0.1251  0.0356
38558OCT     C277116  10.945   5.374   0.954 -0.5269 -0.0851 -0.1653
38559OCT     C177117  19.493   9.499  16.689  0.3815  0.0076 -0.1349
38559OCT     C277118  19.613   9.548  16.218 -0.1312  0.1189  0.0175
38560OCT     C177119  17.057   1.035   3.409  0.0120 -0.0504 -0.2350
38560OCT     C277120  17.064   1.202   3.867 -0.0082 -0.0773 -0.0228
38561OCT     C177121   6.325  10.216  21.196  0.2060 -0.1829  0.0736
38561OCT     C277122   6.155  10.352  20.733 -0.2155  0.1745 -0.0675
38562OCT     C177123   3.002   5.995   1.482 -0.4083 -0.0527 -0.1370
38562OCT     C277124   3.377   6.126   1.277 -0.4381  0.0166 -0.3138
38563OCT     C177125  14.826  19.658  17.948  0.3293 -0.1100 -0.1494
38563OCT     C277126  14.598  19.374  18.273 -0.2712  0.0732  0.2948
38564OCT     C177127   1.455   6.873  17.819 -0.1361 -0.4105  0.0132
38564OCT     C277128   1.829   7.107  17.968 -0.0437  0.0150  0.2602
38565OCT     C177129  10.747   4.049   2.804 -0.1099  0.4783 -0.1031
38565OCT     C277130  10.392   4.383   2.840  0.3085  0.0629 -0.2437
38566OCT     C177131   9.486   2.021   3.591 -0.3302  0.4089 -0.2699
38566OCT     C277132   9.488   2.480   3.475  0.1773  0.3853 -0.1093
38567OCT     C177133   1.753  23.198  13.938 -0.0981 -0.0973 -0.1821
38567OCT     C277134   2.224  23.244  13.925  0.2042  0.0616  0.1956
38568OCT     C177135  10.607   9.597   1.032  0.1115 -0.0617 -0.0475
38568OCT     C277136  10.972   9.611   1.335  0.0862 -0.0909  0.0614
38569OCT     C177137  16.614  10.835   5.367 -0.3384 -0.2776 -0.0468
38569OCT     C277138  16.646  10.409   5.425 -0.3271  0.1121  0.1320
38570OCT     C177139  10.114  22.105  14.734  0.0631 -0.0721  0.0226
38570OCT     C277140  10.209  21.920  15.208  0.2405 -0.0158 -0.3222
38571OCT     C177141   2.576   9.560  22.482 -0.0673  0.3406  0.1763
38571OCT     C277142   2.836   9.677  22.124 -0.0990 -0.5075  0.1917
38572OCT     C177143   9.875  21.727  14.905  0.3597 -0.3253  0.2220
38572OCT     C277144   9.996  21.349  15.071 -0.1500 -0.3336 -0.1930
38573OCT     C177145  23.010  19.453   3.054  0.2680  0.0733  0.0016
38573OCT     C277146  23.145  19.657   2.630  0.2768 -0.1143 -0.4752
38574OCT     C177147   8.086   7.331   1.962 -0.1143  0.2171  0.0064
38574OCT     C277148   7.666   7.525   1.788 -0.3226  0.0761  0.0299
38575OCT     C177149  19.094   4.299  16.557  0.1134  0.2043  0.0895
38575OCT     C277150  18.886   3.943  16.458 -0.4181  0.2022 -0.0928
38576OCT     C177151  12.192  12.743   7.275  0.0958  0.0053 -0.1940
38576OCT     C277152  11.778  12.956   7.258 -0.0264  0.2616 -0.0808
38577OCT     C177153  15.682  11.689   1.007  0.0425 -0.0993  0.0395
38577OCT     C277154  15.270  11.654   1.156  0.1856  0.0907  0.2396
38578OCT     C177155  23.570  12.928  10.949 -0.1234 -0.3724  0.0496
38578OCT     C277156  23.585  12.499  11.151  0.0970 -0.2112 -0.1544
38579OCT     C177157  17.463   6.530  22.951 -0.0945  0.0391  0.2762
38579OCT     C277158  17.190   6.165  23.039 -0.1215  0.0979 -0.0561
38580OCT     C177159  23.130  14.471  17.715 -0.1109 -0.3683 -0.0611
38580OCT     C277160  22.988  14.883  17.673  0.0496 -0.0889  0.3533
38581OCT     C177161  22.529   5.240   3.244  0.3343  0.0671 -0.0443
38581OCT     C277162  22.212   5.497   3.079  0.1235  0.1435 -0.2499
38582OCT     C177163  17.664  13.503  20.058  0.0835 -0.1528 -0.1429
38582OCT     C277164  17.781  13.904  19.815  0.0855  0.0077  0.2197
38583OCT     C177165  12.237   9.823  10.284  0.0324  0.0142  0.0175
38583OCT     C277166  12.535   9.476  10.454  0.3230 -0.0798  0.0291
38584OCT     C177167  23.017  16.928  13.221 -0.1744  0.1805 -0.0808
38584OCT     C277168  23.303  16.649  12.978 -0.0389 -0.3623 -0.0284
38585OCT     C177169   5.753  17.792  13.748  0.3505  0.1506  0.1301
38585OCT     C277170   6.062  17.685  13.352 -0.1675  0.0041  0.0979
38586OCT     C177171   0.875   1.930  13.944 -0.1527 -0.0663 -0.2108
38586OCT     C277172   0.577   2.222  14.137 -0.2661  0.1464 -0.2416
38587OCT     C177173  19.489   6.443  10.508 -0.2906 -0.1499  0.2307
38587OCT     C277174  19.552   6.468  10.044  0.0893 -0.0752  0.4284
38588OCT     C177175  10.167   9.934   1.050  0.2323 -0.1940 -0.1140
38588OCT     C277176  10.477  10.009   0.701 -0.3932  0.0616 -0.0374
38589OCT     C177177  23.486  11.024  18.974  0.1069 -0.1012  0.3400
38589OCT     C277178   0.018  11.018  18.539 -0.0270 -0.4265  0.2233
38590OCT     C177179  15.460  21.850   9.071  0.0897 -0.1927 -0.0661
38590OCT     C277180  15.816  22.123   9.160  0.0079 -0.2194 -0.1765
38591OCT     C177181  10.463  23.473  14.876  0.0435  0.1793  0.2584
38591OCT     C277182  10.103  23.298  14.556 -0.1384  0.0491 -0.0040
38592OCT     C177183  20.352   7.198  12.410  0.3784 -0.1077 -0.3381
38592OCT     C277184  20.197   7.656  12.407  0.0169  0.1190 -0.3759
38593OCT     C177185   3.005   6.973   6.786  0.1169  0.0112  0.1969
38593OCT     C277186   3.339   7.250   6.569 -0.5507 -0.0518 -0.0311
38594OCT     C177187   6.123  10.134  14.264  0.3769  0.2155  0.0913
38594OCT     C277188   6.379  10.165  13.875  0.1192  0.0846  0.0584
38595OCT     C177189  12.946   0.621  20.750 -0.2098 -0.1311  0.3073
38595OCT     C277190  12.690   0.593  20.357  0.1141  0.0830 -0.1969
38596OCT     C177191   5.010  12.940  13.886 -0.4867 -0.4292 -0.2614
38596OCT     C277192   5.271  12.677  14.213  0.2029  0.1642  0.3148
38597OCT     C177193   8.119   3.302   3.046 -0.1339  0.0788 -0.1042
38597OCT     C277194   8.260   3.205   3.475 -0.0339 -0.0699 -0.0904
38598OCT     C177195  20.289  11.876   0.874 -0.1259  0.4997 -0.2464
38598OCT     C277196  20.606  11.946   0.564  0.3433 -0.0919  0.2685
38599OCT     C177197  20.495  10.824  23.741  0.2441  0.0033  0.3415
38599OCT     C277198  20.898  11.074   0.015  0.3430  0.1440  0.1725
38600OCT     C177199   9.318   2.893  13.952 -0.1368 -0.0466 -0.2760
38600OCT     C277200   9.685   3.169  14.077 -0.0141 -0.0971  0.3565
38601OCT     C177201  22.285  10.186   0.661 -0.2660 -0.0905 -0.3355
38601OCT     C277202  22.749  10.228   0.382  0.1592  0.0108  0.1945
38602OCT     C177203  13.972  18.768  22.802 -0.2483 -0.2321 -0.0959
38602OCT     C277204  14.424  18.595  22.868 -0.0511 -0.1358  0.0842
38603OCT     C177205   9.123  14.125   4.507  0.1412  0.0377 -0.2066
38603OCT     C277206   8.695  14.132   4.360  0.0967 -0.3134  0.1045
38604OCT     C177207  12.915  11.017  23.152 -0.0332 -0.2497 -0.1243
38604OCT     C277208  13.005  10.693  22.872  0.0561  0.2433 -0.1079
38605OCT     C177209   5.706  23.624   0.288 -0.4433  0.0425  0.1101
38605OCT     C277210   5.507   0.283   0.258  0.2573 -0.0878 -0.0038
38606OCT     C177211   4.271  19.678  15.610  0.2445  0.4061 -0.0172
38606OCT     C277212   4.395  19.459  15.258  0.0317 -0.1288  0.0620
38607OCT     C177213   2.405   1.364  17.092 -0.1380 -0.0139  0.3384
38607OCT     C277214   2.694   1.581  16.781  0.1873  0.0650 -0.0139
38608OCT     C177215   8.624   2.378   6.473  0.2192  0.2610 -0.1338
38608OCT     C277216   9.009   2.158   6.653 -0.2569  0.2715  0.0301
38609OCT     C177217  22.065   9.786  13.154 -0.2187  0.1129 -0.1670
38609OCT     C277218  21.662  10.025  13.153 -0.0321  0.1502 -0.0623
38610OCT     C177219   2.311  12.461  10.593 -0.1156  0.0432 -0.0160
38610OCT     C277220   2.187  12.000  10.475 -0.0479 -0.2620  0.2391
38611OCT     C177221  19.089  13.107  20.890 -0.0125 -0.1487 -0.1137
38611OCT     C277222  18.604  13.304  20.939 -0.3088 -0.3191  0.0122
38612OCT     C177223  14.627  18.684   5.424 -0.4257  0.4864  0.1583
38612OCT     C277224  14.859  18.916   5.757 -0.0492 -0.0159  0.1059
38613OCT     C177225  19.344  15.824  10.467  0.2648  0.1534  0.4904
38613OCT     C277226  19.563  16.108  10.241 -0.2892 -0.0715  0.0551
38614OCT     C177227  20.455   8.564  21.349  0.2421 -0.2142 -0.0091
38614OCT     C277228  20.877   8.404  21.420  0.0056 -0.0690  0.2050
38615OCT     C177229  19.256   9.007  15.068  0.1327 -0.0636 -0.2115
38615OCT     C277230  19.194   8.970  15.525  0.1233  0.0733 -0.2486
38616OCT     C177231  14.871   8.927   6.499 -0.0096 -0.3320  0.4741
38616OCT     C277232  15.243   9.197   6.622  0.1092 -0.0089  0.0713
38617OCT     C177233   1.978   7.828   3.517  0.1111 -0.2981  0.3506
38617OCT     C277234   2.023   8.287   3.522 -0.0808 -0.0328  0.3658
38618OCT     C177235  11.994   0.011  16.543 -0.1731 -0.2065 -0.2694
38618OCT     C277236  12.180   0.451  16.392  0.0830  0.2063  0.0406
38619OCT     C177237   8.934   9.516   4.693  0.1500  0.1575 -0.0086
38619OCT     C277238   8.849   9.885   5.097 -0.0028 -0.0967  0.1313
38620OCT     C177239   8.463  12.332   5.790  0.0151  0.1255 -0.0186
38620OCT     C277240   8.659  12.447   5.327  0.1254  0.0210  0.4224
38621OCT     C177241  10.559  22.099  16.126  0.0230  0.0016  0.2457
38621OCT     C277242  10.392  22.434  15.881 -0.0458 -0.0375  0.0472
38622OCT     C177243  12.695  19.254   4.033 -0.0278 -0.1356  0.1441
38622OCT     C277244  12.586  19.668   4.189  0.0721  0.1132 -0.0442
38623OCT     C177245  21.348  23.198  17.145 -0.2173 -0.1684  0.1073
38623OCT     C277246  21.259  23.506  17.509 -0.2004 -0.2242  0.1679
38624OCT     C177247   5.411   0.174  14.158  0.1783  0.1032  0.1080
38624OCT     C277248   5.821   0.269  14.392 -0.0331 -0.1183  0.0323
38625OCT     C177249   2.698   5.478  18.041  0.1419 -0.0886  0.1511
38625OCT     C277250   2.443   5.446  18.400 -0.2836 -0.1082  0.4582
38626OCT     C177251  11.570  15.025  11.087  0.0839  0.2291  0.3019
38626OCT     C277252  12.048  14.970  11.200  0.0643 -0.3352  0.1232
38627OCT     C177253  19.398   4.466   2.361  0.0037 -0.1621  0.3268
38627OCT     C277254  19.393   4.389   1.903  0.2643  0.1471 -0.1196
38628OCT     C177255  12.450  18.138  11.511 -0.0085  0.2987  0.0063
38628OCT     C277256  12.689  18.059  11.073 -0.0156  0.0258  0.0004
38629OCT     C177257  17.512   2.911  20.755  0.2176  0.5559 -0.2761
38629OCT     C277258  17.165   2.875  20.496 -0.1440 -0.0990 -0.3537
38630OCT     C177259  17.393  16.632  16.596  0.0317 -0.0115  0.2719
38630OCT     C277260  17.040  16.882  16.750 -0.2502  0.1217  0.1146
38631OCT     C177261   3.112   8.523  15.039 -0.1473 -0.1720  0.1675
38631OCT     C277262   3.522   8.511  15.282  0.3820  0.0676  0.1666
38632OCT     C177263  12.646  11.553   0.241  0.1992  0.4597 -0.0009
38632OCT     C277264  12.635  11.987   0.352 -0.1805 -0.0517  0.2497
38633OCT     C177265  23.395  20.995   6.783 -0.2034 -0.1198 -0.1800
38633OCT     C277266  22.996  20.844   6.653  0.1936  0.0096 -0.2371
38634OCT     C177267  14.915  10.264  18.023 -0.2482 -0.0470  0.2100
38634OCT     C277268  14.867   9.877  17.784 -0.3010  0.3506 -0.1807
38635OCT     C177269  22.343   5.436   4.347  0.0915 -0.0300  0.0006
38635OCT     C277270  22.606   5.633   3.973  0.2751  0.1214  0.1789
38636OCT     C177271   6.977  11.637  10.908 -0.2401 -0.0989 -0.0786
38636OCT     C277272   7.330  11.939  10.783 -0.0910 -0.0107  0.1574
38637OCT     C177273   8.983   2.401   7.074 -0.0947 -0.4106 -0.2643
38637OCT     C277274   9.296   2.627   7.354  0.1194 -0.2377 -0.0443
38638OCT     C177275  20.006  15.755  22.433 -0.2415  0.0393 -0.0109
38638OCT     C277276  20.385  15.541  22.721 -0.2689  0.1535  0.3054
38639OCT     C177277  20.924   6.598  14.131 -0.0444 -0.2630 -0.0114
38639OCT     C277278  21.039   6.163  14.040  0.0099  0.0880 -0.2239
38640OCT     C177279  17.926  16.826  10.165  0.1851  0.0396  0.1713
38640OCT     C277280  18.233  16.809  10.543  0.0114 -0.1483  0.3502
38641OCT     C177281  22.564   1.182  22.730  0.0214 -0.1858 -0.3289
38641OCT     C277282  22.127   1.204  22.958 -0.3966  0.0697 -0.1519
38642OCT     C177283  18.505   8.319  21.409 -0.1214  0.0459  0.1024
38642OCT     C277284  18.698   8.647  21.188 -0.2408 -0.0943  0.0755
38643OCT     C177285   5.261  20.309  20.548 -0.1261 -0.1865  0.4594
38643OCT     C277286   5.671  20.314  20.259 -0.0082  0.1626  0.0938
38644OCT     C177287  12.135  20.939   7.236 -0.1223  0.4048  0.2401
38644OCT     C277288  11.732  21.059   7.055 -0.3459 -0.0998  0.2342
38645OCT     C177289  14.842  17.886  11.913  0.0704  0.2893  0.3479
38645OCT     C277290  15.176  17.670  11.681 -0.0592  0.1251 -0.1350
38646OCT     C177291  11.670  11.662  18.936  0.3924  0.0462 -0.0912
38646OCT     C277292  12.006  11.966  19.083 -0.0302  0.0197  0.0189
38647OCT     C177293  12.209   7.186  20.764  0.2687  0.1316 -0.0459
38647OCT     C277294  12.501   6.882  20.611 -0.1577 -0.2010  0.0887
38648OCT     C177295   5.892   7.541  11.338 -0.2441 -0.2199 -0.2578
38648OCT     C277296   5.794   8.024  11.326  0.0560  0.0310 -0.3097
38649OCT     C177297  16.537  10.705  17.973  0.0626 -0.1425  0.1084
38649OCT     C277298  16.244  10.978  18.247  0.1353  0.2592  0.0136
38650OCT     C177299  22.060  10.316  14.449  0.1532  0.0061 -0.1482
38650OCT     C277300  21.890  10.471  14.023 -0.1317  0.0443 -0.1091
38651OCT     C177301   7.018   8.610  10.040 -0.1999 -0.0237 -0.1675
38651OCT     C277302   6.615   8.747  10.163  0.0901  0.2618 -0.1840
38652OCT     C177303  16.921  13.678   6.841 -0.0756 -0.1439  0.0583
38652OCT     C277304  16.608  13.864   6.522  0.1124  0.1194  0.0165
38653OCT     C177305   0.886   0.070  17.040  0.3427  0.1919  0.5599
38653OCT     C277306   0.489  23.739  17.244 -0.0164 -0.0255 -0.1573
38654OCT     C177307   4.892  12.045   8.984  0.0257  0.2051 -0.1393
38654OCT     C277308   4.555  11.669   9.166  0.2070 -0.0239 -0.0825
38655OCT     C177309  12.340   8.892   5.915  0.0036  0.0923 -0.1163
38655OCT     C277310  12.323   8.446   6.137 -0.1379  0.0419  0.0780
38656OCT     C177311  11.221   2.303   4.070  0.0624  0.0741  0.0646
38656OCT     C277312  11.338   1.875   3.926  0.1196  0.1306 -0.2810
38657OCT     C177313  23.192  23.350   2.217 -0.1148 -0.0750  0.1822
38657OCT     C277314  23.125  23.659   1.828 -0.1118  0.2829 -0.2002
38658OCT     C177315  10.223  21.023   8.299 -0.0755  0.4862 -0.1934
38658OCT     C277316  10.212  20.632   8.553  0.0595  0.0399  0.0405
38659OCT     C177317  22.731  21.084  15.149 -0.1046  0.2259 -0.2753
38659OCT     C277318  22.358  21.057  14.885 -0.1525 -0.1517 -0.2924
38660OCT     C177319  11.432   0.805   2.417  0.3738  0.1237  0.1610
38660OCT     C277320  11.337   1.137   2.136 -0.0308  0.5583  0.0055
38661OCT     C177321  17.332  16.904   3.816 -0.1847  0.0728  0.0509
38661OCT     C277322  17.496  16.479   3.748  0.0689  0.1356 -0.3884
38662OCT     C177323  10.678   7.266  22.605 -0.0136  0.2858  0.4322
38662OCT     C277324  11.069   7.136  22.347 -0.2403  0.0537  0.1065
38663OCT     C177325  21.774   4.990  20.024  0.0358  0.1910 -0.0414
38663OCT     C277326  21.997   5.391  19.932  0.0536  0.2026  0.3438
38664OCT     C177327   0.378   7.560  19.689  0.0902  0.1990 -0.1159
38664OCT     C277328   0.349   7.980  19.464 -0.3671  0.3099  0.4065
38665OCT     C177329   7.251   6.407   2.542  0.2930  0.2243 -0.1395
38665OCT     C277330   6.887   6.165   2.312  0.1228 -0.0413 -0.3563
38666OCT     C177331   5.729  18.606   7.320 -0.0496  0.5154  0.3211
38666OCT     C277332   5.684  18.329   7.731  0.2580 -0.0515 -0.0354
38667OCT     C177333   9.896   5.177  14.639 -0.3706 -0.0533  0.1698
38667OCT     C277334   9.881   5.635  14.612  0.1884  0.0748 -0.0754
38668OCT     C177335   4.872  22.384   5.451 -0.1803 -0.1933  0.0086
38668OCT     C277336   4.834  22.864   5.310 -0.4095 -0.3798 -0.2814
38669OCT     C177337  22.964   2.578   9.918 -0.0970  0.1596  0.1114
38669OCT     C277338  22.656   2.475   9.588 -0.2863 -0.2189 -0.3540
38670OCT     C177339   5.203  23.258   5.215 -0.2841  0.2472  0.0669
38670OCT     C277340   5.059  23.092   4.805  0.0802  0.2004 -0.1147
38671OCT     C177341  14.203  14.687   4.383  0.0694  0.0749 -0.3494
38671OCT     C277342  14.434  14.628   3.953  0.1853 -0.1078  0.0300
38672OCT     C177343   0.969  14.797  12.153 -0.3541  0.4401 -0.0312
38672OCT     C277344   0.650  15.050  12.295 -0.0572  0.1498  0.5279
38673OCT     C177345   0.795   5.521   2.642 -0.1214 -0.2631 -0.2299
38673OCT     C277346   0.376   5.628   2.778  0.1841 -0.2214  0.0730
38674OCT     C177347   4.423   5.993  17.257 -0.2791 -0.2405 -0.1953
38674OCT     C277348   4.495   6.288  17.669 -0.1394  0.1467  0.1271
38675OCT     C177349   9.416  22.815   4.601 -0.1611  0.2447  0.1324
38675OCT     C277350   9.032  22.681   4.782  0.1243 -0.0680  0.1090
38676OCT     C177351   7.390   9.958   3.798  0.1288  0.1268 -0.0781
38676OCT     C277352   7.504   9.760   3.371  0.2125 -0.0441  0.2383
38677OCT     C177353   5.708  16.003  15.694  0.3291 -0.0051  0.1801
38677OCT     C277354   5.349  15.984  15.966 -0.0835 -0.1932 -0.1051
38678OCT     C177355  20.507   2.550  16.760 -0.0847  0.3881  0.0397
38678OCT     C277356  20.760   2.281  16.996 -0.0669 -0.0302 -0.0488
38679OCT     C177357   8.864   6.185  19.656 -0.0464  0.0785  0.2220
38679OCT     C277358   8.948   6.399  19.262  0.1825  0.0312 -0.5540
38680OCT     C177359  16.938  21.532   7.094  0.3148  0.1967 -0.0474
38680OCT     C277360  16.707  21.151   6.964 -0.6131  0.1477  0.1411
38681OCT     C177361  13.132  11.088  17.738 -0.2786 -0.0168 -0.4852
38681OCT     C277362  12.795  11.208  18.100 -0.1393 -0.2505  0.1526
38682OCT     C177363   7.290  10.380  18.189 -0.0131  0.2115 -0.0159
38682OCT     C277364   6.925  10.120  18.406  0.0534  0.0785 -0.3214
38683OCT     C177365   7.683  19.277  11.080  0.0967  0.0390 -0.1768
38683OCT     C277366   7.361  19.073  10.878  0.0461  0.3346  0.0537
38684OCT     C177367  15.273   3.702   8.459 -0.3029  0.0071  0.0667
38684OCT     C277368  14.976   4.050   8.269  0.0163 -0.1136 -0.3493
38685OCT     C177369  10.215  22.336  21.884 -0.1510  0.1272  0.0962
38685OCT     C277370  10.596  22.091  22.085  0.4285 -0.1192 -0.1203
38686OCT     C177371  14.876  16.011  17.991 -0.0812 -0.0736  0.4916
38686OCT     C277372  14.427  16.076  17.840  0.2663 -0.0659 -0.1216
38687OCT     C177373  21.503   4.710   1.371  0.0863  0.0264 -0.3613
38687OCT     C277374  21.489   4.227   1.513 -0.1715 -0.3122  0.2946
38688OCT     C177375  18.503   4.864   3.398  0.0826 -0.1416 -0.0362
38688OCT     C277376  18.850   5.018   3.640  0.0107 -0.0938 -0.3287
38689OCT     C177377   5.178  10.819   2.442 -0.2372  0.0669 -0.1307
38689OCT     C277378   4.831  11.037   2.256  0.0221  0.1002  0.3043
38690OCT     C177379  10.309  19.511  14.548  0.2889  0.0510 -0.1489
38690OCT     C277380  10.272  19.739  14.135 -0.0216  0.1468 -0.3841
38691OCT     C177381   2.559   9.202   7.709  0.0412  0.0463 -0.1633
38691OCT     C277382   2.981   9.019   7.652  0.3233  0.2105 -0.0592
38692OCT     C177383   5.308   7.196  21.599  0.3050  0.1013 -0.0479
38692OCT     C277384   5.366   7.338  21.163 -0.0047  0.1591  0.2625
38693OCT     C177385  17.453   7.323  16.950 -0.1764 -0.0361  0.0421
38693OCT     C277386  17.007   7.168  16.904 -0.2043  0.0396  0.0420
38694OCT     C177387   7.492   9.546   0.856 -0.0922  0.1764 -0.3407
38694OCT     C277388   7.210   9.278   1.171 -0.2897 -0.4059  0.1641
38695OCT     C177389   7.797   8.306   2.454 -0.0037 -0.1022  0.0698
38695OCT     C277390   7.786   8.624   2.799 -0.2071  0.1953 -0.3060
38696OCT     C177391  15.512  21.850   6.836  0.0883  0.0308 -0.5391
38696OCT     C277392  15.192  21.985   7.150  0.2718 -0.1160 -0.2273
38697OCT     C177393  13.546   2.833  10.393  0.1498 -0.4243 -0.2199
38697OCT     C277394  13.959   2.654  10.510 -0.1063 -0.1540  0.0899
38698OCT     C177395  20.001  21.413   7.614  0.0510 -0.0737 -0.0233
38698OCT     C277396  19.713  21.430   7.973  0.2734 -0.3484 -0.0480
38699OCT     C177397   5.105  19.675  15.047 -0.2530  0.3379  0.0162
38699OCT     C277398   4.836  19.299  14.983 -0.2396 -0.2485  0.2763
38700OCT     C177399  16.634  13.150  14.341  0.2870 -0.0837  0.2687
38700OCT     C277400  16.775  12.754  14.657 -0.1664 -0.2283  0.4495
38701OCT     C177401   1.579  20.196   7.761  0.1166  0.5423  0.3149
38701OCT     C277402   2.007  19.991   7.878  0.2597  0.0267 -0.1502
38702OCT     C177403  20.468  13.350   1.620  0.0061  0.0557 -0.2054
38702OCT     C277404  20.408  13.812   1.433 -0.1734 -0.1454  0.0397
38703OCT     C177405   5.200  23.319  11.005  0.4433 -0.3867 -0.0755
38703OCT     C277406   5.666  23.404  10.905 -0.1761  0.0655  0.3798
38704OCT     C177407   5.459   4.488   2.151  0.0862 -0.1704 -0.0704
38704OCT     C277408   5.123   4.279   1.981 -0.0672 -0.0326  0.1063
38705OCT     C177409   5.078  11.984   5.783  0.2431  0.5531  0.3520
38705OCT     C277410   5.510  12.113   5.719  0.3493 -0.0291 -0.5112
38706OCT     C177411  15.904   8.147   0.208  0.0191 -0.0190 -0.0259
38706OCT     C277412  15.530   7.989  23.707 -0.3022 -0.2477 -0.3950
38707OCT     C177413   4.243  16.955   6.941  0.0837  0.0142  0.3079
38707OCT     C277414   4.633  16.698   6.942 -0.3044  0.0639  0.0456
38708OCT     C177415  17.361   8.890   7.350  0.1506 -0.0824  0.2189
38708OCT     C277416  17.020   8.681   7.113  0.3467 -0.0998 -0.0549
38709OCT     C177417  19.409  22.785  14.522 -0.2762  0.4311  0.1581
38709OCT     C277418  19.322  23.148  14.751 -0.0332 -0.0117  0.1197
38710OCT     C177419  15.033  18.885   4.650 -0.2553  0.0008  0.0013
38710OCT     C277420  14.782  18.945   4.262 -0.0836 -0.1108  0.2434
38711OCT     C177421   4.912   6.680   7.158  0.1472 -0.0961  0.3059
38711OCT     C277422   5.003   6.636   7.612 -0.1465 -0.0652  0.0756
38712OCT     C177423   8.175  11.591   0.573  0.1824 -0.2915  0.0718
38712OCT     C277424   7.742  11.807   0.731 -0.3713 -0.1836  0.4528
38713OCT     C177425  15.507  16.529  12.931 -0.0837  0.0744  0.2442
38713OCT     C277426  15.650  16.983  12.865 -0.1932 -0.0194 -0.1147
38714OCT     C177427   0.518   5.703  20.759 -0.0383  0.1060 -0.3500
38714OCT     C277428   0.799   5.366  20.620 -0.1452 -0.0919  0.1560
38715OCT     C177429  18.208   7.761  13.156  0.2233  0.0263  0.2099
38715OCT     C277430  17.937   7.428  12.986 -0.0053 -0.2688 -0.0469
38716OCT     C177431  16.193  19.136  17.818 -0.1168 -0.1089  0.1649
38716OCT     C277432  15.884  18.803  17.930 -0.1290  0.3798 -0.0704
38717OCT     C177433  14.605   7.755   2.693  0.0402 -0.1005  0.3390
38717OCT     C277434  14.751   7.848   2.303 -0.0506  0.1489  0.1992
38718OCT     C177435  20.535   5.362  15.710 -0.1866 -0.2169 -0.0184
38718OCT     C277436  20.998   5.228  15.679  0.1197  0.1936 -0.0833
38719OCT     C177437   8.736   7.803  17.516 -0.4068 -0.0297  0.1054
38719OCT     C277438   8.725   7.713  18.004 -0.5120 -0.4209  0.2772
38720OCT     C177439   3.767  10.313  10.838  0.1239 -0.1504  0.3006
38720OCT     C277440   3.898   9.870  10.732  0.1314  0.1665  0.0793
38721OCT     C177441   0.481   5.244   8.603 -0.4390  0.0840  0.1026
38721OCT     C277442   0.786   5.571   8.709 -0.1421 -0.1587 -0.2473
38722OCT     C177443   6.786  17.394  22.265 -0.2675 -0.0682  0.2804
38722OCT     C277444   6.406  17.375  22.593 -0.3163 -0.1301  0.1414
38723OCT     C177445   3.701  12.120  10.954  0.3019 -0.1043  0.0110
38723OCT     C277446   3.661  12.007  10.493  0.2395 -0.0418  0.0799
38724OCT     C177447  21.718  14.002  18.965  0.0356  0.1991  0.5109
38724OCT     C277448  21.903  14.449  19.058  0.3601  0.0217 -0.0313
38725OCT     C177449   4.749  16.764  21.154  0.4508 -0.0954  0.0464
38725OCT     C277450   4.849  16.319  21.243  0.0579 -0.0750 -0.2133
38726OCT     C177451   4.710  22.515  10.021 -0.0940  0.3755  0.2594
38726OCT     C277452   5.004  22.093  10.043 -0.0461  0.2254 -0.3079
38727OCT     C177453  21.225   3.634  13.790  0.1091  0.1732  0.3283
38727OCT     C277454  20.864   3.571  14.097 -0.1898  0.2826  0.0629
38728OCT     C177455  14.840  11.803  22.282  0.1203  0.1591  0.1200
38728OCT     C277456  15.255  11.650  22.372  0.1654  0.2936  0.0029
38729OCT     C177457   1.697   0.384  17.565  0.0134  0.1768 -0.0684
38729OCT     C277458   1.561   0.796  17.796 -0.3843  0.6073 -0.1006
38730OCT     C177459  12.703  13.217  13.123 -0.0288  0.0322  0.2453
38730OCT     C277460  12.288  13.254  13.268 -0.1216 -0.3756 -0.0209
38731OCT     C177461   3.014   7.688   1.147 -0.3820  0.2583 -0.3593
38731OCT     C277462   3.336   7.744   1.488 -0.0040  0.2015  0.0343
38732OCT     C177463   5.051   1.175  18.440 -0.3443  0.2667 -0.1500
38732OCT     C277464   5.448   1.212  18.690 -0.1999 -0.2043  0.1195
38733OCT     C177465  15.131  10.764  16.740 -0.3370 -0.1553 -0.1876
38733OCT     C277466  14.739  10.995  16.864  0.2090  0.1512 -0.0232
38734OCT     C177467   9.864   8.140   8.070  0.0404  0.1012  0.1204
38734OCT     C277468   9.969   8.531   8.350  0.3460 -0.2485 -0.2398
38735OCT     C177469  12.634  21.318  14.884  0.1299  0.1522 -0.2933
38735OCT     C277470  12.877  21.690  14.855 -0.0376  0.2919 -0.0318
38736OCT     C177471  19.763  20.249  17.766 -0.0964  0.2277 -0.1199
38736OCT     C277472  19.532  20.463  17.425 -0.1010 -0.2468 -0.2190
38737OCT     C177473   4.425  13.624  13.685  0.3964  0.1119  0.1170
38737OCT     C277474   4.635  13.807  13.312  0.0341 -0.0823  0.0007
38738OCT     C177475  13.841  12.591  22.981  0.2491 -0.1801 -0.4565
38738OCT     C277476  13.581  12.277  22.770  0.1080 -0.0904  0.1259
38739OCT     C177477  22.140  23.618   7.251  0.1570 -0.2396 -0.0691
38739OCT     C277478  22.242  23.193   7.362 -0.0024  0.1238 -0.3451
38740OCT     C177479  20.575   6.119   5.920 -0.1819 -0.0354 -0.1691
38740OCT     C277480  20.419   5.879   6.309 -0.0602 -0.3572 -0.1277
38741OCT     C177481  22.994  17.436  23.556  0.1559  0.1832 -0.1621
38741OCT     C277482  23.286  17.560  23.231 -0.1509 -0.1146 -0.1015
38742OCT     C177483  21.900  21.877   0.411 -0.2619  0.0849  0.1691
38742OCT     C277484  21.517  21.920   0.659  0.4353 -0.0856 -0.3301
38743OCT     C177485   0.860  15.661   8.796  0.0053 -0.0691 -0.1682
38743OCT     C277486   0.410  15.589   8.708  0.3970 -0.1097 -0.2012
38744OCT     C177487  14.446   4.803   7.456  0.0499 -0.0764  0.2484
38744OCT     C277488  14.864   4.599   7.366  0.1376 -0.0938 -0.1208
38745OCT     C177489  19.335  13.045   7.925 -0.0175 -0.0774  0.1775
38745OCT     C277490  18.961  13.051   7.660  0.0875  0.2633 -0.1530
38746OCT     C177491   3.927  15.084  19.165  0.1869 -0.3340  0.1065
38746OCT     C277492   3.439  15.180  19.193 -0.1895  0.1835 -0.0849
38747OCT     C177493   2.665  22.193   1.342 -0.1684  0.1249  0.0167
38747OCT     C277494   2.710  22.607   1.153  0.0298  0.2777 -0.3188
38748OCT     C177495  21.463   3.436  15.887  0.1594  0.0899 -0.1755
38748OCT     C277496  21.860   3.701  15.793  0.0171 -0.1826 -0.4112
38749OCT     C177497   5.611  21.924   6.963 -0.0250  0.0830  0.1254
38749OCT     C277498   5.526  22.286   6.724  0.1033 -0.1747  0.0108
38750OCT     C177499  19.189   1.192   6.401 -0.2270 -0.3078  0.1589
38750OCT     C277500  19.258   0.715   6.483  0.0217  0.0421 -0.3680
38751OCT     C177501  23.356   6.131  16.342 -0.0869  0.1652 -0.2549
38751OCT     C277502  23.175   6.176  16.786  0.2826  0.0362  0.4933
38752OCT     C177503  16.707   7.664  23.272 -0.2138  0.1657 -0.2942
38752OCT     C277504  16.256   7.512  23.276 -0.1849  0.2484  0.3895
38753OCT     C177505  16.849  10.944  21.348 -0.1648 -0.3280 -0.2528
38753OCT     C277506  16.940  10.512  21.551 -0.0725  0.1795 -0.0813
38754OCT     C177507  15.521   5.847  14.090 -0.1240  0.0543  0.1330
38754OCT     C277508  15.526   6.327  14.111  0.0736  0.3094 -0.2655
38755OCT     C177509  21.040  10.851  16.704  0.1629 -0.1038 -0.2072
38755OCT     C277510  21.427  11.153  16.665  0.1066 -0.4181  0.0507
38756OCT     C177511  10.217  14.919  16.452 -0.1449  0.0195  0.5206
38756OCT     C277512  10.058  14.727  16.794  0.0024  0.1414 -0.3175
38757OCT     C177513  10.686   5.209  16.208  0.2881 -0.0882  0.0600
38757OCT     C277514  10.687   4.931  16.607 -0.0952 -0.0143 -0.3394
38758OCT     C177515   3.993   1.831   4.506 -0.0372  0.1821  0.1661
38758OCT     C277516   4.128   2.245   4.689 -0.0717  0.0738  0.0669
38759OCT     C177517  20.756   8.256   0.537  0.5398 -0.0325  0.0103
38759OCT     C277518  20.322   8.145   0.290 -0.0747  0.0050  0.4058
38760OCT     C177519  11.559   0.732   6.261 -0.0104 -0.1588 -0.2283
38760OCT     C277520  11.297   0.599   6.630  0.1295  0.1841 -0.2096
38761OCT     C177521  17.743  19.313   4.862  0.2869  0.2105  0.3023
38761OCT     C277522  17.600  19.741   4.693 -0.1826  0.1034  0.0016
38762OCT     C177523  14.746   1.519   2.676  0.3292  0.0805  0.0437
38762OCT     C277524  14.863   1.102   2.696 -0.2149 -0.1088 -0.2420
38763OCT     C177525  10.763  13.900  22.183  0.0779  0.0142  0.1524
38763OCT     C277526  11.173  13.882  21.917 -0.0096 -0.1389  0.0244
38764OCT     C177527  17.860  11.082  19.999  0.0838  0.0682  0.0129
38764OCT     C277528  17.935  11.010  20.472 -0.1867  0.1546 -0.1276
38765OCT     C177529  22.377  14.056   9.439  0.1114 -0.0677 -0.0476
38765OCT     C277530  22.729  13.839   9.677 -0.1036 -0.0210  0.0986
38766OCT     C177531  20.256   4.358   2.318 -0.2069 -0.0642 -0.0596
38766OCT     C277532  19.848   4.409   2.106  0.1153  0.1710 -0.2888
38767OCT     C177533  17.109   7.015   2.507  0.0635 -0.1671 -0.0374
38767OCT     C277534  16.996   7.458   2.575  0.0161  0.0780 -0.4046
38768OCT     C177535  19.062  21.754  11.050  0.0080 -0.2837  0.2834
38768OCT     C277536  19.001  21.312  10.982  0.3834 -0.1440 -0.2127
38769OCT     C177537   5.559   6.702  23.082  0.0592 -0.0297  0.1612
38769OCT     C277538   5.625   7.079  23.398  0.0352 -0.0790 -0.0167
38770OCT     C177539  12.007  21.938   4.532 -0.1847 -0.0712  0.0845
38770OCT     C277540  11.836  21.831   4.983  0.1312  0.0169 -0.1445
38771OCT     C177541  21.313   8.201  17.512 -0.1348  0.3298  0.0522
38771OCT     C277542  21.340   8.662  17.328 -0.0482 -0.2763  0.1638
38772OCT     C177543  14.799   0.000   0.546  0.2855  0.1598 -0.1636
38772OCT     C277544  14.389  23.521   0.702  0.1095  0.3240  0.1852
38773OCT     C177545   6.484   8.565  15.736 -0.2383 -0.2898  0.2899
38773OCT     C277546   6.536   9.057  15.772  0.0002 -0.0094 -0.2385
38774OCT     C177547   9.670   1.303  21.341 -0.2933 -0.1953  0.3769
38774OCT     C277548  10.033   1.301  21.084  0.0186  0.2244  0.2535
38775OCT     C177549  23.101   6.520  17.115 -0.2570 -0.1059 -0.1587
38775OCT     C277550  23.255   6.627  16.703  0.0306 -0.2873  0.1611
38776OCT     C177551   0.347   5.539   9.057 -0.2833 -0.2237 -0.1794
38776OCT     C277552   0.394   6.016   9.003 -0.1655  0.0414  0.0694
38777OCT     C177553  18.082  20.555  14.830 -0.3308 -0.1026  0.2957
38777OCT     C277554  17.777  20.477  14.480 -0.1662 -0.0694  0.2762
38778OCT     C177555   0.003  18.982  16.872 -0.3003 -0.1924 -0.0272
38778OCT     C277556   0.270  18.636  16.627 -0.0874 -0.2014 -0.0414
38779OCT     C177557   7.729   7.091   7.525  0.0223  0.0563 -0.0235
38779OCT     C277558   8.138   7.151   7.234 -0.0057  0.0392 -0.1605
38780OCT     C177559   8.617   9.355  11.138 -0.5466  0.0563 -0.1154
38780OCT     C277560   8.972   9.141  10.841  0.0180  0.0684  0.0107
38781OCT     C177561   1.910   4.411  16.393 -0.1789  0.2083 -0.3110
38781OCT     C277562   1.936   4.760  16.678 -0.0240 -0.1508 -0.0482
38782OCT     C177563   9.731   6.212  11.008  0.0562 -0.0949 -0.1036
38782OCT     C277564   9.539   6.220  10.586  0.2023 -0.2491  0.3829
38783OCT     C177565   5.840  17.143   1.820 -0.0530  0.2162 -0.2229
38783OCT     C277566   5.480  17.450   1.902  0.0542  0.1000 -0.2645
38784OCT     C177567   6.503  16.918   7.981  0.0996  0.0908  0.2825
38784OCT     C277568   6.841  17.050   7.639  0.0964 -0.1178  0.3537
38785OCT     C177569  20.201  11.653   2.023 -0.0207 -0.0007 -0.2541
38785OCT     C277570  20.434  11.659   1.650  0.3153 -0.2560 -0.2603
38786OCT     C177571   5.407  14.858  22.826  0.2508  0.1142 -0.2930
38786OCT     C277572   5.387  15.215  22.479 -0.1302 -0.1955 -0.1198
38787OCT     C177573   0.076   0.695  15.667  0.2580 -0.1764  0.1537
38787OCT     C277574  23.378   0.495  15.748 -0.0748  0.1673  0.1439
38788OCT     C177575   3.541   6.374  19.501 -0.1649  0.2277 -0.3903
38788OCT     C277576   3.184   6.007  19.489 -0.3095 -0.1361  0.1929
38789OCT     C177577   3.094  21.159   9.238  0.0049 -0.1428 -0.1941
38789OCT     C277578   2.727  21.073   8.937 -0.0935 -0.0243 -0.0943
38790OCT     C177579   1.294   0.434   1.176  0.5451  0.0233 -0.1283
38790OCT     C277580   0.983   0.637   0.813 -0.0853 -0.2092 -0.1161
38791OCT     C177581  19.709  12.777   3.295  0.0690  0.1285  0.1729
38791OCT     C277582  19.654  13.079   3.617 -0.0166 -0.2563 -0.0633
38792OCT     C177583  18.644   4.989  17.896 -0.0641  0.4349 -0.2962
38792OCT     C277584  18.932   4.977  17.614  0.1567  0.3235  0.0486
38793OCT     C177585  18.595   4.996   2.159 -0.0894 -0.1341 -0.3168
38793OCT     C277586  18.585   5.266   1.768 -0.0664  0.0953  0.3399
38794OCT     C177587   1.237  10.674  13.716  0.1277 -0.0338 -0.1291
38794OCT     C277588   1.077  11.128  13.761  0.1165  0.0713 -0.3369
38795OCT     C177589  15.506   0.661  21.677 -0.0334  0.0667  0.2993
38795OCT     C277590  15.577   1.081  21.500 -0.2080 -0.4315  0.1238
38796OCT     C177591   9.928   8.647   3.266  0.0657  0.0510 -0.0274
38796OCT     C277592   9.642   9.000   3.098  0.0017  0.0923  0.0511
38797OCT     C177593  10.329   0.666  12.340 -0.0270  0.0366  0.1347
38797OCT     C277594  10.046   0.395  12.649 -0.2814 -0.1405 -0.1132
38798OCT     C177595  17.420  20.222   6.109 -0.1348  0.1411  0.0389
38798OCT     C277596  17.082  20.109   6.462 -0.0451  0.2515 -0.3480
38799OCT     C177597   4.678  11.398   3.867 -0.3111 -0.0528 -0.2584
38799OCT     C277598   5.035  11.606   4.134  0.0002  0.0672  0.3033
38800OCT     C177599   9.873  13.209  23.483  0.0618 -0.1851 -0.1678
38800OCT     C277600  10.290  13.237  23.262  0.0940 -0.1095  0.2020
38801OCT     C177601  19.335   1.573  16.711 -0.3188  0.4065 -0.0870
38801OCT     C277602  19.654   1.830  16.457 -0.2751  0.1545 -0.3497
38802OCT     C177603   5.660  11.059  17.258  0.1843  0.1539  0.3000
38802OCT     C277604   5.578  11.540  17.156 -0.3525 -0.2971  0.1556
38803OCT     C177605   4.085   0.478  11.048 -0.1831 -0.0667  0.2877
38803OCT     C277606   3.639   0.404  11.257 -0.0233 -0.3908 -0.3680
38804OCT     C177607   2.481   1.598   5.472 -0.0453  0.2168 -0.1751
38804OCT     C277608   2.463   2.045   5.343 -0.3892  0.1724 -0.1310
38805OCT     C177609   9.596   2.987  16.260  0.0194  0.3499  0.0241
38805OCT     C277610   9.934   2.735  16.079  0.0620 -0.1020 -0.0780
38806OCT     C177611   5.545  21.477  16.669  0.1693 -0.0615 -0.2241
38806OCT     C277612   5.164  21.290  16.450 -0.0208 -0.0343 -0.2872
38807OCT     C177613  12.547   2.695  19.798 -0.1776 -0.1751 -0.0031
38807OCT     C277614  12.993   2.667  19.771  0.2845 -0.0089  0.0780
38808OCT     C177615  21.667   8.739  15.794 -0.1575 -0.2913 -0.2570
38808OCT     C277616  21.864   9.137  15.651 -0.2300 -0.0059  0.0296
38809OCT     C177617   3.067  19.832  13.183 -0.2324  0.0847 -0.2907
38809OCT     C277618   3.001  19.574  13.586 -0.2048  0.1172  0.0585
38810OCT     C177619  11.600   7.491  14.524  0.3645  0.3077 -0.2126
38810OCT     C277620  11.372   7.001  14.584 -0.1655 -0.2327 -0.1048
38811OCT     C177621   4.299  18.445  21.981  0.1725 -0.1265 -0.3105
38811OCT     C277622   4.181  18.001  21.873 -0.0161  0.0692  0.0963
38812OCT     C177623   7.884   2.447   8.757 -0.2129  0.3733  0.4435
38812OCT     C277624   7.678   2.655   8.406  0.0797 -0.2349  0.3689
38813OCT     C177625   6.376  12.942  13.180 -0.0940  0.1646 -0.2527
38813OCT     C277626   6.620  13.253  12.956 -0.2024  0.0304 -0.3349
38814OCT     C177627   5.009  23.456   9.968  0.0964 -0.0158 -0.3573
38814OCT     C277628   5.370   0.050   9.848 -0.0247  0.1290 -0.0164
38815OCT     C177629  12.501   0.325  10.395  0.3663  0.2502 -0.0363
38815OCT     C277630  12.627  23.693  10.698  0.2890 -0.4234  0.1425
38816OCT     C177631  21.705  14.721   6.177 -0.2653 -0.0263  0.0636
38816OCT     C277632  21.343  14.965   6.142  0.2150 -0.1136  0.2662
38817OCT     C177633   7.243   3.220  22.766  0.1046 -0.2118  0.0327
38817OCT     C277634   7.156   2.841  22.510 -0.3121  0.1630  0.2701
38818OCT     C177635  20.831   2.138   0.366 -0.1624  0.0418  0.1073
38818OCT     C277636  20.671   2.388   0.730 -0.2505 -0.1498 -0.1600
38819OCT     C177637   0.313   6.106  18.409  0.0659 -0.2148 -0.3347
38819OCT     C277638  23.640   6.351  18.329 -0.1793  0.1397  0.1080
38820OCT     C177639   3.660  14.436   6.878 -0.1254  0.1519  0.2545
38820OCT     C277640   3.537  14.811   6.559  0.0948  0.3137 -0.2345
38821OCT     C177641  13.737  18.805  12.277  0.1397 -0.1665  0.4104
38821OCT     C277642  13.638  19.069  12.693 -0.0421  0.1672  0.2731
38822OCT     C177643  10.395   0.639   3.397 -0.2587  0.0564 -0.1920
38822OCT     C277644  10.625   0.364   3.082  0.3046  0.2867 -0.3508
38823OCT     C177645   2.246  19.024  18.937 -0.1299  0.0862  0.1856
38823OCT     C277646   2.575  18.978  18.591 -0.3109 -0.1695  0.0528
38824OCT     C177647  15.002   5.825  10.332 -0.1747 -0.1590 -0.2854
38824OCT     C277648  14.960   5.514   9.999 -0.2553  0.1026  0.0428
38825OCT     C177649   1.127  19.822  20.925  0.0563 -0.2371  0.2032
38825OCT     C277650   1.024  19.991  21.346  0.4885  0.0618 -0.0281
38826OCT     C177651  15.593   7.744   1.336  0.0454  0.1404  0.3361
38826OCT     C277652  15.660   8.056   1.025  0.2898  0.1806  0.0624
38827OCT     C177653  19.095  19.792  19.243 -0.3669 -0.2746 -0.3040
38827OCT     C277654  18.834  19.590  18.863  0.1966  0.0194  0.0620
38828OCT     C177655   0.068  23.561  12.996  0.0877  0.1125 -0.0434
38828OCT     C277656  23.680  23.132  12.795  0.1039  0.0639 -0.0697
38829OCT     C177657  17.066  11.383   7.705 -0.0616 -0.3325 -0.0285
38829OCT     C277658  17.409  11.613   7.542 -0.0050  0.1970  0.4765
38830OCT     C177659  19.863  16.237  19.274  0.2702  0.1312 -0.2157
38830OCT     C277660  20.010  16.144  18.827 -0.1675  0.2348 -0.2166
38831OCT     C177661   7.648   5.979  14.005 -0.2829  0.1182  0.3972
38831OCT     C277662   8.008   6.052  14.372  0.4173  0.5554 -0.2128
38832OCT     C177663   5.539  22.838  18.337  0.2311  0.1286  0.1481
38832OCT     C277664   5.196  23.159  18.148  0.0304 -0.2842  0.3736
38833OCT     C177665  13.586  12.283  16.349  0.0933 -0.0424  0.2302
38833OCT     C277666  13.150  12.443  16.390 -0.0091 -0.0669  0.1934
38834OCT     C177667  12.324  20.222   9.949 -0.0789 -0.1155  0.0571
38834OCT     C277668  12.235  19.883   9.608  0.1773  0.4800 -0.0816
38835OCT     C177669  15.066  16.247  16.171 -0.0349 -0.0118  0.2975
38835OCT     C277670  14.663  16.071  16.373 -0.3950  0.1025 -0.1712
38836OCT     C177671  15.707   6.104  12.417 -0.0635 -0.1939  0.2924
38836OCT     C277672  15.874   5.959  12.821 -0.0274  0.0262 -0.2906
38837OCT     C177673  12.091   9.679  17.166 -0.0604 -0.0417  0.1226
38837OCT     C277674  11.899  10.021  17.286  0.2223 -0.0890  0.0145
38838OCT     C177675  23.577  21.809  17.533 -0.1668 -0.0830 -0.1616
38838OCT     C277676  23.705  21.388  17.526  0.3382 -0.0710 -0.0539
38839OCT     C177677  11.219   2.082  21.527 -0.0810  0.2629 -0.0423
38839OCT     C277678  11.639   2.087  21.668 -0.0984  0.2447  0.0507
38840OCT     C177679   0.837  12.460  16.920 -0.3858 -0.0664  0.0831
38840OCT     C277680   0.477  12.204  16.790 -0.1557 -0.1316  0.3135
38841OCT     C177681  17.877  13.031  12.766  0.1980 -0.1498 -0.0048
38841OCT     C277682  18.137  12.755  12.505  0.0276 -0.1117 -0.1152
38842OCT     C177683   3.616   0.776  11.968 -0.3093 -0.2620  0.2320
38842OCT     C277684   3.728   1.254  12.122 -0.3851  0.0531  0.1466
38843OCT     C177685   4.220   0.026  14.276 -0.6123  0.2097  0.0960
38843OCT     C277686   4.300  23.474  14.554 -0.2691  0.0416  0.0792
38844OCT     C177687  17.888  15.764   7.115  0.1647  0.2420  0.1222
38844OCT     C277688  17.833  15.297   7.183 -0.0629 -0.0649 -0.2610
38845OCT     C177689  16.823   5.175  14.180  0.0762 -0.1009 -0.1488
38845OCT     C277690  16.478   4.833  14.327 -0.1027 -0.0784  0.0452
38846OCT     C177691   3.991  10.376   9.555  0.3161  0.0164 -0.0163
38846OCT     C277692   3.584  10.597   9.691 -0.3273 -0.0619  0.0290
38847OCT     C177693   4.448   5.767   8.630 -0.2159  0.2568  0.0877
38847OCT     C277694   4.052   5.597   8.468 -0.0567  0.0383 -0.2154
38848OCT     C177695  11.628   0.508   1.731  0.0649 -0.0819 -0.1258
38848OCT     C277696  12.046   0.725   1.611  0.1619  0.0940 -0.1508
38849OCT     C177697  23.710  14.619  12.603  0.1026 -0.0768 -0.1705
38849OCT     C277698   0.099  14.182  12.668 -0.3648  0.0989  0.2201
38850OCT     C177699   5.504   9.747  19.010  0.2156 -0.1630  0.0798
38850OCT     C277700   5.459   9.344  19.284 -0.2228  0.2022 -0.3551
38851OCT     C177701   3.271   3.856   6.395  0.1463 -0.2806  0.0724
38851OCT     C277702   3.646   4.018   6.216 -0.0984  0.2629 -0.0433
38852OCT     C177703  15.364   6.470  12.170  0.2396  0.2562 -0.2777
38852OCT     C277704  14.918   6.461  11.932  0.0656 -0.2469  0.1405
38853OCT     C177705   9.736   7.619   0.339 -0.1259  0.0111 -0.1806
38853OCT     C277706  10.033   7.873   0.631  0.2366  0.2934 -0.2575
38854OCT     C177707   3.972   5.560   9.496 -0.1650  0.0445 -0.2369
38854OCT     C277708   4.082   5.848   9.864  0.0280 -0.2090 -0.2194
38855OCT     C177709   1.433   2.194  15.560  0.0383  0.1821  0.0627
38855OCT     C277710   1.712   2.496  15.768 -0.0657  0.1509  0.1922
38856OCT     C177711  21.868   1.527  12.330 -0.1993 -0.0053 -0.1981
38856OCT     C277712  22.108   1.884  12.185  0.0804 -0.1312 -0.2269
38857OCT     C177713   6.787   7.298  14.197  0.0030  0.0835 -0.0083
38857OCT     C277714   7.012   7.056  14.516 -0.0145  0.3408  0.2211
38858OCT     C177715   6.920   6.479  21.418  0.1153  0.0381  0.1613
38858OCT     C277716   7.279   6.479  21.714 -0.4230  0.0586  0.0376
38859OCT     C177717  13.828   5.930   0.070 -0.0860 -0.2270  0.0678
38859OCT     C277718  14.219   6.060  23.497 -0.0136  0.4643 -0.1408
38860OCT     C177719  17.451   1.733  11.645 -0.1040 -0.2368 -0.0764
38860OCT     C277720  17.606   2.163  11.779  0.1862  0.0051  0.1703
38861OCT     C177721   6.849  11.931   6.050 -0.1478  0.1713 -0.1569
38861OCT     C277722   6.874  11.516   5.881  0.1216 -0.1086 -0.2404
38862OCT     C177723  12.064  16.637  10.931 -0.0303  0.0878  0.0359
38862OCT     C277724  12.102  16.199  10.769  0.3101  0.2018 -0.0334
38863OCT     C177725  23.710  12.706  13.561  0.0678  0.1152  0.1380
38863OCT     C277726   0.349  12.588  13.334 -0.3194 -0.1952 -0.1350
38864OCT     C177727   3.549   3.389   9.456  0.2365  0.1931 -0.0443
38864OCT     C277728   3.930   3.213   9.649 -0.1402  0.3103  0.0057
38865OCT     C177729  22.786  15.432  18.333 -0.1121 -0.2066  0.2474
38865OCT     C277730  22.358  15.367  18.063 -0.0932 -0.1215  0.5273
38866OCT     C177731  17.460  11.894  22.272 -0.2940 -0.5802 -0.0846
38866OCT     C277732  17.302  12.120  22.623 -0.3525  0.1548 -0.1542
38867OCT     C177733  19.174   9.924   7.536  0.1370  0.2195  0.1849
38867OCT     C277734  19.382   9.599   7.766 -0.1042 -0.0329 -0.0061
38868OCT     C177735   4.443  19.761  17.669  0.1456  0.4111  0.1370
38868OCT     C277736   4.253  19.857  17.241  0.0902 -0.0026  0.2093
38869OCT     C177737   0.396   4.672  22.396  0.4144 -0.2389  0.2308
38869OCT     C277738   0.153   5.106  22.295  0.3386  0.0257  0.1930
38870OCT     C177739  19.446  18.907  17.540 -0.0722 -0.4453 -0.0852
38870OCT     C277740  19.333  18.804  17.958 -0.0056  0.1176  0.1605
38871OCT     C177741   9.299  11.914  22.723 -0.2713 -0.1068  0.1468
38871OCT     C277742   9.692  11.852  22.582  0.1395  0.2393  0.1959
38872OCT     C177743   0.013  12.268   4.502  0.1173 -0.0513  0.2194
38872OCT     C277744  23.606  11.987   4.820  0.1556  0.1541  0.0117
38873OCT     C177745  23.592  16.151  12.136 -0.0270 -0.0271  0.1089
38873OCT     C277746  23.280  15.881  12.358 -0.0250 -0.3325 -0.1623
38874OCT     C177747  16.075  19.951   3.515 -0.1533  0.1758 -0.2331
38874OCT     C277748  15.615  19.752   3.507 -0.1149 -0.1314  0.1359
38875OCT     C177749  14.506  20.062   1.410 -0.1445 -0.2922 -0.2482
38875OCT     C277750  14.237  20.454   1.567 -0.1135  0.1409  0.0968
38876OCT     C177751   7.228   1.266   0.627 -0.0083  0.2164  0.0941
38876OCT     C277752   7.322   1.695   0.703  0.1373 -0.1701 -0.2405
38877OCT     C177753  15.556   9.172  14.050  0.3224  0.5214 -0.3334
38877OCT     C277754  15.519   9.376  13.694 -0.3101  0.0612  0.2263
38878OCT     C177755   9.105   7.014  11.657  0.1924  0.4450 -0.0083
38878OCT     C277756   9.317   7.368  11.424  0.1136 -0.3104  0.1451
38879OCT     C177757  10.911  11.662  12.914  0.1238 -0.0188  0.0494
38879OCT     C277758  11.254  11.347  12.928 -0.1330  0.0756 -0.0541
38880OCT     C177759  21.914   5.018  14.488  0.2385 -0.4126  0.0893
38880OCT     C277760  21.908   5.529  14.597 -0.0650  0.3013  0.0611
38881OCT     C177761  12.893   4.621  16.601 -0.1637  0.0923 -0.2455
38881OCT     C277762  12.647   4.719  16.945 -0.1865  0.1279 -0.3526
38882OCT     C177763   3.227  20.414  11.919 -0.1359  0.2539 -0.1637
38882OCT     C277764   3.498  20.623  12.198  0.0413 -0.2290  0.1329
38883OCT     C177765  15.956  13.824  16.494  0.2852 -0.1204  0.1527
38883OCT     C277766  15.702  13.916  16.910 -0.0554 -0.0741 -0.2067
38884OCT     C177767  15.689  16.971  23.031 -0.0586 -0.1486  0.3249
38884OCT     C277768  15.537  16.941  22.590  0.5131 -0.0913  0.2005
38885OCT     C177769  13.644   7.117   3.708 -0.0515 -0.1102  0.1021
38885OCT     C277770  13.549   6.999   3.262 -0.0831 -0.5235 -0.1225
38886OCT     C177771  11.170  16.657  10.998  0.0869  0.1377  0.1256
38886OCT     C277772  10.836  16.908  11.165  0.1516  0.1986 -0.0159
38887OCT     C177773   8.710  23.707  22.912 -0.0402 -0.4553 -0.3632
38887OCT     C277774   8.985   0.346  22.844 -0.3826 -0.3595  0.3050
38888OCT     C177775   1.562  12.986  12.557 -0.1259 -0.6177  0.2381
38888OCT     C277776   1.717  13.284  12.881 -0.0758 -0.3058  0.1261
38889OCT     C177777   4.259  20.510  14.171 -0.0329  0.0434 -0.4859
38889OCT     C277778   4.691  20.636  14.290 -0.3811  0.0656 -0.2396
38890OCT     C177779   9.182  16.086  22.543 -0.2217  0.0747 -0.1240
38890OCT     C277780   8.886  16.373  22.804 -0.0236 -0.2700  0.1752
38891OCT     C177781  10.292   9.018   2.423 -0.0404  0.1574 -0.0165
38891OCT     C277782  10.204   8.911   2.860  0.5070 -0.5148 -0.0885
38892OCT     C177783  19.635   6.788   1.875  0.1263 -0.0011 -0.2368
38892OCT     C277784  19.992   6.935   1.578  0.2001 -0.4536  0.0365
38893OCT     C177785  17.814  11.888   1.039 -0.0484 -0.4572  0.0945
38893OCT     C277786  18.074  12.288   1.001  0.0216  0.2857 -0.1146
38894OCT     C177787   9.597  19.572   3.483  0.0610  0.3511  0.1611
38894OCT     C277788   9.272  19.348   3.285 -0.1331  0.2602  0.0306
38895OCT     C177789   3.754  17.944  17.857 -0.0528 -0.0603 -0.4530
38895OCT     C277790   3.421  17.660  17.897  0.1393  0.0211 -0.1675
38896OCT     C177791   8.869  13.699  18.548 -0.3129  0.3192  0.0811
38896OCT     C277792   8.763  14.089  18.814  0.2550 -0.0057 -0.0351
38897OCT     C177793  21.378  12.688  15.942 -0.0531 -0.1189  0.1597
38897OCT     C277794  21.590  12.499  16.354  0.2479 -0.2877 -0.0177
38898OCT     C177795   1.525  19.821   8.166  0.1110  0.1063 -0.1671
38898OCT     C277796   1.840  20.083   8.395  0.0634  0.2091 -0.2220
38899OCT     C177797   9.737  16.204  18.901  0.4505 -0.1440  0.0505
38899OCT     C277798   9.928  16.600  18.761 -0.0561  0.0741 -0.0150
38900OCT     C177799   7.739   7.580   0.826  0.3014  0.0149 -0.0990
38900OCT     C277800   7.675   7.174   0.951 -0.0666  0.0500  0.1069
38901OCT     C177801  10.553  18.660   8.291 -0.0602  0.2181 -0.2046
38901OCT     C277802  10.933  18.544   7.967 -0.4020  0.0887 -0.1170
38902OCT     C177803   2.341   7.844  17.164  0.0006 -0.0499 -0.1325
38902OCT     C277804   2.401   8.309  17.219  0.0496  0.2560 -0.2544
38903OCT     C177805   9.845   7.016   2.510 -0.2579 -0.1532  0.3509
38903OCT     C277806   9.669   6.960   2.067 -0.1112 -0.2117  0.0132
38904OCT     C177807   6.760   7.165   7.868  0.2896 -0.3611  0.3148
38904OCT     C277808   6.891   7.603   7.861  0.0122 -0.2695  0.1789
38905OCT     C177809  15.828  12.440   8.648 -0.1065 -0.2492 -0.4397
38905OCT     C277810  15.483  12.733   8.783 -0.2032 -0.2368 -0.2035
38906OCT     C177811   0.003  12.084   9.913 -0.1503 -0.2290  0.1492
38906OCT     C277812  23.371  12.116  10.176  0.4677 -0.0067 -0.1002
38907OCT     C177813  23.527   3.306  14.683 -0.1009 -0.1550 -0.0701
38907OCT     C277814  23.314   2.972  14.901  0.2723  0.0218 -0.3122
38908OCT     C177815  12.133  12.321  15.110  0.0257 -0.4904 -0.1334
38908OCT     C277816  12.451  12.124  15.408  0.0685 -0.4638 -0.1873
38909OCT     C177817   1.141   6.767  13.678  0.1940 -0.2369 -0.1569
38909OCT     C277818   1.005   7.087  13.384  0.0913 -0.2766  0.0318
38910OCT     C177819  15.957  12.442  20.991  0.2183 -0.1462  0.1008
38910OCT     C277820  16.291  12.702  20.806 -0.0908 -0.0149  0.0236
38911OCT     C177821  18.284   8.081  22.198  0.1397  0.1267  0.0863
38911OCT     C277822  18.368   7.617  22.374  0.0790  0.2256 -0.0761
38912OCT     C177823  19.984   9.918  10.607  0.0536  0.2659  0.0300
38912OCT     C277824  20.111   9.546  10.373 -0.0355  0.1502 -0.0188
38913OCT     C177825  10.586  16.904  12.171  0.1540 -0.4131 -0.1038
38913OCT     C277826  10.120  16.736  12.280 -0.0629  0.2910  0.0796
38914OCT     C177827  23.115   6.512  12.143  0.0416 -0.0319 -0.0157
38914OCT     C277828  22.690   6.405  12.254 -0.0351 -0.0792  0.1456
38915OCT     C177829  11.917  11.008  12.292 -0.0327 -0.0430 -0.1079
38915OCT     C277830  12.246  11.375  12.355 -0.0895  0.2623  0.0208
38916OCT     C177831  14.784  22.445  18.086 -0.2576  0.3637 -0.2209
38916OCT     C277832  15.038  22.215  17.774  0.0483  0.2837 -0.0122
38917OCT     C177833  22.451   1.460   9.848  0.1998 -0.0305  0.4132
38917OCT     C277834  22.252   1.171   9.563  0.0465 -0.1183 -0.0119
38918OCT     C177835  15.655  14.435  13.867  0.2717 -0.2220  0.2409
38918OCT     C277836  15.306  14.691  14.099  0.0513  0.1558  0.1286
38919OCT     C177837   9.884   4.493  18.183 -0.0373 -0.0037 -0.3818
38919OCT     C277838  10.105   4.574  18.661 -0.1286 -0.0705 -0.2873
38920OCT     C177839  17.006  18.073  18.216 -0.0510  0.1784 -0.0361
38920OCT     C277840  17.275  18.197  17.813 -0.0111  0.1822  0.1393
38921OCT     C177841   2.471  17.230  10.323 -0.0446 -0.1587  0.5499
38921OCT     C277842   2.322  17.614  10.059 -0.3438 -0.1073 -0.2122
38922OCT     C177843   9.360   5.354  12.074  0.0836  0.0782 -0.0848
38922OCT     C277844   9.520   5.302  12.534 -0.1168 -0.2167  0.1175
38923OCT     C177845  18.931  14.139  11.805  0.2362 -0.0689  0.2082
38923OCT     C277846  18.925  14.250  11.381 -0.1799 -0.2240  0.1163
38924OCT     C177847  19.453  17.051   4.562 -0.1461 -0.0987 -0.0542
38924OCT     C277848  19.704  16.790   4.948 -0.0260 -0.2183  0.0753
38925OCT     C177849  22.180   8.027  19.503  0.1813  0.0962 -0.0209
38925OCT     C277850  22.291   8.399  19.252 -0.4665 -0.0663  0.3143
38926OCT     C177851   5.515   6.937  17.838 -0.1025  0.3322 -0.1490
38926OCT     C277852   5.371   6.557  18.104 -0.1239 -0.2210 -0.1193
38927OCT     C177853  21.149   2.380  13.562 -0.0754 -0.1202  0.5619
38927OCT     C277854  21.017   2.649  13.919 -0.2821 -0.1968  0.0588
38928OCT     C177855  11.727   4.446  15.665  0.2043 -0.0129  0.1127
38928OCT     C277856  11.804   4.257  15.214  0.3106  0.0718  0.4615
38929OCT     C177857  23.667  11.636  13.832  0.3416  0.0398 -0.2182
38929OCT     C277858   0.011  12.042  14.100  0.0220  0.2183  0.0672
38930OCT     C177859  19.827   5.871   3.742 -0.1821  0.2709 -0.0938
38930OCT     C277860  20.191   5.730   3.406 -0.0956  0.0004 -0.2569
38931OCT     C177861   9.382  12.693   7.914 -0.2459  0.2154  0.0344
38931OCT     C277862   9.734  12.322   7.839 -0.3001 -0.1442 -0.0555
38932OCT     C177863   9.762  14.614   0.514  0.0325 -0.2432  0.2650
38932OCT     C277864   9.899  14.625   0.075 -0.0210  0.1303  0.0913
38933OCT     C177865   0.769  22.004   3.453  0.1823  0.4447 -0.2507
38933OCT     C277866   0.599  22.222   3.120  0.0180 -0.0013 -0.1073
38934OCT     C177867  14.905  18.816  11.811 -0.1156 -0.0871  0.0666
38934OCT     C277868  15.161  19.228  11.879  0.0497  0.3921 -0.0762
38935OCT     C177869   6.508  18.563  16.389 -0.1454 -0.2318 -0.0394
38935OCT     C277870   6.351  18.424  15.984  0.1390  0.0669 -0.1471
38936OCT     C177871  21.812   9.534  21.136  0.1882  0.2736 -0.3693
38936OCT     C277872  21.421   9.358  21.400  0.1975 -0.1879 -0.1025
38937OCT     C177873  20.342   2.466   7.086  0.4310 -0.1891 -0.2541
38937OCT     C277874  20.161   2.101   7.246 -0.0639 -0.0895  0.1199
38938OCT     C177875   2.235   7.317   5.308  0.2552  0.0065 -0.3238
38938OCT     C277876   2.257   6.911   5.545  0.0568  0.0289  0.3565
38939OCT     C177877   5.855  16.026   6.307 -0.1134  0.0050  0.1572
38939OCT     C277878   5.541  16.277   6.555 -0.0671  0.0336  0.1455
38940OCT     C177879  16.822   7.057  18.038 -0.2010 -0.1712 -0.0477
38940OCT     C277880  16.526   7.348  18.097  0.0441  0.1329  0.2196
38941OCT     C177881  14.952  13.787  11.765 -0.0608 -0.0039 -0.0389
38941OCT     C277882  14.737  13.422  12.094 -0.0856 -0.1672 -0.1558
38942OCT     C177883   0.893   9.249  16.779  0.1572  0.0317  0.0884
38942OCT     C277884   1.104   8.894  16.625 -0.0848 -0.0276  0.2963
38943OCT     C177885   0.554  16.765  21.991  0.1571 -0.1048 -0.3556
38943OCT     C277886   0.728  17.150  21.787 -0.2827 -0.0863  0.1184
38944OCT     C177887  16.826  16.655   0.540 -0.0733 -0.4192  0.4955
38944OCT     C277888  16.659  16.386   0.172  0.2175 -0.3311  0.1975
38945OCT     C177889  22.833  12.422   4.479  0.0236  0.1511  0.1470
38945OCT     C277890  23.131  12.622   4.829  0.0347 -0.1664  0.0266
38946OCT     C177891  22.056  19.920   5.420 -0.3942  0.0655  0.0183
38946OCT     C277892  22.362  19.793   5.043  0.2052 -0.0918  0.1107
38947OCT     C177893  15.581   5.114  21.911 -0.0987 -0.1892  0.0444
38947OCT     C277894  15.405   5.289  21.497  0.0539 -0.1601  0.1812
38948OCT     C177895   8.527  23.120  23.222  0.1329  0.1180 -0.3681
38948OCT     C277896   8.275  23.336  23.585 -0.0198 -0.2185  0.1360
38949OCT     C177897  22.842   6.505   0.625  0.1152  0.1665 -0.2961
38949OCT     C277898  22.990   6.224   0.290 -0.0455 -0.1921  0.0318
38950OCT     C177899   8.666   3.202  22.570 -0.3544 -0.2125 -0.4965
38950OCT     C277900   8.360   3.074  22.251 -0.1882  0.1742 -0.0574
38951OCT     C177901   8.638  19.511   1.684 -0.1001 -0.0797  0.1777
38951OCT     C277902   8.532  19.073   1.591 -0.3922  0.2601  0.2608
38952OCT     C177903  22.200   1.888   5.315 -0.0172 -0.0219  0.0028
38952OCT     C277904  22.439   1.742   5.664  0.0469 -0.0595  0.1274
38953OCT     C177905   2.492  23.631   5.827  0.0484  0.2390 -0.2906
38953OCT     C277906   2.908   0.019   5.613 -0.4395  0.1686  0.0616
38954OCT     C177907   5.754  11.257  15.326  0.2336 -0.0899  0.2584
38954OCT     C277908   5.708  11.259  15.823 -0.2223 -0.3312 -0.1601
38955OCT     C177909   9.282   2.549  16.732  0.1152  0.1434  0.3350
38955OCT     C277910   8.854   2.328  16.747 -0.2030  0.1279  0.3330
38956OCT     C177911  17.237  11.961   3.378  0.0593  0.1388 -0.2488
38956OCT     C277912  16.793  11.871   3.392  0.2323  0.3292  0.2640
38957OCT     C177913   2.273  14.932  17.610 -0.0675 -0.1187  0.2216
38957OCT     C277914   2.196  14.451  17.604 -0.0590  0.1228  0.1978
38958OCT     C177915  13.446  12.615  10.057  0.0652  0.0050  0.0561
38958OCT     C277916  13.872  12.599   9.794 -0.0148 -0.2051 -0.2140
38959OCT     C177917  17.339  18.968  16.582  0.3011  0.1397 -0.1281
38959OCT     C277918  17.226  19.361  16.388 -0.3298  0.1552  0.1583
38960OCT     C177919  14.932  18.459  18.711 -0.4377  0.1889 -0.4653
38960OCT     C277920  14.555  18.182  18.719 -0.3775 -0.0943  0.1228
38961OCT     C177921   8.552  23.163  15.763 -0.0070  0.0128  0.1495
38961OCT     C277922   8.160  23.319  16.001 -0.0969 -0.2821 -0.2128
38962OCT     C177923  13.358  16.522  20.005  0.0328 -0.2527  0.0201
38962OCT     C277924  13.467  16.760  20.419  0.2390  0.1136 -0.0781
38963OCT     C177925   4.377   8.491   5.765  0.0544  0.0027 -0.3522
38963OCT     C277926   4.138   8.247   6.076  0.1296 -0.0293 -0.3854
38964OCT     C177927  22.261  22.896   8.378 -0.1667  0.0147  0.1474
38964OCT     C277928  22.180  22.925   7.918  0.1018  0.3861 -0.2818
38965OCT     C177929   2.070  21.708  22.397  0.1300 -0.1667  0.0968
38965OCT     C277930   1.993  22.132  22.221 -0.0311 -0.1219  0.1516
38966OCT     C177931   6.827   7.642   4.123 -0.0300 -0.1466 -0.6202
38966OCT     C277932   6.411   7.568   4.079  0.0166  0.3805 -0.3962
38967OCT     C177933  14.149  12.604   3.622 -0.0854  0.2848 -0.4307
38967OCT     C277934  14.077  12.974   3.930  0.2714  0.2550  0.0958
38968OCT     C177935  21.584   6.748   9.632 -0.0942 -0.2455  0.4780
38968OCT     C277936  21.213   6.460   9.506  0.0892 -0.2033 -0.2343
38969OCT     C177937  18.342   5.082  13.762  0.0319  0.0253  0.0376
38969OCT     C277938  18.092   5.229  14.096  0.2458 -0.1157  0.0190
38970OCT     C177939  11.903   6.590  17.887 -0.0506 -0.0759 -0.1968
38970OCT     C277940  12.074   6.490  17.449  0.0380  0.2100 -0.0461
38971OCT     C177941   0.393  15.815  15.128 -0.5559  0.0192 -0.0473
38971OCT     C277942   0.840  15.776  15.357  0.0375 -0.1253 -0.3429
38972OCT     C177943  18.541  17.317  20.341  0.3457 -0.1145  0.2736
38972OCT     C277944  18.942  17.430  20.540  0.1821  0.4009 -0.1076
38973OCT     C177945   5.641   9.023  19.846 -0.3032 -0.0008 -0.2469
38973OCT     C277946   5.390   9.445  19.771 -0.4128 -0.2449 -0.5234
38974OCT     C177947   2.482   7.071   8.641  0.1654  0.3965 -0.2352
38974OCT     C277948   2.928   6.989   8.501  0.0522 -0.1560  0.0655
38975OCT     C177949   1.154   4.165  12.979  0.0192  0.0235 -0.0850
38975OCT     C277950   1.459   3.879  12.862 -0.2112  0.4002  0.1373
38976OCT     C177951  10.069   7.892  11.636 -0.0754  0.0525 -0.4309
38976OCT     C277952  10.270   7.660  12.015  0.2958 -0.2057  0.3136
38977OCT     C177953  21.474   2.640   5.767  0.1700 -0.2490 -0.0661
38977OCT     C277954  21.083   2.376   5.675 -0.3518  0.0864  0.0227
38978OCT     C177955  23.654  19.388  15.405 -0.2326 -0.0591 -0.1048
38978OCT     C277956   0.238  19.624  15.125  0.2463 -0.2865  0.2442
38979OCT     C177957   0.922  11.390   0.460 -0.1519  0.1274 -0.1932
38979OCT     C277958   0.520  11.586   0.516 -0.0530  0.1106  0.4169
38980OCT     C177959   1.993   1.993   5.582 -0.0661 -0.1783  0.0935
38980OCT     C277960   2.006   2.513   5.396 -0.0270  0.2148 -0.0895
38981OCT     C177961  22.782   1.065   9.429  0.0205 -0.1410  0.1113
38981OCT     C277962  22.864   1.522   9.457  0.1148  0.1355  0.2624
38982OCT     C177963  22.948  23.571  13.557  0.1356 -0.3635 -0.1227
38982OCT     C277964  23.123  23.439  13.959  0.0290  0.0643  0.2112
38983OCT     C177965   1.329  23.622  16.727  0.1394 -0.1460 -0.0430
38983OCT     C277966   1.209  23.691  16.255 -0.0927  0.0671 -0.1434
38984OCT     C177967   2.670  21.848   3.602  0.2093 -0.0418  0.0856
38984OCT     C277968   2.773  21.436   3.701 -0.0500 -0.2203 -0.3305
38985OCT     C177969  20.254  19.224  13.369 -0.1370 -0.4097 -0.0924
38985OCT     C277970  19.819  19.081  13.487 -0.1797  0.0298  0.2326
38986OCT     C177971   1.854   9.737   5.180 -0.0817  0.1540 -0.5329
38986OCT     C277972   1.978  10.042   5.539  0.0720 -0.0113  0.1116
38987OCT     C177973   2.801  20.245   8.146 -0.1368  0.1301 -0.2423
38987OCT     C277974   2.528  20.600   8.289  0.0566 -0.2025 -0.1943
38988OCT     C177975   5.085   7.517  12.569 -0.0437 -0.0721  0.6239
38988OCT     C277976   4.852   7.125  12.736  0.4358  0.0117  0.0832
38989OCT     C177977  17.455  22.256   0.423 -0.2153 -0.1178  0.0410
38989OCT     C277978  17.582  22.677   0.593 -0.1165 -0.0688  0.0426
38990OCT     C177979   6.205  21.950  23.424 -0.3730  0.0217 -0.6145
38990OCT     C277980   6.083  21.937   0.125 -0.0293  0.0897 -0.1680
38991OCT     C177981   9.468   3.918  12.938  0.1039  0.0679  0.1700
38991OCT     C277982   9.056   4.170  12.956 -0.0493 -0.3892  0.2824
38992OCT     C177983   2.847  17.416   7.293  0.2498  0.0882 -0.0055
38992OCT     C277984   2.739  17.575   7.695 -0.0633  0.0934  0.0424
38993OCT     C177985  18.109  20.057   0.718  0.2460 -0.0289  0.1917
38993OCT     C277986  18.139  20.403   0.401 -0.1181 -0.2459 -0.0171
38994OCT     C177987  17.911   0.019  22.060 -0.0414 -0.2957 -0.0005
38994OCT     C277988  17.912  23.302  22.048 -0.0803 -0.1393 -0.2659
38995OCT     C177989  17.086  15.879   3.593  0.0663 -0.1708  0.1356
38995OCT     C277990  17.262  16.198   3.424  0.4772  0.2638 -0.0295
38996OCT     C177991   0.818  22.673  13.579 -0.3368  0.3162 -0.1497
38996OCT     C277992   0.488  22.874  13.342 -0.0085 -0.1903 -0.3174
38997OCT     C177993  10.896  20.636  11.633  0.0551  0.5106 -0.1087
38997OCT     C277994  11.396  20.750  11.651  0.0713 -0.2366  0.3743
38998OCT     C177995  18.204  22.841   2.649 -0.1630  0.3159 -0.6143
38998OCT     C277996  18.246  22.847   3.133  0.1367 -0.0076 -0.0544
38999OCT     C177997   4.998   9.044  11.774  0.0252 -0.4352 -0.0654
38999OCT     C277998   4.832   9.273  11.327 -0.0322  0.2747 -0.0792
39000OCT     C177999   5.640  12.588  23.338  0.0366 -0.3128  0.1765
39000OCT     C278000   6.012  12.961  23.236  0.1560 -0.2225  0.3674
39001OCT     C178001   4.436  19.447   3.472 -0.0028  0.2277  0.2522
39001OCT     C278002   4.010  19.631   3.664 -0.4249 -0.0966  0.0383
39002OCT     C178003  12.275   1.769   6.508  0.2111  0.0065 -0.2079
39002OCT     C278004  12.303   2.161   6.308 -0.4309  0.2520  0.0970
39003OCT     C178005  20.250   4.572   1.870  0.2344 -0.0571 -0.2183
39003OCT     C278006  20.645   4.787   1.700  0.2339  0.1402 -0.1609
39004OCT     C178007   0.588  23.042   3.121 -0.0244 -0.2208 -0.1624
39004OCT     C278008   0.849  23.054   3.509 -0.1178  0.0905 -0.0706
39005OCT     C178009   7.914   9.703   4.722 -0.4747  0.1661  0.1459
39005OCT     C278010   7.542   9.380   4.620  0.3980  0.0460  0.0494
39006OCT     C178011   5.215   5.690   5.674  0.1077 -0.1066 -0.3882
39006OCT     C278012   4.897   5.431   5.941 -0.1794  0.1991  0.2746
39007OCT     C178013  20.275  10.048  12.850 -0.0431 -0.1041  0.1860
39007OCT     C278014  20.277   9.961  13.349  0.0109  0.0893 -0.1910
39008OCT     C178015   6.429   9.867  11.506  0.2486  0.0109  0.0927
39008OCT     C278016   6.254  10.280  11.615 -0.2465 -0.0137  0.2021
39009OCT     C178017   6.661  17.486   9.178 -0.0150 -0.2653  0.1845
39009OCT     C278018   6.795  17.101   9.408  0.0184  0.3999 -0.0268
39010OCT     C178019  11.938   9.349  12.048 -0.2581  0.2080 -0.1794
39010OCT     C278020  12.259   9.103  12.194  0.1509  0.0669 -0.3327
39011OCT     C178021  13.792   0.244   9.734 -0.2128  0.0151  0.1448
39011OCT     C278022  13.717  23.667  10.112  0.1484 -0.4589 -0.0030
39012OCT     C178023   2.526   1.514  22.559  0.2709  0.0610  0.1059
39012OCT     C278024   2.572   1.984  22.507 -0.2330  0.0965  0.1728
39013OCT     C178025  22.429   2.937  16.912  0.0854  0.1432  0.2098
39013OCT     C278026  22.436   3.351  16.603  0.3149  0.1374 -0.0491
39014OCT     C178027   1.815  20.242  12.362 -0.2011 -0.1366  0.2718
39014OCT     C278028   1.377  20.138  12.242 -0.1711  0.1586  0.1578
39015OCT     C178029  13.119   3.492  23.409 -0.0627  0.1112 -0.1826
39015OCT     C278030  13.563   3.677  23.442  0.1626  0.0002 -0.1211
39016OCT     C178031  19.190   4.054  12.124  0.0044 -0.1069 -0.1975
39016OCT     C278032  19.308   4.057  11.644 -0.0728  0.0583  0.3513
39017OCT     C178033  10.297  15.167  11.099 -0.0420  0.2333  0.1488
39017OCT     C278034  10.479  15.617  11.144 -0.1615  0.0690  0.1847
39018OCT     C178035   7.402  20.369  13.358  0.0536 -0.2581 -0.0770
39018OCT     C278036   7.637  19.957  13.246  0.1166 -0.2868  0.1155
39019OCT     C178037  21.143  14.120  15.377  0.0589  0.0777  0.1153
39019OCT     C278038  21.496  13.940  15.584 -0.0503  0.2402  0.0675
39020OCT     C178039  20.884  14.426  13.546 -0.1791  0.2563 -0.1328
39020OCT     C278040  20.716  14.808  13.765 -0.0783  0.0553  0.0978
39021OCT     C178041   7.569  18.459   2.890  0.2174 -0.1264  0.1495
39021OCT     C278042   7.625  18.187   3.234  0.1703  0.0008  0.0803
39022OCT     C178043  20.261  15.406  22.195 -0.0511 -0.2141 -0.2715
39022OCT     C278044  20.090  15.130  21.893 -0.1850  0.1248  0.0361
39023OCT     C178045  22.090  16.990  23.487  0.0256  0.0533  0.2703
39023OCT     C278046  21.918  17.021  23.089 -0.2461  0.1648  0.4480
39024OCT     C178047  23.108  23.277  12.068  0.0499  0.2630 -0.1742
39024OCT     C278048  23.261  23.737  12.172  0.1997 -0.3172 -0.0846
39025OCT     C178049  15.977  14.409   4.108  0.1934 -0.1429 -0.1083
39025OCT     C278050  15.630  14.115   3.943  0.4763 -0.0134  0.4424
39026OCT     C178051   2.084   3.721  11.730 -0.1601  0.0106 -0.0017
39026OCT     C278052   2.281   3.324  11.902  0.1104  0.3385  0.1401
39027OCT     C178053   8.915   2.693  14.193 -0.3437 -0.0599  0.4940
39027OCT     C278054   8.614   3.069  14.099 -0.1522  0.2817 -0.3402
39028OCT     C178055   0.850   1.136  19.425 -0.0656 -0.2226  0.1253
39028OCT     C278056   0.599   0.833  19.680  0.5570 -0.2697  0.0285
39029OCT     C178057  22.121   8.056  15.307  0.1906 -0.0708 -0.2939
39029OCT     C278058  21.866   7.814  15.613  0.0330 -0.3367  0.3189
39030OCT     C178059  19.267  16.394  15.414 -0.1898  0.0905 -0.3905
39030OCT     C278060  18.827  16.368  15.587  0.0614  0.0159 -0.0878
39031OCT     C178061  12.348  13.081   8.156 -0.0546  0.0085  0.0362
39031OCT     C278062  12.040  12.997   7.806  0.2336 -0.0384  0.1998
39032OCT     C178063  11.518   8.991  18.659 -0.2154  0.2568 -0.0330
39032OCT     C278064  11.573   8.826  19.151  0.2028 -0.0701 -0.0468
39033OCT     C178065  14.971   2.080  16.527 -0.1095 -0.1150  0.1153
39033OCT     C278066  14.729   2.340  16.199  0.4800  0.2183  0.1518
39034OCT     C178067  16.349  13.923   8.889 -0.0026 -0.3802  0.2301
39034OCT     C278068  16.749  14.057   9.174 -0.1221 -0.1120  0.0277
39035OCT     C178069  12.814  21.977   0.392 -0.0276 -0.2171  0.0950
39035OCT     C278070  13.192  22.206   0.294  0.5096 -0.1843 -0.0009
39036OCT     C178071  20.338   4.395  11.842 -0.2247 -0.3431 -0.1206
39036OCT     C278072  20.099   4.080  11.558 -0.3621  0.0138 -0.2196
39037OCT     C178073   8.115  13.620  18.670 -0.0679 -0.0819  0.0005
39037OCT     C278074   7.751  13.391  18.843  0.2142  0.0104 -0.0542
39038OCT     C178075   7.359  13.042  20.497  0.2536  0.3218 -0.2246
39038OCT     C278076   7.642  13.368  20.711  0.2140  0.0252 -0.0057
39039OCT     C178077  18.837  12.542   8.512  0.0010 -0.3361  0.2940
39039OCT     C278078  19.164  12.225   8.691  0.4316 -0.2667  0.1246
39040OCT     C178079   1.221  21.838  12.123  0.0453 -0.0040  0.0587
39040OCT     C278080   1.337  22.205  11.846 -0.2022  0.1900 -0.1709
39041OCT     C178081   5.213  23.186  15.102  0.0981  0.2661 -0.0532
39041OCT     C278082   5.111  23.627  15.126  0.0945  0.1654  0.1529
39042OCT     C178083   1.160  15.980  12.791  0.4557 -0.0011  0.3899
39042OCT     C278084   1.074  15.856  12.380  0.1077 -0.2898 -0.1288
39043OCT     C178085  23.092  23.381  20.862  0.2234  0.0049  0.2210
39043OCT     C278086  22.765  23.342  20.558 -0.0395  0.1201  0.3152
39044OCT     C178087   7.201  20.703  15.803 -0.0495 -0.3193  0.1079
39044OCT     C278088   6.992  20.506  16.195 -0.2533 -0.1032  0.2064
39045OCT     C178089   1.135   3.117   1.340 -0.1325 -0.2343  0.3545
39045OCT     C278090   0.824   2.974   1.007 -0.1387  0.1160 -0.1038
39046OCT     C178091  22.798   8.070  15.954  0.1020  0.0984 -0.0945
39046OCT     C278092  22.640   7.704  16.207  0.2817 -0.4039 -0.3056
39047OCT     C178093   1.344   5.369  10.322  0.1309 -0.0021 -0.2554
39047OCT     C278094   0.889   5.565  10.295 -0.3067 -0.2550  0.0713
39048OCT     C178095  12.685   8.123  13.297 -0.0236  0.2346  0.1797
39048OCT     C278096  12.492   8.428  13.525 -0.1080  0.3100 -0.0444
39049OCT     C178097  22.123   7.602   4.531 -0.2066  0.0727  0.5078
39049OCT     C278098  22.449   7.272   4.491  0.0229  0.0344 -0.1801
39050OCT     C178099  10.610  21.163  20.401  0.2572 -0.0981  0.1469
39050OCT     C278100  10.173  21.064  20.438  0.0672  0.1411  0.2993
39051OCT     C178101   5.443  22.324  23.134 -0.3696  0.0045  0.0035
39051OCT     C278102   5.613  21.895  23.118  0.1430  0.2240 -0.2039
39052OCT     C178103  10.328  12.821  17.334 -0.2400 -0.0527  0.1761
39052OCT     C278104   9.817  12.839  17.307 -0.0508 -0.1059  0.0877
39053OCT     C178105  11.198   9.434  16.006  0.5686  0.0050 -0.3217
39053OCT     C278106  10.727   9.518  16.066 -0.1364 -0.2204 -0.2221
39054OCT     C178107  20.291   3.632   1.211  0.0629 -0.0982 -0.2631
39054OCT     C278108  19.963   3.294   1.384  0.3092  0.2193 -0.0415
39055OCT     C178109   8.502   5.481   6.009 -0.3990 -0.0854  0.0958
39055OCT     C278110   8.844   5.369   6.337 -0.0454  0.2288  0.4686
39056OCT     C178111   7.746   2.952  15.845 -0.1303 -0.1822 -0.0134
39056OCT     C278112   7.838   2.994  16.272 -0.0798 -0.0043  0.1423
39057OCT     C178113  10.669  20.167  15.905 -0.0850 -0.0246 -0.2068
39057OCT     C278114  10.602  19.918  16.330  0.1802 -0.0219  0.3367
39058OCT     C178115  19.919   4.460   9.037 -0.3500 -0.3277  0.2082
39058OCT     C278116  19.710   4.822   8.798 -0.0421  0.0364  0.5150
39059OCT     C178117   2.255  15.659   8.099  0.3954  0.2924 -0.1182
39059OCT     C278118   2.451  16.089   8.147  0.0443 -0.1326  0.3129
39060OCT     C178119  14.144  13.851   4.279  0.0973  0.3282  0.1698
39060OCT     C278120  13.824  13.572   4.495 -0.1586  0.1667  0.0017
39061OCT     C178121   8.724  19.611  11.253 -0.0345 -0.3015  0.1926
39061OCT     C278122   8.771  19.464  10.828 -0.1672 -0.5258 -0.0289
39062OCT     C178123   0.125   5.645  19.516 -0.0045 -0.0362  0.3497
39062OCT     C278124   0.376   5.713  19.147 -0.0339 -0.0853 -0.3977
39063OCT     C178125   7.245   7.818  10.649 -0.2103 -0.1366 -0.2659
39063OCT     C278126   7.299   8.310  10.627  0.1490  0.0627 -0.0649
39064OCT     C178127   3.230  18.898  22.419  0.1160  0.4001 -0.4539
39064OCT     C278128   2.766  18.859  22.288  0.0017 -0.1076 -0.2068
39065OCT     C178129   8.027   3.301  11.515 -0.3462  0.0249  0.1734
39065OCT     C278130   7.734   3.007  11.306  0.0657 -0.1444  0.0718
39066OCT     C178131  10.810   1.683   1.557 -0.3075 -0.0615 -0.5002
39066OCT     C278132  10.406   1.873   1.565  0.3314 -0.0885 -0.2270
39067OCT     C178133  17.468  15.416  13.018 -0.1665 -0.0982 -0.1178
39067OCT     C278134  17.314  15.841  13.223 -0.1445 -0.0791 -0.0465
39068OCT     C178135  14.010  22.774  10.178 -0.0327 -0.0518 -0.2349
39068OCT     C278136  13.815  23.147  10.396  0.3122  0.1017 -0.1587
39069OCT     C178137   4.618   1.458  18.596  0.1680 -0.2239 -0.0569
39069OCT     C278138   4.848   1.276  18.951  0.0626  0.0622 -0.3286
39070OCT     C178139   7.170  18.805   5.783  0.0119  0.0060 -0.5230
39070OCT     C278140   7.014  18.439   5.944 -0.1314  0.2110 -0.1661
39071OCT     C178141  12.343   5.197   4.025  0.2061  0.3462  0.1491
39071OCT     C278142  12.048   5.261   4.380 -0.0863  0.0420  0.2358
39072OCT     C178143  16.500   0.359  12.004 -0.2136  0.4518  0.4116
39072OCT     C278144  16.110   0.557  11.863  0.1319 -0.1423  0.3047
39073OCT     C178145  13.223  13.224  13.048  0.3259  0.0460 -0.0559
39073OCT     C278146  13.420  12.885  13.254  0.0711  0.2428 -0.0840
39074OCT     C178147  17.872   2.634  20.423 -0.2630 -0.0343 -0.0092
39074OCT     C278148  18.275   2.812  20.376 -0.0845 -0.0197  0.2760
39075OCT     C178149   9.469  17.213   1.495  0.1789  0.1721 -0.0443
39075OCT     C278150   9.758  17.408   1.792 -0.2756  0.0457 -0.0429
39076OCT     C178151   2.466  20.752  22.524 -0.2748 -0.2612  0.0012
39076OCT     C278152   2.316  20.481  22.882 -0.0064 -0.1426  0.0341
39077OCT     C178153  15.036  10.573  11.576 -0.2688 -0.1469  0.0374
39077OCT     C278154  14.922  10.716  12.014 -0.2439 -0.1847 -0.3506
39078OCT     C178155  22.738  12.516   5.083 -0.1602 -0.0803  0.2684
39078OCT     C278156  22.494  12.437   5.476  0.1562  0.1257 -0.0639
39079OCT     C178157   0.934  21.022  16.214  0.2038 -0.1468 -0.3537
39079OCT     C278158   0.473  20.870  16.153 -0.0259 -0.2736 -0.2125
39080OCT     C178159  20.546   2.864  15.280 -0.1754  0.1293 -0.0203
39080OCT     C278160  20.131   2.908  15.077  0.0279  0.0346  0.3192
39081OCT     C178161  22.612  23.142  22.185  0.1436  0.0579  0.3878
39081OCT     C278162  22.531  23.575  22.349 -0.0018 -0.0366 -0.0016
39082OCT     C178163  11.271  13.694  21.315  0.2396  0.1598  0.3379
39082OCT     C278164  10.858  13.761  21.095 -0.1049 -0.0196  0.0402
39083OCT     C178165   3.792   0.274   6.851 -0.0965  0.0720 -0.4019
39083OCT     C278166   3.652   0.020   7.194 -0.0576 -0.1154  0.0120
39084OCT     C178167  10.194  17.589   5.804 -0.0706 -0.2466  0.1423
39084OCT     C278168  10.193  17.402   6.249  0.0294 -0.0235  0.3125
39085OCT     C178169  14.045   9.017  10.009  0.0284  0.1705 -0.0737
39085OCT     C278170  13.945   9.426  10.116 -0.1672  0.1788  0.2321
39086OCT     C178171  23.205  17.983  21.985 -0.1147  0.1453  0.0397
39086OCT     C278172  22.772  18.202  22.062 -0.2246 -0.0911 -0.0337
39087OCT     C178173   4.787  23.283   9.543  0.0458 -0.0310 -0.0842
39087OCT     C278174   4.430  23.660   9.490  0.5408  0.0547  0.2531
39088OCT     C178175   6.906   0.154  20.185  0.0168 -0.2819 -0.3263
39088OCT     C278176   6.940   0.097  20.637 -0.0828 -0.1890 -0.1371
39089OCT     C178177   3.478  10.921  14.420 -0.3706 -0.2843  0.0007
39089OCT     C278178   3.895  11.068  14.645  0.5904 -0.0175  0.2911
39090OCT     C178179   1.145  14.623  14.063 -0.0336 -0.0958 -0.3739
39090OCT     C278180   1.333  14.871  13.739  0.1580  0.0898  0.0415
39091OCT     C178181  17.124   4.830  11.252 -0.0596 -0.0004 -0.3539
39091OCT     C278182  16.942   4.751  10.855  0.0931 -0.1746  0.1400
39092OCT     C178183  20.243  10.700  16.314 -0.0393 -0.0849 -0.0552
39092OCT     C278184  19.991  10.298  16.429 -0.1928 -0.0130 -0.1036
39093OCT     C178185  17.137   6.176  20.317 -0.7032  0.1844  0.2012
39093OCT     C278186  17.078   6.221  19.849 -0.1240 -0.1240 -0.0529
39094OCT     C178187  14.910  18.779  17.198  0.2919  0.1502 -0.0603
39094OCT     C278188  14.621  18.460  16.995 -0.0137 -0.1572  0.1424
39095OCT     C178189   9.649  15.234   2.887 -0.1269  0.1463 -0.1661
39095OCT     C278190   9.846  15.682   2.804  0.0735 -0.1425 -0.0073
39096OCT     C178191  21.019   4.538   9.254 -0.2102 -0.2674 -0.0180
39096OCT     C278192  21.460   4.322   9.345  0.0265  0.5237 -0.2513
39097OCT     C178193  18.632  16.077  11.959 -0.0727 -0.2294  0.1403
39097OCT     C278194  18.274  16.186  12.160 -0.2384 -0.2301  0.0450
39098OCT     C178195  11.996  15.945  23.542 -0.0986 -0.1627  0.0239
39098OCT     C278196  11.826  16.052  23.121 -0.0345 -0.1008 -0.1527
39099OCT     C178197   0.769  10.014  10.427 -0.0799  0.0052  0.1662
39099OCT     C278198   0.655  10.464  10.292 -0.0776 -0.1296  0.2059
39100OCT     C178199  21.628  12.799   0.093  0.1352 -0.2717 -0.0075
39100OCT     C278200  21.850  13.038  23.505  0.0381 -0.2212 -0.0417
39101OCT     C178201  21.067  23.243   5.721  0.1574  0.0241 -0.2697
39101OCT     C278202  20.989  22.778   5.605  0.2931  0.2551  0.0026
39102OCT     C178203   4.432   1.729  19.512  0.0695  0.4675  0.1781
39102OCT     C278204   4.858   1.486  19.485 -0.0268  0.2935  0.0070
39103OCT     C178205  21.374   9.901  17.006  0.0612 -0.0269  0.2897
39103OCT     C278206  21.359   9.770  17.462  0.2144  0.1415 -0.0628
39104OCT     C178207   5.149   2.865  11.734  0.0834  0.0239 -0.3526
39104OCT     C278208   4.784   3.066  11.539  0.0761 -0.1475 -0.0616
39105OCT     C178209   9.885   4.212  10.976  0.0961  0.3706  0.1278
39105OCT     C278210   9.610   4.536  11.245 -0.0304  0.1287 -0.1257
39106OCT     C178211   3.467  13.137   8.615 -0.3318  0.0632  0.1320
39106OCT     C278212   3.636  13.230   9.081 -0.2205  0.0922  0.0143
39107OCT     C178213   8.251   4.171  12.672 -0.0264  0.0973 -0.1435
39107OCT     C278214   8.544   3.907  12.920  0.0745 -0.1176  0.1863
39108OCT     C178215  20.049   3.545  21.148 -0.1589  0.1621 -0.0756
39108OCT     C278216  20.285   3.187  20.963  0.1049 -0.1029  0.2461
39109OCT     C178217  17.738  12.461   9.582 -0.1078 -0.3653 -0.0476
39109OCT     C278218  17.549  12.746   9.274  0.3684 -0.2304  0.2041
39110OCT     C178219   5.119  11.777   3.636 -0.3673 -0.2740 -0.3463
39110OCT     C278220   4.671  11.885   3.762 -0.0694  0.1073 -0.1340
39111OCT     C178221   2.454  22.071   7.820 -0.1475 -0.4721  0.1177
39111OCT     C278222   2.597  22.470   7.956 -0.0431 -0.1405  0.1109
39112OCT     C178223  15.071  23.437  13.472  0.4659 -0.4558  0.2983
39112OCT     C278224  14.777  23.220  13.701  0.3354  0.3886 -0.2861
39113OCT     C178225  11.793   8.804   5.981 -0.1671 -0.0139  0.0283
39113OCT     C278226  11.844   8.507   6.334 -0.1058  0.2402  0.0920
39114OCT     C178227  14.566   5.552   3.121  0.2210 -0.1733 -0.0261
39114OCT     C278228  14.643   6.011   3.275  0.2418 -0.3529 -0.0501
39115OCT     C178229   1.374  20.544   9.202  0.2513  0.0479  0.3093
39115OCT     C278230   1.109  20.520   9.571  0.0773  0.2155 -0.1244
39116OCT     C178231  13.276  20.517  15.192  0.1390 -0.0580  0.3367
39116OCT     C278232  13.099  20.861  14.883  0.1725 -0.4941 -0.3287
39117OCT     C178233  17.535  19.714  10.650  0.0246 -0.0855 -0.2851
39117OCT     C278234  17.779  19.989  10.363 -0.0557 -0.2413  0.4588
39118OCT     C178235   6.196   1.721   3.637  0.0971  0.2357 -0.0452
39118OCT     C278236   6.192   1.264   3.447  0.0355  0.1645 -0.0925
39119OCT     C178237  15.737   2.167   3.226 -0.3948 -0.1564  0.0424
39119OCT     C278238  15.910   1.933   3.628 -0.3619  0.0150  0.0102
39120OCT     C178239   3.850   7.599   4.107  0.1000 -0.1643 -0.0594
39120OCT     C278240   3.461   7.904   4.082 -0.0612 -0.1138 -0.0478
39121OCT     C178241  23.322  16.237   5.335  0.0528  0.3058  0.1243
39121OCT     C278242  23.168  15.962   4.973  0.0463 -0.1684  0.0030
39122OCT     C178243  18.695  15.630   6.894  0.0624 -0.1693  0.1288
39122OCT     C278244  18.267  15.771   6.761  0.3299 -0.1321  0.1433
39123OCT     C178245  20.983   4.905   5.670 -0.1460 -0.1610  0.1796
39123OCT     C278246  21.419   4.748   5.580 -0.0973  0.1764  0.0348
39124OCT     C178247  14.307  19.730   8.649  0.2858  0.2821  0.0100
39124OCT     C278248  14.357  19.214   8.665  0.2278  0.1225 -0.0985
39125OCT     C178249  11.708   4.889   0.991  0.0109  0.2937  0.1777
39125OCT     C278250  11.453   5.173   1.186 -0.2334 -0.3404 -0.0711
39126OCT     C178251  10.805  15.681  10.777  0.3536 -0.0062  0.1535
39126OCT     C278252  10.444  15.383  10.680  0.1858  0.0044 -0.1493
39127OCT     C178253  19.516  18.799   8.885  0.3368 -0.0219  0.0579
39127OCT     C278254  20.002  18.887   8.880  0.3463  0.0823  0.1339
39128OCT     C178255   6.932   7.739   9.183 -0.3631  0.0067 -0.2867
39128OCT     C278256   6.810   7.293   9.213  0.2351  0.0352 -0.2645
39129OCT     C178257  15.473  20.926   7.425 -0.0510 -0.0551  0.1526
39129OCT     C278258  15.868  20.842   7.287 -0.1295  0.2259 -0.0703
39130OCT     C178259   0.206  19.133  16.340 -0.3497  0.1937  0.0026
39130OCT     C278260  23.633  19.462  16.397 -0.0023  0.1108  0.4889
39131OCT     C178261   1.386  19.846  11.790  0.1714  0.3679  0.3893
39131OCT     C278262   1.208  19.641  11.368 -0.1451 -0.1901 -0.0472
39132OCT     C178263  10.048   8.925   1.450 -0.1022  0.3083  0.0174
39132OCT     C278264  10.398   8.808   1.160 -0.1958 -0.3273  0.0131
39133OCT     C178265  20.748  14.871   1.079  0.2391 -0.1881 -0.0572
39133OCT     C278266  20.858  14.612   1.452 -0.2383 -0.0965  0.1890
39134OCT     C178267  20.407  17.423   6.978 -0.2371 -0.2342  0.0334
39134OCT     C278268  20.295  17.132   6.633 -0.0696 -0.2588  0.1459
39135OCT     C178269  14.162  19.860   6.356  0.1206  0.0372  0.2785
39135OCT     C278270  14.019  19.551   6.721  0.2932  0.0082  0.4093
39136OCT     C178271  12.608   4.056   6.629 -0.0086  0.0170 -0.3758
39136OCT     C278272  12.382   3.631   6.635 -0.0142 -0.0796 -0.1857
39137OCT     C178273  22.254  16.057   9.819  0.0305  0.0329 -0.0843
39137OCT     C278274  22.564  16.153   9.518  0.1258  0.0958  0.1617
39138OCT     C178275   7.247   4.010   8.640 -0.0268  0.2266 -0.3029
39138OCT     C278276   6.923   3.909   9.010  0.0766  0.0928 -0.2972
39139OCT     C178277  15.130  22.816   8.837  0.0247 -0.4751 -0.1119
39139OCT     C278278  14.691  22.877   8.789  0.0643 -0.3705 -0.1929
39140OCT     C178279  16.686   8.111   9.490  0.0520  0.0426  0.5868
39140OCT     C278280  16.421   8.387   9.194 -0.2965 -0.3575 -0.1774
39141OCT     C178281  12.285  15.484  15.078 -0.2202  0.0813 -0.2973
39141OCT     C278282  12.077  15.640  15.522 -0.4130 -0.1053 -0.2162
39142OCT     C178283   0.191   1.553  15.618 -0.0325  0.0379  0.0082
39142OCT     C278284  23.495   1.440  15.515  0.1483  0.4071  0.4251
39143OCT     C178285  20.464  16.034   3.637 -0.1224  0.0419  0.0192
39143OCT     C278286  20.810  16.084   3.993  0.0576 -0.0511  0.3612
39144OCT     C178287  21.828  21.134  14.134  0.1490  0.0214  0.3640
39144OCT     C278288  22.091  21.347  13.894 -0.0464 -0.3000  0.0428
39145OCT     C178289  10.837   0.249   2.605 -0.3983  0.0828  0.0732
39145OCT     C278290  11.067   0.079   2.248  0.1461  0.2667 -0.4132
39146OCT     C178291  11.475  10.284  10.285 -0.0796 -0.1271  0.1268
39146OCT     C278292  11.798  10.629  10.368 -0.2737  0.2114  0.1857
39147OCT     C178293   1.193   6.807   4.242 -0.0796  0.0102 -0.1359
39147OCT     C278294   1.302   7.213   4.471 -0.0593  0.0044 -0.2325
39148OCT     C178295   5.840  14.513   0.989 -0.0545  0.2298  0.2413
39148OCT     C278296   6.199  14.785   1.056  0.2783 -0.2893 -0.0485
39149OCT     C178297  17.760  13.822   2.309  0.0344  0.1545  0.2456
39149OCT     C278298  17.352  13.979   2.231  0.0637  0.2526 -0.6983
39150OCT     C178299  12.503   8.384  11.213  0.1103  0.3998 -0.2319
39150OCT     C278300  12.473   7.999  11.442 -0.1916 -0.3400 -0.1349
39151OCT     C178301  17.607  16.621   2.591  0.1895  0.3097 -0.0366
39151OCT     C278302  18.075  16.712   2.714 -0.0657 -0.1296 -0.2371
39152OCT     C178303  20.304  20.000  21.738  0.0374 -0.0022  0.1340
39152OCT     C278304  20.440  19.605  21.971 -0.0848 -0.1076 -0.1014
39153OCT     C178305  14.224   8.961  19.515 -0.1134  0.3036 -0.1307
39153OCT     C278306  14.597   8.690  19.471  0.0495  0.2640  0.0348
39154OCT     C178307  13.793  22.331  21.323  0.2220  0.1555 -0.0303
39154OCT     C278308  13.626  22.218  21.757  0.3152  0.2292 -0.2007
39155OCT     C178309  10.136   6.272  22.053 -0.3332  0.2223 -0.0547
39155OCT     C278310  10.420   6.143  22.447 -0.1889 -0.0781 -0.1273
39156OCT     C178311  19.986  23.061   6.299  0.0214 -0.1289 -0.1787
39156OCT     C278312  20.080  23.067   6.745  0.1638 -0.0075  0.1184
39157OCT     C178313   7.233  11.931  21.440  0.0286  0.3268 -0.1330
39157OCT     C278314   7.720  11.932  21.433 -0.0897 -0.0566 -0.1428
39158OCT     C178315  10.873  20.733   6.909  0.3071  0.1570 -0.0086
39158OCT     C278316  11.267  20.903   6.739 -0.1615  0.1055  0.2243
39159OCT     C178317   2.386  22.763  17.488 -0.1169  0.1006  0.0444
39159OCT     C278318   2.634  22.811  17.914  0.0243 -0.3213 -0.1515
39160OCT     C178319   3.524   3.674  17.407  0.2391  0.0227 -0.2088
39160OCT     C278320   3.306   3.384  17.522  0.0280  0.1520  0.0454
39161OCT     C178321  15.531  22.669  16.643 -0.0049 -0.0171 -0.0702
39161OCT     C278322  15.376  22.227  16.745 -0.6631  0.0910 -0.0506
39162OCT     C178323  19.825   3.988   0.074 -0.0562 -0.0086 -0.0539
39162OCT     C278324  19.780   4.463   0.104 -0.5441 -0.2776 -0.0875
39163OCT     C178325  10.534   4.065  14.384 -0.1218 -0.0810 -0.2542
39163OCT     C278326  10.365   3.760  14.702 -0.2904 -0.3446 -0.1736
39164OCT     C178327  16.605   0.827  13.866 -0.0484  0.1302 -0.0133
39164OCT     C278328  16.887   0.906  14.275  0.4521  0.1635  0.2558
39165OCT     C178329  18.996  20.414   5.537 -0.1888  0.1269 -0.4892
39165OCT     C278330  19.421  20.239   5.426  0.1191  0.2200  0.0225
39166OCT     C178331  13.282  11.231  16.751  0.0705 -0.0371  0.4895
39166OCT     C278332  13.659  10.962  16.714  0.3614  0.2797 -0.1887
39167OCT     C178333  12.353   8.731   0.838 -0.2890  0.0795  0.0017
39167OCT     C278334  11.982   8.865   1.092 -0.0132 -0.0596 -0.0640
39168OCT     C178335  22.778   7.084  10.924 -0.0902 -0.0643 -0.4414
39168OCT     C278336  23.037   6.642  10.929  0.0026  0.1864 -0.3075
39169OCT     C178337   1.209  21.031   0.504  0.2540 -0.1978  0.0618
39169OCT     C278338   1.586  20.997   0.300 -0.2638  0.0866 -0.1261
39170OCT     C178339  20.381   9.088   4.985  0.4127 -0.0505 -0.2617
39170OCT     C278340  20.525   9.508   4.877  0.1039  0.1793  0.0877
39171OCT     C178341   2.505   9.681   3.714 -0.0887 -0.3436 -0.0203
39171OCT     C278342   2.213   9.883   3.402  0.1434 -0.3234 -0.0076
39172OCT     C178343  19.732   8.489  11.657 -0.3076 -0.0417  0.0004
39172OCT     C278344  19.450   8.643  11.370  0.0702 -0.1220  0.1105
39173OCT     C178345  21.000   2.825   8.080 -0.1283  0.0089  0.2114
39173OCT     C278346  21.456   3.008   8.051  0.0628  0.0932 -0.1214
39174OCT     C178347   4.987  15.857   3.038 -0.0496 -0.1927  0.1649
39174OCT     C278348   4.970  15.450   3.124 -0.0370  0.2313  0.1780
39175OCT     C178349  21.014  20.870   5.900 -0.0961 -0.1601 -0.0168
39175OCT     C278350  20.928  21.298   5.783  0.1475  0.1010  0.0167
39176OCT     C178351   2.774  16.695   4.631  0.0237  0.2169 -0.2391
39176OCT     C278352   2.730  17.072   4.493 -0.2136  0.0472 -0.1424
39177OCT     C178353   8.826  14.208  18.015 -0.1517 -0.2425 -0.1823
39177OCT     C278354   8.727  14.405  18.433  0.2605  0.0829 -0.0403
39178OCT     C178355  11.450  20.999  21.110 -0.1741 -0.0932  0.2308
39178OCT     C278356  11.439  20.718  21.480 -0.2409  0.0539  0.0592
39179OCT     C178357   6.497   8.971  10.577 -0.2766 -0.1887  0.0217
39179OCT     C278358   6.221   8.593  10.551 -0.2258  0.3025 -0.0614
39180OCT     C178359  20.104  21.913  15.968 -0.0073  0.5181 -0.1013
39180OCT     C278360  19.996  21.655  16.285  0.0514 -0.2083 -0.1853
39181OCT     C178361  11.687   5.760  22.749  0.0489  0.1834 -0.4284
39181OCT     C278362  11.576   5.349  22.520 -0.0759 -0.0093  0.0762
39182OCT     C178363  12.480  13.064  17.400 -0.0321  0.0053 -0.1145
39182OCT     C278364  12.813  13.323  17.561  0.1744  0.0762 -0.1618
39183OCT     C178365   0.434   5.643   8.332  0.0254 -0.0033  0.2291
39183OCT     C278366   0.857   5.750   8.066  0.1527  0.0592 -0.3327
39184OCT     C178367  19.579  16.059  14.502  0.0766  0.1594 -0.2260
39184OCT     C278368  19.129  16.112  14.411  0.0296 -0.0325  0.1573
39185OCT     C178369  14.162   5.821  23.013 -0.2246  0.0346  0.2396
39185OCT     C278370  14.416   5.799  22.634  0.2783  0.2517 -0.0366
39186OCT     C178371  13.220  21.712   6.340 -0.0303 -0.0592 -0.4499
39186OCT     C278372  13.449  21.468   6.674  0.1984  0.0459 -0.3648
39187OCT     C178373  16.260  23.266   2.037  0.2258  0.0446  0.0579
39187OCT     C278374  16.419  23.533   1.680 -0.0320 -0.0875  0.1534
39188OCT     C178375   8.042   9.214  20.248 -0.0869 -0.2032 -0.3109
39188OCT     C278376   7.810   8.893  19.987 -0.0113  0.4397 -0.0746
39189OCT     C178377   9.774   2.464   8.255  0.0633  0.1853  0.2074
39189OCT     C278378   9.607   2.679   8.633  0.2870  0.2063 -0.2628
39190OCT     C178379  10.297  10.354   5.764 -0.2188  0.0140  0.1658
39190OCT     C278380  10.232   9.978   6.051  0.2629  0.0822 -0.2958
39191OCT     C178381  15.742   9.923  14.958  0.1594  0.3371  0.0942
39191OCT     C278382  15.542  10.217  15.269  0.4768  0.3078  0.1930
39192OCT     C178383   5.931  18.382   0.082 -0.0989 -0.0892 -0.2557
39192OCT     C278384   5.587  18.503   0.375  0.4000  0.2134  0.0732
39193OCT     C178385   9.005   7.086   0.205  0.1088  0.3362  0.2852
39193OCT     C278386   9.410   7.307   0.082 -0.1040 -0.2496  0.2210
39194OCT     C178387  10.955   9.058   5.112  0.0962 -0.0572 -0.0176
39194OCT     C278388  10.968   9.474   5.264  0.0610  0.2328 -0.0973
39195OCT     C178389  13.955  15.411   0.538 -0.1345  0.3606  0.3023
39195OCT     C278390  14.200  15.291   0.894 -0.2722  0.1864 -0.0369
39196OCT     C178391  13.775  15.553  17.168 -0.3629 -0.2743 -0.2977
39196OCT     C278392  13.621  15.152  17.092 -0.2119 -0.1949 -0.2847
39197OCT     C178393  21.169  21.070  11.766 -0.0497 -0.1357  0.0277
39197OCT     C278394  21.609  21.065  11.936 -0.2795 -0.0760 -0.2505
39198OCT     C178395   2.469   8.208  19.931  0.2286 -0.2749 -0.2130
39198OCT     C278396   2.653   8.376  19.500 -0.2123 -0.2153 -0.0805
39199OCT     C178397   3.714   1.005  18.352 -0.2141  0.1756 -0.1466
39199OCT     C278398   3.340   0.942  18.455 -0.0962 -0.1201 -0.1354
39200OCT     C178399  23.548  13.757  17.833  0.0499  0.3345 -0.2239
39200OCT     C278400  23.550  14.124  17.566 -0.0061  0.2761 -0.0777
39201OCT     C178401  10.209  10.705   5.321  0.2164 -0.1339 -0.1085
39201OCT     C278402   9.769  10.482   5.242 -0.2376 -0.3205  0.2201
39202OCT     C178403  16.832   3.958  21.577  0.0356 -0.2658 -0.0910
39202OCT     C278404  16.930   3.679  21.142 -0.0322 -0.2575  0.0733
39203OCT     C178405   6.262  12.721  10.504 -0.1944 -0.1138 -0.1941
39203OCT     C278406   6.383  12.330  10.821 -0.1368 -0.1843 -0.3243
39204OCT     C178407  15.326  17.018  18.342 -0.1067 -0.1654 -0.0302
39204OCT     C278408  15.048  17.247  18.075  0.2349 -0.2486  0.2885
39205OCT     C178409  14.351   9.364  18.587 -0.0308 -0.1689 -0.1945
39205OCT     C278410  14.781   9.419  18.421  0.2029 -0.0219 -0.1406
39206OCT     C178411   7.978  11.103  20.572 -0.0429  0.0254 -0.1257
39206OCT     C278412   7.532  11.029  20.449 -0.5593 -0.3097  0.0136
39207OCT     C178413  10.024   3.008  15.602  0.0800 -0.1359  0.1187
39207OCT     C278414  10.322   2.719  15.779 -0.4691 -0.2996  0.1700
39208OCT     C178415  20.518   3.551  16.647  0.3471 -0.0929 -0.1191
39208OCT     C278416  20.302   3.992  16.861 -0.0557 -0.2367 -0.3896
39209OCT     C178417  15.302  20.671   4.532  0.1426  0.2174 -0.1854
39209OCT     C278418  15.024  20.366   4.318  0.0016 -0.0208 -0.3238
39210OCT     C178419   3.573  10.726  10.623  0.1245 -0.0932  0.1135
39210OCT     C278420   3.235  10.632  10.309  0.4285 -0.1337 -0.1071
39211OCT     C178421  19.417  14.890   8.011  0.0711 -0.3306  0.3419
39211OCT     C278422  19.627  14.591   8.304  0.0905  0.0798  0.0184
39212OCT     C178423  20.084   1.779  12.197 -0.1171 -0.1001  0.1076
39212OCT     C278424  20.096   1.430  11.848  0.3764 -0.1329  0.3228
39213OCT     C178425  18.793  18.088  21.220 -0.1302  0.0287  0.1252
39213OCT     C278426  18.642  18.211  21.658  0.0614  0.0527  0.2460
39214OCT     C178427   2.500   2.030   5.877 -0.1051  0.1480  0.1809
39214OCT     C278428   2.275   1.636   6.006  0.0703 -0.1474  0.3313
39215OCT     C178429  15.626  19.095   4.767 -0.0451  0.1203 -0.4869
39215OCT     C278430  15.951  18.776   4.763  0.2126  0.1517  0.1332
39216OCT     C178431   6.534  20.352  23.120 -0.0764 -0.3084 -0.0851
39216OCT     C278432   6.696  19.901  23.217 -0.0894  0.1142  0.4619
39217OCT     C178433  21.814  22.345   8.587 -0.3045 -0.4103  0.2374
39217OCT     C278434  21.493  22.682   8.533  0.5169  0.1368  0.2328
39218OCT     C178435  12.665  17.190   9.449  0.1468 -0.0615  0.0701
39218OCT     C278436  12.907  16.769   9.527  0.2054 -0.3520  0.3373
39219OCT     C178437  22.742  22.352   3.369  0.3898  0.1079  0.1071
39219OCT     C278438  22.600  22.791   3.452  0.2505 -0.0627  0.1272
39220OCT     C178439  22.601  15.807   4.165  0.2533 -0.5250  0.1760
39220OCT     C278440  22.201  15.535   4.225  0.1755  0.3047  0.2838
39221OCT     C178441  13.344  11.357   2.776  0.2836  0.1226  0.0971
39221OCT     C278442  13.336  10.956   2.542 -0.2514  0.1250  0.1430
39222OCT     C178443  16.379  17.024   3.505  0.0020 -0.1117  0.3516
39222OCT     C278444  16.351  16.571   3.334 -0.2509 -0.3878 -0.0703
39223OCT     C178445  23.565   6.098   9.508 -0.1418 -0.2735  0.0814
39223OCT     C278446  23.536   6.349   9.112 -0.0261 -0.2040  0.1533
39224OCT     C178447  14.911   2.836  11.755  0.1399  0.1972  0.2889
39224OCT     C278448  14.516   2.952  11.593 -0.3682 -0.3742  0.2491
39225OCT     C178449  22.256  22.755   4.623  0.4773 -0.1282  0.2448
39225OCT     C278450  22.285  23.208   4.464  0.4152 -0.0408 -0.3001
39226OCT     C178451  21.458   9.786   9.129 -0.1018 -0.0714 -0.2237
39226OCT     C278452  21.598   9.354   9.257  0.0705 -0.0723  0.1578
39227OCT     C178453   9.628  12.739   1.814 -0.1677  0.1289 -0.1769
39227OCT     C278454  10.021  12.919   2.032  0.0883 -0.1044 -0.0249
39228OCT     C178455  21.405   5.043  22.076  0.0106 -0.0191  0.0008
39228OCT     C278456  21.372   5.153  22.528 -0.0648  0.0271 -0.0262
39229OCT     C178457   2.295   8.982  15.927 -0.0109  0.2182  0.1646
39229OCT     C278458   1.880   8.974  16.034  0.2808  0.1886  0.1476
39230OCT     C178459   5.908   8.232  22.186 -0.1910 -0.1671 -0.1416
39230OCT     C278460   5.715   8.547  22.468 -0.1485  0.3894  0.2960
39231OCT     C178461   0.946  22.741   5.691 -0.1121  0.3682 -0.2439
39231OCT     C278462   0.604  22.949   5.998 -0.0203  0.0467  0.2571
39232OCT     C178463  21.859   8.543   4.373  0.0421  0.0192 -0.0003
39232OCT     C278464  21.424   8.388   4.398  0.5494 -0.1160 -0.1048
39233OCT     C178465   7.040   5.080   8.540 -0.1364 -0.3380  0.1214
39233OCT     C278466   6.548   5.182   8.476 -0.1471 -0.1617 -0.0367
39234OCT     C178467   6.570  16.667  10.999  0.3126 -0.1175 -0.1784
39234OCT     C278468   6.268  17.037  11.003  0.0439  0.0299  0.0637
39235OCT     C178469   7.923  17.971   9.594  0.0441  0.0700 -0.1948
39235OCT     C278470   7.829  18.393   9.780 -0.2880 -0.0207  0.0614
39236OCT     C178471   1.396   3.349  10.940 -0.2628 -0.0798  0.2699
39236OCT     C278472   0.960   3.251  11.118 -0.0659 -0.0678 -0.0881
39237OCT     C178473  20.790  23.408  16.049  0.2167  0.5970  0.0822
39237OCT     C278474  20.585  23.079  15.721  0.0767 -0.0465 -0.0233
39238OCT     C178475   6.015  14.256  11.891 -0.2055  0.0889 -0.0543
39238OCT     C278476   6.433  14.070  11.936 -0.1019 -0.1563  0.0135
39239OCT     C178477  23.527   4.944   8.861 -0.2589 -0.1787  0.0792
39239OCT     C278478  23.313   5.353   8.796 -0.1496 -0.0748 -0.2449
39240OCT     C178479  11.830  11.689  21.744  0.0757 -0.2108 -0.0623
39240OCT     C278480  11.491  11.326  21.798 -0.0494 -0.2481  0.1919
39241OCT     C178481   5.848  15.958  23.068  0.1822  0.1003  0.2086
39241OCT     C278482   5.953  15.829  23.471  0.0695 -0.1702  0.3284
39242OCT     C178483  13.052   9.062   3.963 -0.4054 -0.4393  0.2021
39242OCT     C278484  13.302   8.775   3.738 -0.1178  0.3098  0.2264
39243OCT     C178485   7.244   6.909  14.939 -0.5380 -0.1955  0.0535
39243OCT     C278486   7.483   7.142  15.258 -0.1984  0.0302 -0.1674
39244OCT     C178487  14.897  17.653  22.751 -0.0226  0.0649 -0.0372
39244OCT     C278488  14.641  17.311  22.978 -0.0501 -0.1215 -0.2230
39245OCT     C178489   5.714  10.181   6.847  0.3645 -0.2923 -0.0012
39245OCT     C278490   5.694   9.778   6.632 -0.1992 -0.1024  0.0058
39246OCT     C178491  10.148  21.946   9.431  0.2627 -0.0015 -0.1277
39246OCT     C278492  10.355  22.320   9.179  0.1470  0.0234 -0.2471
39247OCT     C178493   7.690   0.649   8.142 -0.1652 -0.1843  0.1276
39247OCT     C278494   7.732   0.952   7.800  0.0815  0.0862  0.1280
39248OCT     C178495  18.197  19.334   1.945  0.1455  0.0271 -0.5520
39248OCT     C278496  18.480  19.021   2.160  0.0049 -0.0365  0.0344
39249OCT     C178497  21.722   7.869   0.431  0.1388 -0.1644 -0.3940
39249OCT     C278498  22.122   8.158   0.268  0.2626 -0.1448  0.0270
39250OCT     C178499   0.461   1.424   2.650 -0.1694  0.1896 -0.0367
39250OCT     C278500   0.456   1.314   3.142  0.2024  0.0554  0.0492
39251OCT     C178501  17.750   4.780  12.799  0.4302  0.3696  0.0480
39251OCT     C278502  18.065   4.590  13.169  0.1636  0.0250  0.1117
39252OCT     C178503  16.778  16.990   3.791 -0.0518  0.1565 -0.1138
39252OCT     C278504  16.747  17.460   3.999 -0.0436  0.0315  0.1677
39253OCT     C178505  19.273  17.901   9.017 -0.0881  0.2701  0.3057
39253OCT     C278506  19.386  18.309   8.860 -0.1760  0.0714 -0.1650
39254OCT     C178507   7.963  12.709   0.967 -0.1566 -0.3255  0.1013
39254OCT     C278508   8.349  12.934   0.746 -0.0881  0.5336  0.0519
39255OCT     C178509  20.430  23.471  20.216  0.2138 -0.1091 -0.1211
39255OCT     C278510  20.286  23.260  20.550 -0.1709 -0.0048  0.2409
39256OCT     C178511   8.641   0.496  19.357 -0.3869 -0.2936 -0.1234
39256OCT     C278512   8.249   0.549  19.577  0.2081 -0.6359 -0.0087
39257OCT     C178513  22.541  11.953   6.452  0.1288  0.4477  0.2753
39257OCT     C278514  22.325  11.505   6.607  0.0125 -0.1684 -0.3839
39258OCT     C178515  19.521  19.023  11.345  0.0414 -0.5424  0.4487
39258OCT     C278516  19.363  19.323  11.688 -0.0290 -0.1342  0.1081
39259OCT     C178517   6.444   9.500  16.397  0.0358  0.3371 -0.1931
39259OCT     C278518   6.082   9.214  16.311  0.1436  0.0632  0.0130
39260OCT     C178519   0.238  19.239   0.128  0.2872 -0.1656  0.1002
39260OCT     C278520   0.237  19.545  23.575  0.1505  0.2851  0.4255
39261OCT     C178521  19.039   8.033  19.063  0.1468 -0.0118 -0.0404
39261OCT     C278522  18.853   8.483  18.999  0.1519 -0.1300 -0.0582
39262OCT     C178523   6.022  23.259  23.212  0.3260  0.9475 -0.4619
39262OCT     C278524   6.036  23.521  23.581  0.2910  0.1772 -0.0186
39263OCT     C178525  21.534   6.043   9.146  0.3228 -0.1975  0.1837
39263OCT     C278526  21.131   6.263   9.061 -0.1439 -0.5600 -0.1663
39264OCT     C178527  22.348   8.476  14.136  0.3782  0.0965 -0.0040
39264OCT     C278528  21.995   8.497  14.417 -0.2995  0.0081  0.0795
39265OCT     C178529  14.188   4.126  23.509  0.2894 -0.4003  0.1483
39265OCT     C278530  14.046   3.714  23.481 -0.1344  0.2004  0.1382
39266OCT     C178531   7.849  19.476  12.992 -0.0376  0.0659 -0.0609
39266OCT     C278532   8.022  19.223  13.329 -0.0951  0.0049 -0.0668
39267OCT     C178533   8.196  11.615   6.851  0.1937  0.1869  0.0189
39267OCT     C278534   7.836  11.326   6.887  0.2437 -0.0264  0.4490
39268OCT     C178535  21.764   4.461  17.637  0.0075 -0.2779 -0.2044
39268OCT     C278536  21.350   4.415  17.454  0.1538 -0.2169  0.0172
39269OCT     C178537  13.058  14.165   3.312  0.0880  0.0118 -0.2265
39269OCT     C278538  12.879  14.570   3.470 -0.0574 -0.0507  0.2511
39270OCT     C178539   2.143  17.642   0.393  0.5130 -0.3191 -0.0032
39270OCT     C278540   2.437  17.590   0.800 -0.1712  0.1681  0.5693
39271OCT     C178541   1.272  19.842  23.481 -0.2863  0.4458  0.0825
39271OCT     C278542   1.034  20.148  23.230 -0.0120  0.0466  0.2153
39272OCT     C178543  11.331  18.848  11.702 -0.2836 -0.0094  0.1090
39272OCT     C278544  11.005  19.163  11.850  0.2006 -0.4920  0.3063
39273OCT     C178545  16.403  22.010   6.405  0.2260  0.2894 -0.1380
39273OCT     C278546  16.643  22.407   6.382 -0.4809  0.1317 -0.3818
39274OCT     C178547  12.519   1.650   9.552  0.2487 -0.2000  0.1680
39274OCT     C278548  12.357   1.853   9.954  0.0390  0.1475 -0.3417
39275OCT     C178549   5.298  11.490   8.597  0.0577  0.0411 -0.1547
39275OCT     C278550   5.343  11.889   8.920 -0.0235  0.0215 -0.0045
39276OCT     C178551  12.767  19.252  23.262 -0.0134 -0.0482  0.0859
39276OCT     C278552  13.161  19.002  23.126 -0.0301  0.0897  0.0680
39277OCT     C178553  18.487   1.929  13.250 -0.1645  0.0962  0.4975
39277OCT     C278554  18.181   1.952  13.583 -0.0680  0.2338 -0.1116
39278OCT     C178555   2.750  11.712   7.501 -0.0267  0.4480  0.1620
39278OCT     C278556   2.992  11.587   7.093  0.0183  0.0906 -0.2737
39279OCT     C178557  15.070  10.115  11.640 -0.2525 -0.0514 -0.2251
39279OCT     C278558  14.818   9.799  11.854  0.1857  0.0389  0.1256
39280OCT     C178559  21.863  12.927  20.030 -0.0491 -0.0554 -0.0343
39280OCT     C278560  21.512  13.022  19.733 -0.2860  0.1331 -0.1662
39281OCT     C178561   6.289  10.410  15.351  0.1713 -0.2362 -0.1286
39281OCT     C278562   6.265  10.550  14.926  0.2872 -0.1548  0.1499
39282OCT     C178563  20.774  16.416   3.466  0.0430 -0.2014  0.1221
39282OCT     C278564  20.770  16.633   3.903 -0.2273 -0.3573 -0.1914
39283OCT     C178565   8.889   7.154   6.753 -0.1851  0.1834  0.1813
39283OCT     C278566   8.791   7.644   6.633 -0.3819 -0.1361 -0.4153
39284OCT     C178567  14.198   8.524  17.180  0.1953  0.3544  0.0276
39284OCT     C278568  14.626   8.432  17.345  0.2252  0.0909 -0.1547
39285OCT     C178569   7.951   9.813   8.121  0.2708  0.0235 -0.2784
39285OCT     C278570   7.654   9.675   8.444 -0.1754 -0.1874 -0.3923
39286OCT     C178571   1.592   8.439  19.766 -0.2082 -0.1017 -0.1982
39286OCT     C278572   1.409   8.547  20.173  0.2637  0.2411  0.2383
39287OCT     C178573  15.074   4.675   1.916 -0.3112  0.2765  0.3420
39287OCT     C278574  14.664   4.752   1.735 -0.0135 -0.1063 -0.0661
39288OCT     C178575   4.570  10.525   0.854 -0.3289  0.4124 -0.2930
39288OCT     C278576   4.387  10.982   0.988  0.0912 -0.0489  0.4864
39289OCT     C178577   8.158  17.500   1.020  0.1250  0.0230  0.2876
39289OCT     C278578   8.072  17.861   1.311  0.3484 -0.0803 -0.3650
39290OCT     C178579  18.056  20.607  17.760 -0.3598  0.0630 -0.0689
39290OCT     C278580  18.147  20.252  18.025 -0.4149  0.2250  0.2048
39291OCT     C178581   9.664   4.396   5.856  0.0188  0.1018  0.0400
39291OCT     C278582   9.809   4.302   6.288  0.2452 -0.1125 -0.2369
39292OCT     C178583   8.549  10.787  12.391 -0.1060  0.0135  0.2532
39292OCT     C278584   8.606  10.381  12.164 -0.2100  0.1099  0.1369
39293OCT     C178585   4.192   4.783  21.680  0.0713 -0.1127 -0.0911
39293OCT     C278586   4.353   4.715  22.112  0.5601  0.4246 -0.2248
39294OCT     C178587   6.199   4.194  16.672 -0.2733 -0.1795  0.0853
39294OCT     C278588   6.092   4.679  16.659  0.0862  0.0852  0.0573
39295OCT     C178589  21.320  18.822   9.431  0.0642 -0.0981  0.2503
39295OCT     C278590  21.330  19.249   9.225  0.0335 -0.2803  0.1956
39296OCT     C178591  13.641   9.462  20.024 -0.0870  0.0415 -0.4971
39296OCT     C278592  13.847   9.549  20.480  0.0386  0.1376 -0.2272
39297OCT     C178593   4.613   8.991  15.837  0.1690 -0.5676  0.3081
39297OCT     C278594   4.374   8.619  15.993  0.0263 -0.0630 -0.5131
39298OCT     C178595  10.708   0.849  18.527 -0.4158 -0.1263 -0.0223
39298OCT     C278596  11.056   1.178  18.482 -0.2017 -0.0385 -0.3506
39299OCT     C178597   9.329  21.295  21.426 -0.1955  0.1674  0.2503
39299OCT     C278598   9.560  21.569  21.706  0.1534 -0.1298  0.2813
39300OCT     C178599  11.615  16.892  22.257 -0.1099 -0.3456  0.3068
39300OCT     C278600  11.993  16.730  22.456 -0.1777  0.0412 -0.1434
39301OCT     C178601   9.338   3.426  19.212  0.1623  0.2980 -0.0097
39301OCT     C278602   9.049   3.575  18.832  0.1032  0.0536  0.1024
39302OCT     C178603  13.107   2.307   5.839  0.0773 -0.2634 -0.3714
39302OCT     C278604  13.056   2.774   5.686  0.1882  0.1165 -0.2996
39303OCT     C178605  21.557  11.287   5.845 -0.1715  0.1481  0.2143
39303OCT     C278606  21.314  11.151   6.258  0.0544 -0.3031  0.1872
39304OCT     C178607  13.760  16.422  13.569  0.2860 -0.0626  0.3274
39304OCT     C278608  13.320  16.225  13.663 -0.0415 -0.3974 -0.0494
39305OCT     C178609   1.665  14.526   9.173 -0.1765  0.4922 -0.1021
39305OCT     C278610   1.676  14.524   9.639  0.0586  0.0848 -0.2867
39306OCT     C178611   3.567   4.332  20.151 -0.3628 -0.0997 -0.1372
39306OCT     C278612   3.240   4.039  19.943  0.3160 -0.3053  0.3259
39307OCT     C178613  20.689  18.461   9.075  0.1040  0.3821  0.0504
39307OCT     C278614  20.415  18.650   8.736  0.1276  0.0589  0.1545
39308OCT     C178615  17.574   0.489  15.731 -0.4347 -0.4993  0.3889
39308OCT     C278616  17.558   0.340  15.250  0.1833  0.2514 -0.1164
39309OCT     C178617  11.508  23.090  14.346 -0.1917 -0.0274 -0.0520
39309OCT     C278618  11.099  23.166  14.090 -0.1261  0.0028 -0.0084
39310OCT     C178619  14.229  10.435   3.637 -0.2065  0.2738  0.0793
39310OCT     C278620  14.155  10.078   3.985 -0.1294 -0.5379  0.2866
39311OCT     C178621  18.900   0.615  20.231  0.1040  0.2793 -0.1101
39311OCT     C278622  18.860   0.956  20.545 -0.0896  0.0084 -0.0204
39312OCT     C178623   5.293  15.553  13.143 -0.2356  0.0748 -0.5391
39312OCT     C278624   5.369  15.142  13.035  0.0932 -0.3152  0.0659
39313OCT     C178625   5.966  14.848  23.626  0.3143 -0.1589 -0.0431
39313OCT     C278626   6.300  14.640  23.358 -0.2227 -0.1100 -0.1039
39314OCT     C178627  10.402  18.671   9.999  0.0770 -0.1495 -0.2056
39314OCT     C278628  10.625  18.772   9.619  0.1663 -0.1922  0.3806
39315OCT     C178629  13.279  18.244  10.551 -0.3618 -0.0022  0.0084
39315OCT     C278630  13.253  17.845  10.314  0.0625 -0.3036  0.1356
39316OCT     C178631   9.756  14.053   8.428  0.3490  0.2160  0.0061
39316OCT     C278632  10.007  13.845   8.095 -0.0818  0.1144  0.0431
39317OCT     C178633   4.548   3.775  20.647 -0.0022 -0.2131  0.1857
39317OCT     C278634   4.940   3.921  20.703  0.0215  0.3444  0.0297
39318OCT     C178635  21.967  16.359   5.100  0.0185  0.3345 -0.2061
39318OCT     C278636  21.809  16.703   4.822  0.2633  0.3587 -0.0789
39319OCT     C178637  20.030  15.847   1.085 -0.2160 -0.1394  0.2556
39319OCT     C278638  20.479  15.883   1.002  0.0835  0.1352 -0.0659
39320OCT     C178639   6.771   6.854   8.838 -0.1797  0.3163 -0.2916
39320OCT     C278640   7.055   6.513   8.997  0.2776 -0.4136  0.1989
39321OCT     C178641   3.405  13.392   3.733  0.2190  0.4081  0.1270
39321OCT     C278642   3.696  13.726   3.915 -0.1796  0.2720 -0.0130
39322OCT     C178643  13.614  19.918  22.699  0.1061  0.0279 -0.1061
39322OCT     C278644  13.483  20.009  22.289 -0.1478  0.0258  0.0929
39323OCT     C178645   9.775  23.091   8.619  0.1950 -0.0883  0.1162
39323OCT     C278646   9.559  23.230   8.983 -0.1546 -0.5880 -0.0457
39324OCT     C178647  18.276  21.948  17.263 -0.1945 -0.0161  0.0261
39324OCT     C278648  17.904  21.706  17.381  0.2555  0.0762  0.0252
39325OCT     C178649   8.027   5.832  21.117  0.1236  0.0193  0.0141
39325OCT     C278650   8.086   6.305  20.984  0.2561  0.1023  0.1455
39326OCT     C178651   3.425   8.375   5.437  0.1310  0.2347  0.2627
39326OCT     C278652   3.472   8.709   5.690  0.0159  0.2553 -0.0915
39327OCT     C178653   4.026   6.526  17.609 -0.2145 -0.0676  0.1368
39327OCT     C278654   3.592   6.522  17.817  0.1698 -0.2228 -0.1190
39328OCT     C178655  14.113  10.065   1.739 -0.1639 -0.2527  0.2771
39328OCT     C278656  14.218   9.707   1.423  0.0101 -0.0228  0.1997
39329OCT     C178657  14.354  10.379   7.868 -0.0950  0.1948 -0.0971
39329OCT     C278658  14.206  10.083   7.537 -0.0090 -0.0955  0.3986
39330OCT     C178659  19.811   0.818  18.021 -0.0842 -0.0966 -0.0131
39330OCT     C278660  19.602   0.484  18.244 -0.0026  0.2714 -0.0696
39331OCT     C178661  11.108   2.932  10.847 -0.2082  0.1517  0.1262
39331OCT     C278662  11.296   3.330  10.942 -0.4909  0.1087  0.1137
39332OCT     C178663  23.154   3.513  20.603  0.1533 -0.2169 -0.1722
39332OCT     C278664  22.922   3.985  20.653 -0.0107  0.2123  0.0710
39333OCT     C178665   8.571   5.775  16.985  0.1230 -0.3354  0.2917
39333OCT     C278666   8.711   5.780  16.542  0.0498  0.1130  0.1269
39334OCT     C178667  12.710   6.161  20.946 -0.4064  0.1991 -0.2231
39334OCT     C278668  13.096   5.960  20.919 -0.1330 -0.0010 -0.1867
39335OCT     C178669  22.499  18.479   1.806 -0.2732  0.3219  0.1062
39335OCT     C278670  22.573  18.542   1.366 -0.1159 -0.1434 -0.1322
39336OCT     C178671  22.300   2.119   2.571  0.0421 -0.0778 -0.1965
39336OCT     C278672  22.478   2.325   2.941 -0.6062 -0.2505 -0.0463
39337OCT     C178673   1.087  15.155  21.767  0.3224 -0.3774  0.0228
39337OCT     C278674   1.108  14.731  21.678  0.1805  0.1873  0.2052
39338OCT     C178675  10.118  12.876  15.262 -0.1608 -0.1615  0.5507
39338OCT     C278676   9.718  12.665  15.496 -0.0845 -0.1199 -0.1304
39339OCT     C178677  19.010   6.043  12.712  0.0119  0.3267 -0.2911
39339OCT     C278678  19.216   6.262  13.061  0.0920  0.1479 -0.0697
39340OCT     C178679   5.774  22.598   8.647 -0.1138  0.4311  0.3553
39340OCT     C278680   5.795  22.888   8.292  0.0744 -0.0582  0.0762
39341OCT     C178681   7.482  22.856  20.568  0.2478  0.1610 -0.1673
39341OCT     C278682   7.584  22.456  20.663 -0.2341  0.2544  0.1296
39342OCT     C178683   2.232  21.232   2.975 -0.1656  0.1429  0.1523
39342OCT     C278684   2.334  21.068   2.521  0.0248 -0.1305 -0.1390
39343OCT     C178685   9.017  15.384   7.356  0.0129  0.3287  0.0686
39343OCT     C278686   9.043  15.737   7.099  0.0917  0.4736 -0.2832
39344OCT     C178687   7.282   0.273  16.057 -0.4327 -0.1000  0.1825
39344OCT     C278688   6.837   0.188  16.092  0.4054 -0.2409  0.1329
39345OCT     C178689   7.672   4.531  20.439  0.2199  0.0856  0.5329
39345OCT     C278690   8.160   4.439  20.367 -0.2591  0.0310 -0.1652
39346OCT     C178691   2.673  11.050  16.235 -0.1132  0.1081 -0.0103
39346OCT     C278692   2.731  11.032  16.677 -0.0320 -0.1230 -0.1373
39347OCT     C178693  18.239  13.262  12.467 -0.1218  0.3650  0.0769
39347OCT     C278694  18.453  13.702  12.440  0.1887  0.3443 -0.0050
39348OCT     C178695  21.853   3.857  12.999 -0.0682 -0.1205  0.2145
39348OCT     C278696  21.924   4.112  13.391 -0.0946 -0.3372  0.1298
39349OCT     C178697   7.418   2.084   2.619  0.1845 -0.2859 -0.4143
39349OCT     C278698   7.265   2.283   3.025  0.3350  0.1625  0.2745
39350OCT     C178699  13.546  13.949   0.663  0.0850  0.3646 -0.0743
39350OCT     C278700  13.411  13.497   0.839 -0.1481 -0.1812  0.2331
39351OCT     C178701   8.983   8.388   4.164 -0.0702 -0.0673  0.0102
39351OCT     C278702   8.700   8.437   4.556 -0.0170 -0.1809  0.0859
39352OCT     C178703  20.477  19.975  12.079  0.1587  0.1022  0.0901
39352OCT     C278704  20.152  19.815  12.314  0.2169 -0.2234 -0.2661
39353OCT     C178705  14.574   8.466   9.586 -0.0717 -0.2605 -0.2725
39353OCT     C278706  14.537   8.651   9.213  0.1971 -0.0714  0.0192
39354OCT     C178707   3.535   3.427   4.146  0.0291  0.0619  0.1212
39354OCT     C278708   3.479   3.243   3.736  0.1489 -0.0669 -0.2545
39355OCT     C178709  19.320  17.019  20.527  0.0370  0.0034  0.1075
39355OCT     C278710  19.740  16.943  20.606  0.0378  0.1665  0.0106
39356OCT     C178711   7.992   0.813  23.161 -0.1441 -0.0838 -0.0798
39356OCT     C278712   7.798   0.496  23.510 -0.0217 -0.1847  0.0520
39357OCT     C178713   5.156  12.641  21.562 -0.2553  0.1090  0.0510
39357OCT     C278714   4.944  13.072  21.550  0.5866  0.0144 -0.0541
39358OCT     C178715  20.346  21.307  17.089 -0.3554  0.1454  0.0005
39358OCT     C278716  20.267  21.586  16.759  0.1164 -0.0142  0.0417
39359OCT     C178717  16.971   4.290   8.950 -0.4651 -0.4308  0.1913
39359OCT     C278718  17.196   4.031   8.599  0.2780 -0.1493  0.3311
39360OCT     C178719   8.549   7.312  16.354  0.1592 -0.0102  0.0705
39360OCT     C278720   8.348   7.044  16.027 -0.5061 -0.1214  0.0216
39361OCT     C178721  12.806  10.581  22.457  0.0047  0.0825 -0.0014
39361OCT     C278722  13.288  10.645  22.312 -0.2396  0.0658 -0.1296
39362OCT     C178723  22.576  16.582  13.091  0.0488 -0.6289  0.1782
39362OCT     C278724  22.559  16.784  13.500  0.1345 -0.2107  0.2026
39363OCT     C178725   2.728  23.421   6.210 -0.3797 -0.4197 -0.1149
39363OCT     C278726   3.044  23.384   6.556 -0.3405  0.5890 -0.0278
39364OCT     C178727  17.793   9.769  16.854  0.2392  0.0573 -0.1736
39364OCT     C278728  17.796   9.301  16.837  0.2699 -0.0047  0.1037
39365OCT     C178729  18.492  20.448   2.675  0.0751  0.0961 -0.1934
39365OCT     C278730  18.694  20.356   2.194  0.0375  0.4176  0.1001
39366OCT     C178731   6.668   4.843  19.799  0.3063 -0.0242 -0.1517
39366OCT     C278732   7.151   4.917  19.731 -0.2669  0.2670  0.1692
39367OCT     C178733   3.141  20.465  15.452 -0.0355  0.0248 -0.0416
39367OCT     C278734   3.316  20.095  15.683  0.0482  0.4632 -0.1541
39368OCT     C178735   0.877  21.759   8.195 -0.1238  0.0615  0.3664
39368OCT     C278736   1.189  21.941   7.964  0.0349  0.3214 -0.3619
39369OCT     C178737   0.392  10.333   5.484  0.5629  0.2283 -0.0456
39369OCT     C278738   0.499  10.721   5.693  0.3628  0.0609 -0.5264
39370OCT     C178739  11.819  16.933  14.708 -0.0936 -0.1287  0.0822
39370OCT     C278740  12.064  17.127  14.364  0.2054 -0.2560 -0.1820
39371OCT     C178741   8.719  14.767  18.084  0.1068  0.0261 -0.4408
39371OCT     C278742   8.803  14.917  18.500 -0.1014 -0.0130 -0.2687
39372OCT     C178743   8.152  16.083   8.527  0.2247  0.0901 -0.3268
39372OCT     C278744   8.508  16.220   8.800 -0.0954  0.3503 -0.0346
39373OCT     C178745  12.126   2.146   2.446 -0.2131 -0.0886 -0.3114
39373OCT     C278746  12.406   2.005   2.770 -0.0043  0.1094  0.1033
39374OCT     C178747   4.129  21.469  15.177  0.4806  0.1678  0.1241
39374OCT     C278748   4.235  21.884  15.035  0.2846  0.2974 -0.0839
39375OCT     C178749  16.951   4.076   6.190 -0.1079  0.1198  0.1422
39375OCT     C278750  16.825   4.454   5.958  0.0383  0.0631 -0.2470
39376OCT     C178751  11.513   1.835  21.200 -0.0959  0.2213  0.2353
39376OCT     C278752  11.819   1.601  21.421 -0.0961  0.2481  0.4903
39377OCT     C178753  15.644  18.580  19.234 -0.1758  0.3603 -0.0242
39377OCT     C278754  15.981  18.828  19.516 -0.2892 -0.0976  0.0724
39378OCT     C178755  20.830  11.916   4.815 -0.1568  0.3543  0.1452
39378OCT     C278756  20.419  12.061   5.059  0.0895  0.1470  0.1197
39379OCT     C178757   4.860   2.192   6.221 -0.1729 -0.2115 -0.0409
39379OCT     C278758   4.662   1.883   6.535  0.0554 -0.0212  0.1240
39380OCT     C178759   7.547   2.406   7.548  0.0955  0.0691  0.0111
39380OCT     C278760   7.385   2.109   7.240 -0.0077  0.0623 -0.0524
39381OCT     C178761   2.430  19.540   3.183  0.0447 -0.0778 -0.0675
39381OCT     C278762   1.992  19.592   3.201 -0.1460 -0.2383  0.4021
39382OCT     C178763  15.014   3.993   2.581 -0.1033 -0.0642 -0.1991
39382OCT     C278764  15.082   3.567   2.770 -0.0960  0.1487 -0.2992
39383OCT     C178765  16.063  16.530  12.155 -0.1872 -0.3483  0.3241
39383OCT     C278766  16.281  16.514  11.707 -0.0843 -0.2036  0.0354
39384OCT     C178767  21.498  22.843  14.475  0.3261  0.0039 -0.1869
39384OCT     C278768  21.707  22.478  14.629  0.4933 -0.0176 -0.3895
39385OCT     C178769   8.303   7.846   9.659  0.3515  0.2530  0.0456
39385OCT     C278770   8.516   7.530   9.345  0.4762  0.0655 -0.2416
39386OCT     C178771  16.053  15.098   7.681 -0.0616 -0.3151  0.1355
39386OCT     C278772  15.741  14.987   8.023  0.0238 -0.0140 -0.1482
39387OCT     C178773   1.022  10.416  11.215 -0.0160  0.0097  0.2582
39387OCT     C278774   0.871  10.546  10.763  0.0538 -0.2093 -0.2116
39388OCT     C178775  20.413  19.910  12.801 -0.0002  0.1564 -0.2646
39388OCT     C278776  20.470  19.869  13.192 -0.0656  0.1827 -0.2734
39389OCT     C178777   3.033   0.846   8.818  0.3024  0.2525  0.1210
39389OCT     C278778   2.786   1.260   8.816 -0.1836  0.0148  0.0528
39390OCT     C178779   8.631  22.314  13.473 -0.3599 -0.2175  0.0136
39390OCT     C278780   8.430  22.060  13.087  0.1820 -0.0055 -0.1329
39391OCT     C178781   6.506  20.111   0.449 -0.0281 -0.1197  0.1412
39391OCT     C278782   6.099  19.979   0.633  0.3744  0.2335 -0.1048
39392OCT     C178783   6.179   3.688  14.199  0.1072  0.1977  0.1730
39392OCT     C278784   6.544   3.424  14.353  0.1067  0.1749 -0.3659
39393OCT     C178785  10.088  18.985  12.359  0.2348 -0.0755  0.2668
39393OCT     C278786  10.000  18.947  12.801  0.1990  0.4280 -0.0835
39394OCT     C178787  14.211  19.285   2.038  0.0996 -0.0051  0.0401
39394OCT     C278788  14.464  19.443   2.404  0.0281 -0.2239 -0.1598
39395OCT     C178789  12.251  11.502  16.836  0.2800 -0.3250  0.1387
39395OCT     C278790  12.184  11.033  16.935  0.3797  0.1641 -0.0076
39396OCT     C178791  13.565  19.020  21.854 -0.3049 -0.2715  0.0805
39396OCT     C278792  13.992  18.881  21.950  0.0159 -0.0707 -0.0207
39397OCT     C178793  23.177  14.821  12.182 -0.2247  0.1104 -0.3509
39397OCT     C278794  23.123  14.594  12.622  0.0481 -0.3768  0.1678
39398OCT     C178795   8.458  23.409   6.059  0.1034 -0.5071  0.0729
39398OCT     C278796   8.591  23.611   6.441  0.0454  0.1285  0.0409
39399OCT     C178797   5.158  14.150  12.069  0.0487  0.2358  0.1763
39399OCT     C278798   4.981  14.095  11.606  0.3107  0.1521  0.1763
39400OCT     C178799  20.487   6.045  14.244  0.1304 -0.2838 -0.0797
39400OCT     C278800  20.547   6.325  13.899  0.3173  0.1378 -0.1231
39401OCT     C178801  18.845  10.577   6.962 -0.3242 -0.0768 -0.0593
39401OCT     C278802  18.488  10.731   6.794  0.1877 -0.1743  0.1244
39402OCT     C178803  16.329  22.831   4.084  0.2361  0.1723 -0.1556
39402OCT     C278804  16.243  22.635   3.640  0.2587 -0.0546  0.1731
39403OCT     C178805  13.095  18.694  16.610 -0.2341  0.0909  0.3020
39403OCT     C278806  12.639  18.706  16.771 -0.2514 -0.2273 -0.0767
39404OCT     C178807   7.758  11.836   6.877 -0.0484 -0.0215 -0.5287
39404OCT     C278808   8.116  12.041   7.108 -0.3704  0.2281  0.3695
39405OCT     C178809  15.094  23.493   7.714 -0.1955  0.0518 -0.0932
39405OCT     C278810  15.463  23.727   7.799 -0.2920  0.2483  0.2798
39406OCT     C178811   1.844  15.724   7.744 -0.0240 -0.1069 -0.0272
39406OCT     C278812   1.865  15.499   7.326 -0.1912 -0.0057 -0.4007
39407OCT     C178813  20.360  21.281   9.331 -0.4391  0.2820 -0.0896
39407OCT     C278814  20.097  21.097   9.035  0.0373 -0.0844  0.0527
39408OCT     C178815  10.568   5.738  20.358 -0.0533 -0.1001  0.1590
39408OCT     C278816  10.594   5.445  20.039  0.2487  0.1235  0.0567
39409OCT     C178817  21.466  12.692   3.162 -0.1187 -0.2684 -0.1757
39409OCT     C278818  21.298  12.465   2.829  0.0354 -0.0593  0.2535
39410OCT     C178819  20.945   5.002  16.818  0.0184  0.0602  0.3638
39410OCT     C278820  20.726   4.602  16.841  0.5431  0.1347  0.3379
39411OCT     C178821  20.115  16.423  20.672  0.1288 -0.0801 -0.0871
39411OCT     C278822  20.521  16.281  20.602 -0.3222  0.0293 -0.1139
39412OCT     C178823  14.824  23.142   9.213  0.1532  0.0854 -0.4598
39412OCT     C278824  14.696  23.422   8.850  0.1858  0.2112  0.0853
39413OCT     C178825   8.525  21.960   1.987 -0.1408  0.4197 -0.1007
39413OCT     C278826   8.984  21.972   2.074  0.4139  0.2355 -0.2808
39414OCT     C178827   9.264   6.594   5.937  0.2652  0.0344  0.0284
39414OCT     C278828   8.789   6.456   5.953 -0.0332 -0.0431  0.0716
39415OCT     C178829  20.046  12.907  16.022  0.0122  0.0013 -0.1565
39415OCT     C278830  20.089  13.048  16.473  0.0209  0.1445  0.1948
39416OCT     C178831  19.165  22.034   1.646 -0.0359  0.0154 -0.1916
39416OCT     C278832  19.190  21.818   1.255 -0.2176  0.0435  0.2011
39417OCT     C178833   8.861  22.086   3.183 -0.2214  0.0327 -0.0473
39417OCT     C278834   8.949  22.515   2.956  0.1547  0.0881 -0.0820
39418OCT     C178835  11.827  10.897   9.455 -0.0816  0.1913 -0.1287
39418OCT     C278836  11.775  11.180   9.829 -0.3035 -0.1270 -0.2677
39419OCT     C178837   5.591  12.202  21.327  0.0222 -0.1437 -0.0101
39419OCT     C278838   5.973  12.113  21.037 -0.2313 -0.0721  0.3559
39420OCT     C178839   5.962   7.731  20.427 -0.0642  0.4704 -0.0803
39420OCT     C278840   6.025   8.217  20.335 -0.0272 -0.2961 -0.2018
39421OCT     C178841   5.648  15.158  20.594  0.1727 -0.0151 -0.1421
39421OCT     C278842   6.164  15.041  20.665  0.0626 -0.0114 -0.1575
39422OCT     C178843  16.473  22.900  18.860 -0.1311  0.1034  0.3332
39422OCT     C278844  16.399  23.228  19.213  0.2248 -0.4123 -0.2355
39423OCT     C178845  22.648   8.763  20.569 -0.0823  0.2758 -0.0859
39423OCT     C278846  23.052   8.832  20.299  0.3410 -0.1246 -0.0953
39424OCT     C178847   1.748   1.906  22.652  0.0225  0.2308  0.0156
39424OCT     C278848   2.105   1.844  22.419 -0.2408  0.0435 -0.2872
39425OCT     C178849   3.110  22.966  16.265  0.0406  0.0852  0.0836
39425OCT     C278850   3.412  22.744  16.475  0.2727 -0.0588  0.0931
39426OCT     C178851  16.437   7.811   6.292  0.1233 -0.1704  0.1280
39426OCT     C278852  16.816   7.830   6.585  0.2372 -0.2126  0.0142
39427OCT     C178853  18.468  11.656  15.766 -0.0872 -0.1522  0.5181
39427OCT     C278854  18.528  11.569  16.202 -0.0637  0.1541 -0.2085
39428OCT     C178855   2.274   2.367  13.547 -0.1527 -0.5887  0.1059
39428OCT     C278856   2.678   2.141  13.665 -0.1420  0.3319  0.0524
39429OCT     C178857  13.840   5.456  10.705  0.1195  0.2040 -0.1115
39429OCT     C278858  13.865   5.821  10.993  0.0726 -0.1030 -0.4494
39430OCT     C178859  10.402   9.076   6.592  0.0569  0.0032  0.0011
39430OCT     C278860  10.029   9.106   6.343 -0.2318 -0.0192 -0.2302
39431OCT     C178861   8.282  13.057   1.333 -0.2442  0.0447  0.0356
39431OCT     C278862   7.864  12.944   1.542 -0.1775 -0.0448 -0.1477
39432OCT     C178863   1.089  15.542  14.983 -0.2066 -0.0574 -0.2046
39432OCT     C278864   1.275  15.076  15.088 -0.0628 -0.3734 -0.1141
39433OCT     C178865  17.863  22.935  16.577 -0.1361  0.0293  0.1157
39433OCT     C278866  17.496  23.064  16.815 -0.3402  0.2899  0.1774
39434OCT     C178867   4.233   7.872   4.099  0.0028  0.0686  0.1707
39434OCT     C278868   4.267   7.785   3.645 -0.2171 -0.1774 -0.1459
39435OCT     C178869  17.895  21.125  22.918 -0.2511  0.1792  0.1028
39435OCT     C278870  18.118  21.440  23.192  0.1089 -0.2299 -0.2737
39436OCT     C178871  13.610   1.233  11.721  0.2050 -0.0299 -0.0609
39436OCT     C278872  13.287   1.006  11.969  0.0232 -0.0543 -0.3205
39437OCT     C178873  13.227  13.150   9.522  0.0989 -0.2052  0.0189
39437OCT     C278874  13.018  12.825   9.751  0.0323  0.0914 -0.1245
39438OCT     C178875   0.970  13.930   0.876 -0.0374 -0.2678  0.0606
39438OCT     C278876   1.316  14.225   0.971  0.3795  0.0598  0.2070
39439OCT     C178877   3.484   6.693   9.861 -0.1212  0.3022 -0.1603
39439OCT     C278878   3.533   6.654   9.351 -0.2774  0.1239 -0.2644
39440OCT     C178879   0.439  21.384   8.392  0.1986 -0.0220  0.0517
39440OCT     C278880   0.369  21.828   8.394  0.0655  0.0034  0.1940
39441OCT     C178881  13.975   1.388   7.728 -0.0959 -0.1175 -0.0154
39441OCT     C278882  14.325   1.683   7.728 -0.0632 -0.3026 -0.1893
39442OCT     C178883  21.942  15.404  18.647 -0.3732  0.1453 -0.1087
39442OCT     C278884  22.303  15.676  18.519  0.0364 -0.0551 -0.2228
39443OCT     C178885  16.419  11.783  13.237 -0.2368  0.0006 -0.1462
39443OCT     C278886  16.853  11.862  13.384 -0.0610 -0.1154 -0.0039
39444OCT     C178887   5.299  12.231  10.992  0.1422  0.2187 -0.2822
39444OCT     C278888   4.941  12.500  11.192  0.0965  0.1623  0.0791
39445OCT     C178889  10.224   7.769  22.833 -0.1215  0.1791  0.1245
39445OCT     C278890  10.704   7.726  22.848  0.0038  0.0243  0.0914
39446OCT     C178891  22.014   8.722  15.328  0.1434 -0.3059 -0.1050
39446OCT     C278892  21.697   8.393  15.474  0.1787  0.2663  0.2302
39447OCT     C178893   2.048  22.953  11.102 -0.0005 -0.2253  0.3092
39447OCT     C278894   2.162  23.184  11.522 -0.0871  0.1952  0.1882
39448OCT     C178895   2.693  23.280   8.775 -0.1599  0.4297 -0.0638
39448OCT     C278896   2.350  23.249   8.457  0.0203  0.1054 -0.1572
39449OCT     C178897  21.246   0.164  15.467 -0.0338 -0.3175  0.2636
39449OCT     C278898  20.814   0.345  15.444  0.3489  0.2155 -0.1481
39450OCT     C178899   5.269  20.619  23.505 -0.1689 -0.2470 -0.0601
39450OCT     C278900   5.168  20.387  23.142  0.2173  0.0725 -0.0210
39451OCT     C178901   1.416   1.377  12.293  0.1516  0.2351  0.0662
39451OCT     C278902   1.850   1.218  12.208  0.2682  0.1670  0.1997
39452OCT     C178903   5.781  21.586  23.622 -0.2402  0.0928 -0.0967
39452OCT     C278904   5.473  21.969  23.634 -0.1263 -0.0194 -0.0050
39453OCT     C178905  13.319  15.953  21.241  0.1375  0.2653 -0.3986
39453OCT     C278906  13.453  16.312  21.401  0.1149 -0.4507  0.1552
39454OCT     C178907  15.426  22.825   1.558  0.0010 -0.0298  0.2988
39454OCT     C278908  15.162  22.458   1.394 -0.1978  0.0182  0.0268
39455OCT     C178909  16.990  13.010  21.423 -0.0197 -0.1845 -0.1582
39455OCT     C278910  16.763  13.275  21.132  0.0635 -0.0159  0.1043
39456OCT     C178911   3.355  23.330  16.590 -0.1084 -0.1154  0.3933
39456OCT     C278912   3.543  23.152  16.951 -0.2134 -0.1568  0.1053
39457OCT     C178913   1.075  14.450  22.893  0.0662  0.0304  0.1153
39457OCT     C278914   1.054  14.869  22.677  0.0948 -0.3867  0.1444
39458OCT     C178915   2.518  21.060  21.686 -0.0494  0.0981  0.0674
39458OCT     C278916   2.189  21.085  21.392 -0.1354 -0.2196  0.1017
39459OCT     C178917  16.409   7.390  11.969 -0.0216 -0.3340  0.0139
39459OCT     C278918  16.415   7.579  11.529 -0.2378  0.2148  0.2347
39460OCT     C178919   9.751   9.294  23.741  0.2969 -0.0294 -0.1127
39460OCT     C278920   9.869   9.626  23.448  0.2121 -0.0665 -0.0071
39461OCT     C178921  19.024   5.278  19.960  0.3387  0.1773  0.1647
39461OCT     C278922  18.553   5.199  19.848 -0.3575  0.2755 -0.0048
39462OCT     C178923   1.462  14.871   3.491 -0.1441 -0.0600  0.0474
39462OCT     C278924   1.119  15.173   3.470 -0.0909 -0.0447  0.1074
39463OCT     C178925  14.213  12.921   2.478 -0.2707 -0.1820 -0.1733
39463OCT     C278926  14.148  12.940   2.056  0.0070 -0.3066 -0.2384
39464OCT     C178927   9.212  14.551  11.436  0.0611  0.2154 -0.0191
39464OCT     C278928   8.895  14.825  11.668 -0.0442 -0.0951 -0.0394
39465OCT     C178929  13.707  13.921   2.765  0.3849 -0.0638  0.0844
39465OCT     C278930  14.144  14.049   2.488  0.0756  0.0377 -0.0858
39466OCT     C178931  16.820  21.937  23.014  0.1889  0.0247  0.2932
39466OCT     C278932  16.818  21.918  23.468 -0.2164 -0.0740  0.0502
39467OCT     C178933  22.234   5.711   9.745  0.2215 -0.3933  0.1228
39467OCT     C278934  22.479   5.455  10.057 -0.3654 -0.1694  0.2343
39468OCT     C178935   2.702  11.119   2.027  0.0761  0.2805  0.1382
39468OCT     C278936   3.031  11.446   2.111 -0.0937 -0.4514  0.1547
39469OCT     C178937   0.613  22.856  12.005 -0.1099 -0.0072  0.0894
39469OCT     C278938   0.300  22.750  12.327  0.2699 -0.0820 -0.0889
39470OCT     C178939   5.440  22.071   3.163  0.2619 -0.4103  0.1410
39470OCT     C278940   4.999  22.212   3.308 -0.0387 -0.3520 -0.1036
39471OCT     C178941  14.784   6.246  15.986 -0.1130 -0.3484 -0.3006
39471OCT     C278942  14.929   6.093  15.590 -0.1172  0.0170  0.0135
39472OCT     C178943   0.563   8.182   7.023  0.1821 -0.3431 -0.1708
39472OCT     C278944   0.506   8.506   7.380  0.4587 -0.0513  0.1118
39473OCT     C178945   5.530  14.156   0.471 -0.2948  0.0645 -0.0754
39473OCT     C278946   5.540  13.946   0.081 -0.1111 -0.1332  0.0635
39474OCT     C178947   1.820   8.182   2.998 -0.0828 -0.1961  0.3432
39474OCT     C278948   1.573   8.131   3.328  0.2639  0.0613 -0.2397
39475OCT     C178949   7.717   0.489   3.295 -0.0265  0.0479  0.2868
39475OCT     C278950   7.775   0.387   2.824  0.1187 -0.1402  0.2323
39476OCT     C178951   8.712  22.598   6.716  0.1254 -0.0127  0.0013
39476OCT     C278952   8.554  22.689   7.137  0.4115  0.0900 -0.1137
39477OCT     C178953   4.931   0.549  20.785 -0.3147 -0.1787 -0.0144
39477OCT     C278954   5.218   0.123  20.776  0.1494 -0.1363  0.0827
39478OCT     C178955  12.878   4.100   1.129  0.2158 -0.1403 -0.1105
39478OCT     C278956  12.704   4.243   1.561  0.1588  0.1013 -0.1156
39479OCT     C178957  16.657  21.748   9.528  0.1603  0.1793  0.2541
39479OCT     C278958  16.693  21.289   9.557  0.1356  0.0956  0.0507
39480OCT     C178959  12.102   0.895   6.483 -0.1083  0.3454 -0.0087
39480OCT     C278960  12.412   1.255   6.452 -0.1783  0.3237  0.1661
39481OCT     C178961   7.513  14.336   8.586 -0.3266 -0.2003 -0.0263
39481OCT     C278962   7.664  14.060   8.242  0.0806 -0.1760  0.2782
39482OCT     C178963  19.911  20.386  18.933  0.1617 -0.0533  0.3017
39482OCT     C278964  20.089  20.231  19.349  0.1783  0.2116  0.0095
39483OCT     C178965   3.217  13.185  10.191 -0.2467 -0.3158 -0.0711
39483OCT     C278966   2.846  13.283   9.971  0.2415  0.1666 -0.1943
39484OCT     C178967   4.400  22.058   9.689 -0.0054  0.0069  0.4167
39484OCT     C278968   4.493  21.985  10.078  0.0529 -0.3322  0.4014
39485OCT     C178969   7.091  17.197  20.577 -0.2218 -0.0887  0.1395
39485OCT     C278970   6.705  17.420  20.636  0.1852 -0.1710  0.0285
39486OCT     C178971  16.801   7.369   3.319  0.0797  0.0534 -0.3565
39486OCT     C278972  16.669   7.430   2.914 -0.1198 -0.1397  0.0846
39487OCT     C178973  22.255  15.490  12.076  0.1178 -0.0073 -0.0620
39487OCT     C278974  21.959  15.636  12.399 -0.3789  0.0212 -0.2786
39488OCT     C178975  13.380   5.708   7.827 -0.0273  0.3270 -0.1074
39488OCT     C278976  13.468   5.600   8.234  0.0781 -0.0724  0.1060
39489OCT     C178977  14.085   1.116   0.295 -0.0448  0.2919 -0.3661
39489OCT     C278978  13.754   1.320   0.562 -0.0659  0.1491  0.4587
39490OCT     C178979  12.300  10.172   3.732 -0.4412 -0.0254 -0.1114
39490OCT     C278980  12.003   9.995   3.448 -0.1332  0.1212  0.1712
39491OCT     C178981  19.384  12.855   2.933  0.3277  0.2188  0.2093
39491OCT     C278982  19.544  12.422   2.912 -0.1383  0.4211 -0.1189
39492OCT     C178983   5.020   9.336   0.480  0.1408 -0.1231 -0.0449
39492OCT     C278984   5.258   8.981   0.647  0.1263 -0.1722  0.1727
39493OCT     C178985  17.225  20.838   8.417 -0.0625  0.3023  0.2941
39493OCT     C278986  17.103  20.517   8.703 -0.0221 -0.3104 -0.1836
39494OCT     C178987   1.017  23.033  22.814  0.2476 -0.0499  0.1365
39494OCT     C278988   0.674  22.851  22.585 -0.2262  0.3976 -0.1019
39495OCT     C178989   7.369  14.891  14.842  0.2021  0.0888  0.2393
39495OCT     C278990   7.762  14.933  15.119  0.1403 -0.1140  0.0375
39496OCT     C178991  14.117   8.528  10.049  0.2178 -0.0620  0.1918
39496OCT     C278992  13.729   8.259  10.062 -0.1090 -0.0118 -0.0033
39497OCT     C178993  15.255  20.746  15.380 -0.1600  0.1345  0.0289
39497OCT     C278994  14.874  20.539  15.325 -0.1304 -0.0645 -0.5190
39498OCT     C178995  16.289   5.612  22.702 -0.5028  0.0903 -0.1444
39498OCT     C278996  16.579   5.451  23.035  0.1476  0.0186 -0.1674
39499OCT     C178997  11.168  10.647  20.715 -0.0921  0.0141  0.1982
39499OCT     C278998  11.310  10.737  20.236 -0.0733 -0.3899  0.3501
39500OCT     C178999  19.071   0.176   4.582  0.0032  0.0959 -0.4649
39500OCT     C279000  19.445   0.269   4.552  0.0676  0.0490  0.2571
39501OCT     C179001  11.534   6.982  11.706  0.1422  0.1168 -0.0736
39501OCT     C279002  11.257   7.377  11.518 -0.0090 -0.0326 -0.1383
39502OCT     C179003  18.678  12.513  18.154 -0.1965  0.1026  0.2854
39502OCT     C279004  18.386  12.225  18.320 -0.0338 -0.0398  0.3812
39503OCT     C179005  17.537  14.884  12.368 -0.1175  0.0088 -0.0905
39503OCT     C279006  17.155  14.701  12.295  0.1374 -0.2081 -0.1475
39504OCT     C179007  15.827   9.853  15.497  0.2340 -0.3404 -0.1938
39504OCT     C279008  16.038  10.182  15.735  0.0837 -0.1174 -0.3376
39505OCT     C179009  10.770   8.921   7.944  0.0108 -0.0498 -0.0413
39505OCT     C279010  10.892   8.475   7.935 -0.1088 -0.0096 -0.1383
39506OCT     C179011   5.525  18.446  15.046  0.1963  0.2068 -0.2319
39506OCT     C279012   5.252  18.222  15.405  0.4732  0.0291  0.0955
39507OCT     C179013  13.713  14.694  18.354 -0.0917  0.0395  0.1836
39507OCT     C279014  13.676  15.039  18.068 -0.1733  0.1266 -0.1876
39508OCT     C179015   6.617  18.635   1.723  0.2326 -0.2736  0.2093
39508OCT     C279016   6.651  18.846   1.331 -0.0403 -0.2887 -0.0350
39509OCT     C179017  10.043   1.338  11.649  0.0804  0.4238  0.1609
39509OCT     C279018  10.249   1.367  11.256  0.1459  0.3765 -0.0951
39510OCT     C179019  22.787  22.001   0.533  0.2841  0.0800 -0.1168
39510OCT     C279020  22.974  22.444   0.435  0.3491  0.2079 -0.0063
39511OCT     C179021  19.122  23.173   8.027  0.2514 -0.4054  0.0474
39511OCT     C279022  19.421  23.225   7.695 -0.2727  0.3119  0.2348
39512OCT     C179023  10.722   7.889  16.953 -0.2176  0.1942 -0.0821
39512OCT     C279024  10.504   7.644  17.310 -0.1412  0.3704  0.0392
39513OCT     C179025  20.543  20.663  15.477  0.2962 -0.2983 -0.0392
39513OCT     C279026  20.093  20.565  15.502  0.2990  0.0228 -0.0559
39514OCT     C179027  13.070   6.592  16.136 -0.1237  0.1880 -0.0170
39514OCT     C279028  12.619   6.843  16.158 -0.3631 -0.3175 -0.2278
39515OCT     C179029  23.510   3.424  17.600  0.1510 -0.0112  0.0026
39515OCT     C279030  23.343   3.129  17.963 -0.1284 -0.0106 -0.2476
39516OCT     C179031   7.894  22.095   8.770  0.0677 -0.1814  0.1625
39516OCT     C279032   8.134  22.402   8.998 -0.1850 -0.2804  0.1738
39517OCT     C179033   9.433  17.512  10.647  0.0171 -0.1282 -0.1588
39517OCT     C279034   9.103  17.660  10.394 -0.3214  0.1501  0.1988
39518OCT     C179035   8.368  11.461  17.529 -0.0945 -0.2941 -0.2232
39518OCT     C279036   8.054  11.219  17.233  0.2557  0.3938  0.0181
39519OCT     C179037   6.355   6.070   0.575 -0.0072  0.0384  0.1577
39519OCT     C279038   6.243   5.718   0.874 -0.0042  0.1872 -0.1890
39520OCT     C179039   2.619  13.382   5.866  0.0957  0.4168 -0.2813
39520OCT     C279040   2.572  13.776   5.594 -0.1141  0.0980  0.1215
39521OCT     C179041  20.571  15.657  20.211  0.0311 -0.3810 -0.1009
39521OCT     C279042  20.482  15.333  19.850 -0.0587  0.3969 -0.3160
39522OCT     C179043  22.179   0.416  13.326 -0.1016  0.1695  0.2157
39522OCT     C279044  21.753   0.312  13.160 -0.1484  0.0369  0.3760
39523OCT     C179045  18.717  17.123  22.401 -0.1263  0.2769 -0.0832
39523OCT     C279046  18.447  17.448  22.360  0.1772  0.2251  0.1713
39524OCT     C179047  11.636   7.333  15.922  0.3872 -0.2792 -0.0949
39524OCT     C279048  11.880   7.774  16.053 -0.2377 -0.0575 -0.0717
39525OCT     C179049   6.135   7.117   7.395 -0.3044 -0.0906 -0.2097
39525OCT     C279050   6.382   6.861   7.698  0.1373 -0.1775 -0.2087
39526OCT     C179051   9.790  20.824  23.002  0.1371  0.3130 -0.2934
39526OCT     C279052  10.165  20.887  23.275 -0.0006 -0.1515  0.0759
39527OCT     C179053   9.401  10.851  13.347 -0.3240 -0.3976 -0.3559
39527OCT     C279054   9.829  11.067  13.404 -0.2817 -0.0807 -0.1505
39528OCT     C179055   4.498  20.411  10.976 -0.1249  0.0036  0.2037
39528OCT     C279056   4.379  19.979  10.866 -0.0742 -0.1426  0.1324
39529OCT     C179057  23.386   8.340  14.337  0.3863 -0.1970  0.1982
39529OCT     C279058  23.346   7.897  14.511  0.1254 -0.0312 -0.1397
39530OCT     C179059   8.656  19.386   0.672 -0.0328  0.4854  0.0143
39530OCT     C279060   8.330  19.109   0.539  0.3569 -0.0801  0.1493
39531OCT     C179061   7.118  12.688  13.528  0.1020  0.0930  0.0985
39531OCT     C279062   7.533  12.404  13.443  0.3107  0.2778  0.1619
39532OCT     C179063  19.501   1.279  22.778 -0.2591  0.3821  0.1592
39532OCT     C279064  19.621   1.707  22.619  0.0513  0.0712 -0.2296
39533OCT     C179065   1.667  10.135  16.167  0.0261  0.2913 -0.3161
39533OCT     C279066   2.086  10.332  16.003  0.1125 -0.1586 -0.1930
39534OCT     C179067   6.714  17.324  12.671 -0.1719  0.3555 -0.3001
39534OCT     C279068   7.199  17.416  12.629 -0.3737 -0.0498  0.0228
39535OCT     C179069  22.551  10.695   0.618  0.0584 -0.0527 -0.0938
39535OCT     C279070  22.170  10.641   0.866 -0.1106 -0.2297  0.2485
39536OCT     C179071   5.808   3.219  19.346  0.0424  0.3741  0.3712
39536OCT     C279072   5.898   3.598  19.665  0.0196  0.1424 -0.0412
39537OCT     C179073  15.297  21.665   8.489  0.2843 -0.0299  0.3070
39537OCT     C279074  14.981  21.766   8.826  0.1746  0.5848 -0.0661
39538OCT     C179075  21.209  14.931   1.826 -0.0005 -0.3572  0.0596
39538OCT     C279076  20.886  15.143   2.128 -0.3484  0.1112  0.1044
39539OCT     C179077   4.691  16.497  10.113  0.0194  0.0608  0.1312
39539OCT     C279078   4.490  16.597  10.507 -0.2172  0.1086 -0.0925
39540OCT     C179079  13.614   4.876  21.060  0.1778 -0.1451  0.2384
39540OCT     C279080  13.389   5.140  20.725 -0.2149  0.3517 -0.0512
39541OCT     C179081  21.418   1.267  10.887 -0.0553  0.2085 -0.3453
39541OCT     C279082  21.597   1.334  10.459  0.1299  0.2035  0.1561
39542OCT     C179083   1.125  12.302  16.602  0.1721  0.2884 -0.0396
39542OCT     C279084   0.798  11.994  16.452 -0.0170  0.0027  0.0662
39543OCT     C179085   8.304   3.555   5.458  0.1982 -0.2232  0.1940
39543OCT     C279086   8.164   3.937   5.188  0.1342  0.4721  0.4426
39544OCT     C179087   0.306  11.811  21.094 -0.1044  0.0259  0.3492
39544OCT     C279088   0.396  11.362  20.954 -0.3850  0.1412  0.0218
39545OCT     C179089   2.951  20.927  22.459  0.0752  0.0202 -0.1903
39545OCT     C279090   3.148  21.242  22.189  0.0834  0.1260 -0.1939
39546OCT     C179091  13.863   3.595   9.959  0.1326  0.2564 -0.0427
39546OCT     C279092  13.904   3.244   9.639  0.1359 -0.1375 -0.0982
39547OCT     C179093  20.522   0.491   1.698 -0.0599 -0.1259 -0.1037
39547OCT     C279094  20.204   0.652   2.033  0.3468  0.1867  0.1809
39548OCT     C179095   6.866  15.648  19.477  0.3416 -0.0383 -0.0265
39548OCT     C279096   6.716  15.245  19.518  0.4557  0.0776  0.0567
39549OCT     C179097  13.539   5.115   0.547 -0.3217  0.2231 -0.1306
39549OCT     C279098  13.492   5.133   0.048 -0.2016  0.0856  0.1383
39550OCT     C179099   8.242   7.401  23.288  0.2347 -0.3272  0.2168
39550OCT     C279100   8.530   7.779  23.533 -0.2562  0.0228 -0.0821
39551OCT     C179101   9.833   4.846   5.565 -0.1384 -0.1458  0.0902
39551OCT     C279102  10.321   4.916   5.440 -0.2396  0.1569 -0.0016
39552OCT     C179103  19.080  17.056  18.639 -0.3144 -0.1340  0.1447
39552OCT     C279104  19.379  17.373  18.828  0.3429  0.4202 -0.2675
39553OCT     C179105   6.165  13.891  10.523  0.4806 -0.0726 -0.1520
39553OCT     C279106   6.022  13.964  10.974  0.0630  0.0280 -0.1307
39554OCT     C179107   4.505  18.416  10.673 -0.0608 -0.1288 -0.1238
39554OCT     C279108   4.746  18.532  10.251  0.1549 -0.2615  0.0084
39555OCT     C179109  22.391   1.785  14.773  0.3460  0.1385 -0.4270
39555OCT     C279110  22.140   1.529  14.510 -0.0479  0.0659  0.4761
39556OCT     C179111  13.801  10.605   3.293  0.0170  0.1580 -0.1458
39556OCT     C279112  13.553  10.333   3.585 -0.1988  0.4041 -0.1364
39557OCT     C179113  12.238  12.311   1.910  0.0247  0.1082  0.0331
39557OCT     C279114  11.790  12.174   2.104 -0.2458 -0.1252 -0.1056
39558OCT     C179115   5.356  13.248   9.255  0.1754  0.1855  0.4160
39558OCT     C279116   5.776  13.068   9.042 -0.4806  0.0860 -0.0389
39559OCT     C179117   8.308  14.475  17.170 -0.2614 -0.3514 -0.1910
39559OCT     C279118   8.732  14.327  17.015  0.0709  0.0941  0.1198
39560OCT     C179119   3.562   2.485  23.153  0.0161  0.0485 -0.1007
39560OCT     C279120   3.595   2.602  23.588 -0.0446  0.3013 -0.0906
39561OCT     C179121   9.389   0.266  12.740 -0.0159 -0.1548 -0.0180
39561OCT     C279122   9.673   0.135  12.381  0.1702 -0.1074  0.3242
39562OCT     C179123  10.966  10.559  18.564  0.0020 -0.0281 -0.0423
39562OCT     C279124  11.229  10.759  18.286 -0.1361  0.1610 -0.0380
39563OCT     C179125   8.516  11.808  17.137  0.0147  0.0671  0.0051
39563OCT     C279126   8.222  12.081  16.818  0.3900 -0.2955  0.1955
39564OCT     C179127  17.617  16.946   6.583  0.1480 -0.0072 -0.1487
39564OCT     C279128  17.236  17.261   6.542  0.0646 -0.1063  0.1204
39565OCT     C179129  21.653   1.270  11.908 -0.3614 -0.2423 -0.3191
39565OCT     C279130  21.702   1.770  11.844 -0.0841  0.0877  0.0995
39566OCT     C179131   2.881   0.427  22.738 -0.0384 -0.1048 -0.0685
39566OCT     C279132   3.141   0.272  22.421  0.0729  0.0169 -0.4098
39567OCT     C179133  16.209  23.020   6.691 -0.0298 -0.0865 -0.3218
39567OCT     C279134  16.273  22.762   6.311  0.2016  0.1865 -0.2858
39568OCT     C179135   6.347   7.436   2.754  0.2507  0.4982  0.1624
39568OCT     C279136   6.326   7.092   3.003 -0.2400 -0.0123  0.0146
39569OCT     C179137   5.379   9.706  16.234  0.0013 -0.0634  0.0353
39569OCT     C279138   5.163   9.744  16.667 -0.1120  0.0249 -0.1633
39570OCT     C179139  11.562  14.779   0.434  0.2306 -0.4460  0.3227
39570OCT     C279140  11.701  15.185   0.271 -0.0126 -0.0634 -0.1761
39571OCT     C179141  15.149   0.350   0.820 -0.2110 -0.1952  0.1323
39571OCT     C279142  15.199   0.816   0.746 -0.0300  0.3356  0.1679
39572OCT     C179143  19.519  11.854  15.296 -0.2673 -0.0703 -0.2461
39572OCT     C279144  19.722  11.581  14.991 -0.2143  0.0991  0.3229
39573OCT     C179145  17.172   6.626  23.578 -0.1180 -0.0851 -0.1485
39573OCT     C279146  16.830   6.410  23.323  0.0439 -0.0350 -0.2795
39574OCT     C179147  14.733   5.622   5.292  0.1671 -0.5470 -0.3321
39574OCT     C279148  14.899   6.002   5.103  0.0815  0.4345  0.0549
39575OCT     C179149  11.793  22.014   6.916  0.2013 -0.1858  0.1392
39575OCT     C279150  12.150  21.960   7.192  0.0638 -0.2357  0.0414
39576OCT     C179151  17.490  12.329  16.881 -0.2088 -0.0577 -0.3842
39576OCT     C279152  17.469  12.655  17.227 -0.2476 -0.2200  0.1753
39577OCT     C179153   2.248  21.154  10.778  0.3179  0.5554  0.0472
39577OCT     C279154   2.444  21.117  10.403  0.0875 -0.1169  0.0304
39578OCT     C179155  10.334  17.733  22.644  0.0655  0.2673 -0.4868
39578OCT     C279156  10.535  17.692  22.237  0.2439 -0.0320  0.2096
39579OCT     C179157   2.973   2.285   4.488 -0.0227 -0.2723  0.1948
39579OCT     C279158   3.048   1.872   4.714 -0.1799 -0.1641 -0.1645
39580OCT     C179159   9.558  10.168   9.217 -0.4785 -0.2070 -0.1211
39580OCT     C279160   9.124  10.281   9.338  0.0874 -0.4366 -0.2953
39581OCT     C179161  18.304  20.013  14.042  0.0865 -0.5461  0.0906
39581OCT     C279162  18.315  19.553  13.967 -0.1746  0.5403  0.2450
39582OCT     C179163   4.897   9.057   4.953 -0.0861 -0.1482  0.1116
39582OCT     C279164   4.770   8.737   4.714  0.0567 -0.2640 -0.0586
39583OCT     C179165   2.812   9.869   4.981  0.0446  0.2189 -0.2127
39583OCT     C279166   3.079  10.177   4.746 -0.0024 -0.1898  0.1514
39584OCT     C179167  19.004  22.915   4.197 -0.1226  0.2594 -0.0078
39584OCT     C279168  19.131  22.856   3.765  0.0613  0.1203 -0.3405
39585OCT     C179169  10.107   9.543   4.741 -0.2821 -0.2336  0.0461
39585OCT     C279170  10.344   9.897   4.510 -0.3033 -0.3134 -0.1979
39586OCT     C179171   4.228  22.042   3.635  0.0513  0.1043  0.3408
39586OCT     C279172   3.825  22.009   3.838 -0.0059  0.0122  0.1547
39587OCT     C179173   6.242  12.316   4.501  0.5436  0.4053  0.1627
39587OCT     C279174   5.941  12.402   4.182 -0.1734  0.3038  0.3031
39588OCT     C179175  11.811  17.885  21.460 -0.1874  0.2487  0.3166
39588OCT     C279176  11.736  18.201  21.098  0.1081 -0.0534  0.1306
39589OCT     C179177   8.062  16.522   0.863  0.3831  0.0534 -0.1219
39589OCT     C279178   8.176  16.471   0.381 -0.3752 -0.2849 -0.0212
39590OCT     C179179  21.069   6.070   5.828 -0.0206 -0.4266 -0.0942
39590OCT     C279180  20.841   6.455   5.661 -0.6607  0.0277  0.1537
39591OCT     C179181   1.935   1.147  21.461  0.1729  0.0181  0.4493
39591OCT     C279182   1.563   1.465  21.376 -0.0683  0.4215  0.0846
39592OCT     C179183   9.327  17.605   5.349 -0.2107  0.1084 -0.1139
39592OCT     C279184   9.566  17.516   4.913  0.2443  0.1751  0.3313
39593OCT     C179185   2.233   0.745   1.374 -0.1590 -0.0005  0.0477
39593OCT     C279186   2.666   0.616   1.279 -0.1181 -0.0002  0.2557
39594OCT     C179187   1.658  17.701  15.855  0.0783  0.0630 -0.0196
39594OCT     C279188   2.012  17.704  16.180  0.1708  0.6838  0.0941
39595OCT     C179189   5.385  17.954  22.988 -0.0582 -0.0699 -0.0346
39595OCT     C279190   5.174  17.616  22.696  0.2346  0.1555 -0.3255
39596OCT     C179191  21.129  17.706  15.512 -0.3457 -0.2100 -0.0657
39596OCT     C279192  21.262  17.938  15.914 -0.2989 -0.0030  0.1002
39597OCT     C179193  23.034  15.505   6.301  0.3129  0.0413 -0.1468
39597OCT     C279194  22.917  15.097   6.375  0.1568  0.4912 -0.2577
39598OCT     C179195  21.856   6.020  15.823  0.2473  0.0033 -0.3245
39598OCT     C279196  21.877   5.565  15.786 -0.0851 -0.1031 -0.0206
39599OCT     C179197  18.609  19.822  16.835 -0.2028  0.1238  0.0293
39599OCT     C279198  18.418  20.227  17.054 -0.1970  0.5302  0.0561
39600OCT     C179199   6.990  19.370   5.843  0.3412  0.5375 -0.0853
39600OCT     C279200   6.609  19.235   5.700 -0.1966  0.0436  0.1008
39601OCT     C179201  19.406  15.441  12.343  0.1563  0.2102 -0.2666
39601OCT     C279202  19.354  15.003  12.588 -0.0966 -0.0376  0.0656
39602OCT     C179203  16.320  19.480  16.863  0.1332 -0.1305  0.3016
39602OCT     C279204  16.238  19.935  16.683 -0.1524  0.1452 -0.0234
39603OCT     C179205  11.576  17.607  18.956 -0.1376  0.0067 -0.3214
39603OCT     C279206  11.889  17.980  18.936 -0.1828  0.1514 -0.2904
39604OCT     C179207  23.569   0.800  13.112  0.2422 -0.1090  0.0255
39604OCT     C279208  23.709   0.938  12.713  0.1576 -0.2746  0.6144
39605OCT     C179209   8.992  17.012   3.536  0.2345 -0.2349 -0.0994
39605OCT     C279210   9.152  17.053   3.960  0.1049  0.2851 -0.0287
39606OCT     C179211   7.035   0.997  12.428 -0.0682  0.1375  0.1568
39606OCT     C279212   6.580   1.164  12.558 -0.1057  0.1876  0.1888
39607OCT     C179213  10.780  12.922   3.443  0.1913 -0.2541 -0.3944
39607OCT     C279214  10.965  13.173   3.069  0.0972 -0.2619 -0.1293
39608OCT     C179215  20.616  14.240   1.782 -0.1231  0.2920  0.1659
39608OCT     C279216  20.161  14.220   1.611 -0.1047 -0.3644 -0.0816
39609OCT     C179217  20.677  13.032  18.976 -0.1682 -0.1345 -0.2334
39609OCT     C279218  21.062  13.284  18.892  0.0523 -0.1929 -0.2015
39610OCT     C179219   3.296   5.906   2.717 -0.0703 -0.1429 -0.1460
39610OCT     C279220   3.047   6.201   2.992 -0.0782  0.3427  0.1250
39611OCT     C179221  18.429  22.090  16.327  0.2484  0.0209 -0.1010
39611OCT     C279222  18.790  22.355  16.417 -0.1593  0.0651  0.1073
39612OCT     C179223   0.337  19.867  13.950  0.2580 -0.1836 -0.3246
39612OCT     C279224   0.286  19.420  13.982  0.0514  0.3483 -0.2315
39613OCT     C179225  15.174  18.461   6.741 -0.2352 -0.0333 -0.0979
39613OCT     C279226  14.826  18.431   7.020 -0.1527  0.1919  0.0094
39614OCT     C179227   2.714  18.398  22.469  0.1791  0.2560  0.2192
39614OCT     C279228   2.860  18.490  22.870 -0.1190  0.0553 -0.0089
39615OCT     C179229   1.506  18.306  17.574 -0.0372 -0.2563 -0.0136
39615OCT     C279230   1.135  18.558  17.691  0.1159 -0.0854 -0.1338
39616OCT     C179231   1.517  19.988   3.913  0.0911  0.0659  0.0846
39616OCT     C279232   1.368  20.441   3.826 -0.0831 -0.2761 -0.3790
39617OCT     C179233  14.163   3.668  13.561  0.0509  0.0467  0.1250
39617OCT     C279234  14.156   3.248  13.395  0.0115  0.0922  0.3307
39618OCT     C179235  10.262  11.375  23.667  0.1838  0.1987 -0.2254
39618OCT     C279236   9.832  11.575  23.505  0.0449  0.0762  0.0474
39619OCT     C179237  21.109  22.308   1.192 -0.1568 -0.0078 -0.2809
39619OCT     C279238  20.816  22.075   1.487  0.0064  0.2189 -0.0190
39620OCT     C179239  19.075  16.180  10.730  0.1582  0.1028  0.0027
39620OCT     C279240  19.173  16.292  11.143  0.2494  0.3512  0.1267
39621OCT     C179241  11.761  10.116   1.274 -0.1614  0.0911  0.2223
39621OCT     C279242  12.126  10.040   0.962 -0.0588 -0.0456 -0.1979
39622OCT     C179243   7.466   5.522  10.258 -0.2246 -0.1793  0.2639
39622OCT     C279244   7.421   5.596   9.762 -0.1119 -0.2329 -0.0981
39623OCT     C179245   1.944  11.345  22.872 -0.0052 -0.2283  0.2487
39623OCT     C279246   2.318  11.076  22.874 -0.1743  0.2351  0.1688
39624OCT     C179247  21.718  12.713  10.215 -0.0798  0.1533  0.3909
39624OCT     C279248  21.625  13.185  10.217 -0.0808 -0.1707 -0.0942
39625OCT     C179249   8.839  20.575   2.715  0.0102  0.4388  0.2220
39625OCT     C279250   8.765  20.132   2.881  0.1061  0.2051  0.4303
39626OCT     C179251   3.870   2.613  12.582  0.0534 -0.1046  0.0664
39626OCT     C279252   4.144   2.671  12.257  0.1957  0.4277  0.2412
39627OCT     C179253  10.854  22.314  13.607  0.1885 -0.2740 -0.0942
39627OCT     C279254  10.727  22.234  14.059 -0.0769 -0.2132 -0.0422
39628OCT     C179255   1.740   9.947   2.190 -0.0417  0.2907  0.0375
39628OCT     C279256   2.097   9.662   2.335 -0.0355  0.0076 -0.2753
39629OCT     C179257   1.141   2.866  13.075 -0.2155 -0.0417 -0.1416
39629OCT     C279258   1.414   2.493  13.240  0.3914  0.1523  0.4615
39630OCT     C179259  22.151  20.457   7.169 -0.0573 -0.2706  0.2352
39630OCT     C279260  21.883  20.728   7.416  0.2273 -0.0084  0.1323
39631OCT     C179261  11.660   5.076  19.362 -0.2846 -0.3191 -0.1561
39631OCT     C279262  11.608   5.557  19.414 -0.0481 -0.1780 -0.0508
39632OCT     C179263   9.145  10.736  20.929  0.4011  0.0042 -0.0663
39632OCT     C279264   9.029  10.944  20.567  0.1644  0.0504  0.0702
39633OCT     C179265   8.581  18.730  22.238  0.0877  0.0133 -0.1867
39633OCT     C279266   8.451  19.226  22.191 -0.1874 -0.2394 -0.0383
39634OCT     C179267  16.676  22.556   5.335 -0.2246 -0.0397  0.2346
39634OCT     C279268  16.991  22.294   5.478 -0.1098 -0.1750  0.1519
39635OCT     C179269  18.146   6.088  20.627 -0.1069  0.2765 -0.0339
39635OCT     C279270  18.407   6.246  21.014 -0.0307  0.2653 -0.1522
39636OCT     C179271   5.018  10.436  18.816  0.0844  0.3101 -0.3502
39636OCT     C279272   4.795  10.724  18.567  0.1372  0.0880 -0.1164
39637OCT     C179273   5.759   7.099   7.744 -0.4890  0.0435 -0.1764
39637OCT     C279274   5.372   7.264   7.672  0.2835  0.1203 -0.1769
39638OCT     C179275   1.624   6.884   3.705  0.0630  0.0133  0.1794
39638OCT     C279276   1.460   7.253   3.939 -0.0044  0.0378  0.1241
39639OCT     C179277  10.740  16.057  21.644  0.2622  0.2346 -0.2629
39639OCT     C279278  10.932  16.394  21.402  0.0957  0.1984 -0.0297
39640OCT     C179279  16.269  16.904   7.586  0.2178 -0.1968  0.1526
39640OCT     C279280  16.727  16.687   7.563 -0.0261 -0.0543  0.2610
39641OCT     C179281   2.722  18.493  16.690 -0.1673  0.1847 -0.0979
39641OCT     C279282   2.966  18.646  16.412 -0.1801 -0.4284  0.3735
39642OCT     C179283   8.558   2.465  10.310  0.0062  0.0458  0.1820
39642OCT     C279284   8.738   2.801  10.627 -0.3627 -0.2371  0.5770
39643OCT     C179285   0.465  16.019   4.411 -0.1340  0.0232 -0.0793
39643OCT     C279286   0.206  15.692   4.507  0.1702  0.0063 -0.5184
39644OCT     C179287  21.394  10.028   8.379 -0.2015  0.1235  0.2496
39644OCT     C279288  21.239  10.170   8.794 -0.2433  0.4159  0.2079
39645OCT     C179289   4.633  12.153  14.960 -0.0808 -0.1659 -0.1703
39645OCT     C279290   4.175  12.200  14.841  0.3193 -0.2545  0.2146
39646OCT     C179291  22.318  18.804  12.416  0.0290 -0.0781  0.1931
39646OCT     C279292  22.396  18.370  12.275 -0.3444 -0.1889 -0.1380
39647OCT     C179293  11.303   1.486  13.573  0.2072  0.0804 -0.1011
39647OCT     C279294  11.172   1.563  13.987 -0.2768  0.1008 -0.2847
39648OCT     C179295   4.342   0.482   8.373 -0.1121 -0.0279  0.3130
39648OCT     C279296   4.284   0.707   7.901  0.2403  0.1096 -0.0957
39649OCT     C179297   2.528   9.219  11.629 -0.4291 -0.0455 -0.1017
39649OCT     C279298   2.879   9.231  11.962  0.0006 -0.3531 -0.0252
39650OCT     C179299  15.644  12.243  14.839  0.3233  0.0502  0.1510
39650OCT     C279300  15.720  11.830  14.555  0.2257  0.0938 -0.0293
39651OCT     C179301  20.220   8.639   8.073  0.1996 -0.2653 -0.4127
39651OCT     C279302  20.628   8.911   8.127 -0.0543  0.2246 -0.0254
39652OCT     C179303  12.438  18.569  20.447 -0.4902 -0.2449  0.1916
39652OCT     C279304  12.667  18.571  20.060  0.2899  0.2997  0.1886
39653OCT     C179305   0.021  18.969  20.607  0.0525 -0.0693  0.1266
39653OCT     C279306   0.266  19.289  20.856  0.1490  0.0565  0.0431
39654OCT     C179307  16.802  21.843  16.250  0.0683  0.0087 -0.2736
39654OCT     C279308  16.710  21.944  15.832  0.0179 -0.0037 -0.1382
39655OCT     C179309  22.061   3.568   3.994 -0.0005  0.0292 -0.0962
39655OCT     C279310  21.869   3.481   3.528 -0.1500  0.2741  0.0147
39656OCT     C179311   8.477   1.974  20.381 -0.3290 -0.0161  0.0342
39656OCT     C279312   8.812   1.702  20.355 -0.0571 -0.1601 -0.0610
39657OCT     C179313   7.096   3.449  11.888 -0.0450  0.0384  0.1607
39657OCT     C279314   7.217   3.129  12.227 -0.3901 -0.1557  0.1431
39658OCT     C179315  19.745   7.258  14.577  0.1042 -0.4325 -0.0580
39658OCT     C279316  19.552   7.677  14.543  0.2140 -0.0659 -0.0733
39659OCT     C179317   1.198  14.645  14.754  0.5205  0.0357  0.1566
39659OCT     C279318   1.146  15.028  14.441  0.2784 -0.1502 -0.1219
39660OCT     C179319   4.497   9.239  14.516  0.0185  0.2144 -0.2146
39660OCT     C279320   4.134   9.563  14.525 -0.1548  0.0222  0.1826
39661OCT     C179321  17.906  12.595   1.755 -0.2222  0.0157 -0.2986
39661OCT     C279322  17.731  12.846   2.125  0.2079 -0.0548  0.0565
39662OCT     C179323   3.506  17.337   7.317  0.0536 -0.1169  0.0563
39662OCT     C279324   3.721  17.098   6.949 -0.3156  0.0496 -0.0697
39663OCT     C179325  15.275  11.225  10.007 -0.1457 -0.1434  0.0180
39663OCT     C279326  15.683  11.313  10.148 -0.2875 -0.1536  0.0512
39664OCT     C179327   1.131  18.114  21.572  0.0805 -0.1438  0.2116
39664OCT     C279328   1.605  18.209  21.441 -0.2296 -0.0215  0.0954
39665OCT     C179329  18.121   3.616   7.063  0.0900 -0.2226 -0.2019
39665OCT     C279330  18.266   3.204   7.267 -0.2647 -0.3279 -0.2255
39666OCT     C179331  22.104  15.615   2.132  0.2856 -0.2227  0.0658
39666OCT     C279332  21.711  15.427   2.329 -0.1126 -0.1847 -0.2284
39667OCT     C179333   7.224  12.227   0.020 -0.0031  0.3967  0.0031
39667OCT     C279334   7.017  12.088  23.384  0.0477 -0.2999  0.0103
39668OCT     C179335  20.935  18.442  21.367  0.1193 -0.1103 -0.0364
39668OCT     C279336  21.158  18.419  20.927 -0.0050 -0.0563 -0.1048
39669OCT     C179337  15.767  18.316  13.903 -0.1197  0.0165 -0.0913
39669OCT     C279338  15.460  18.058  14.143 -0.0950  0.2969 -0.1353
39670OCT     C179339  14.444   8.249  20.088  0.0836  0.1008  0.1809
39670OCT     C279340  14.817   8.361  20.338 -0.1280 -0.0496  0.1608
39671OCT     C179341  12.474  18.900   4.830  0.0974  0.1554 -0.0283
39671OCT     C279342  12.187  18.745   4.517 -0.1197 -0.1042  0.1778
39672OCT     C179343   8.313   5.900   3.206 -0.0307  0.1905  0.0644
39672OCT     C279344   8.444   5.521   2.982 -0.0414  0.1346  0.0796
39673OCT     C179345  19.529   1.707  11.527  0.1693 -0.0086 -0.1679
39673OCT     C279346  19.619   2.071  11.286  0.0877 -0.1954  0.3641
39674OCT     C179347  18.781  17.901   8.873 -0.0254  0.5183 -0.0517
39674OCT     C279348  18.915  18.325   8.694  0.3165 -0.1704  0.3976
39675OCT     C179349  20.147   6.576  22.942 -0.0724 -0.0297  0.2353
39675OCT     C279350  20.163   6.914  22.580 -0.3336  0.1680  0.0327
39676OCT     C179351   7.697  20.016  11.820 -0.2946 -0.4694  0.0956
39676OCT     C279352   7.811  19.827  11.446 -0.1937  0.1988  0.0386
39677OCT     C179353   9.915  14.024   7.616  0.0559 -0.0339  0.2852
39677OCT     C279354   9.713  13.738   7.255  0.1721  0.1684  0.1921
39678OCT     C179355   5.073  14.877   1.509 -0.5668 -0.1602 -0.3461
39678OCT     C279356   4.649  15.075   1.564 -0.0652  0.0463  0.1743
39679OCT     C179357   0.195  20.253   1.665 -0.2625 -0.1665  0.1178
39679OCT     C279358   0.560  20.424   1.422 -0.3336  0.0578  0.2579
39680OCT     C179359  18.830  13.290   9.719 -0.0915 -0.2779  0.0482
39680OCT     C279360  19.260  13.489   9.852  0.1989 -0.1382  0.1654
39681OCT     C179361  18.482   2.299  14.238  0.1486 -0.3113  0.1532
39681OCT     C279362  18.611   2.327  14.673  0.1718  0.5124  0.1557
39682OCT     C179363   0.788  13.170  20.028  0.0420 -0.0514 -0.1864
39682OCT     C279364   0.489  12.944  19.778 -0.0956  0.1924  0.0195
39683OCT     C179365  16.079  11.637  20.382 -0.2215 -0.0217  0.2465
39683OCT     C279366  15.885  12.036  20.209 -0.0383 -0.0609  0.0771
39684OCT     C179367  14.168  18.452   6.938 -0.0295 -0.2358  0.1596
39684OCT     C279368  14.027  18.869   6.749  0.4526  0.0844 -0.0860
39685OCT     C179369  18.398   3.147   8.606 -0.0260  0.1555  0.0227
39685OCT     C279370  18.015   3.214   8.306  0.3303 -0.0032 -0.2268
39686OCT     C179371   5.696   0.583  17.895  0.0750 -0.0682  0.1661
39686OCT     C279372   5.310   0.896  17.999 -0.2500  0.1359  0.1531
39687OCT     C179373  21.625  22.562  17.707  0.6368 -0.1372 -0.0264
39687OCT     C279374  21.930  22.605  18.058 -0.2241 -0.0426 -0.0245
39688OCT     C179375  20.547  23.194  16.472  0.0580 -0.1714  0.3287
39688OCT     C279376  20.961  23.413  16.561  0.2351 -0.1654  0.1351
39689OCT     C179377  20.478  13.680   9.502 -0.1895 -0.0817  0.5265
39689OCT     C279378  20.593  13.862   9.071 -0.5108 -0.0687 -0.1207
39690OCT     C179379   7.550  14.012   2.075 -0.1494 -0.0890  0.1852
39690OCT     C279380   7.677  13.580   2.193 -0.0484  0.0071 -0.1031
39691OCT     C179381   9.426   9.452   4.038  0.1018 -0.0888  0.3759
39691OCT     C279382   9.464   9.479   4.503  0.0556  0.2446 -0.2429
39692OCT     C179383  10.477  16.102   1.479  0.1197  0.2586 -0.0485
39692OCT     C279384  10.109  15.880   1.619 -0.0646  0.0191 -0.0403
39693OCT     C179385   7.725   3.973  17.976  0.4056 -0.0287  0.3605
39693OCT     C279386   7.650   3.833  17.513  0.0981 -0.4102  0.2204
39694OCT     C179387  13.403  10.083  19.711  0.0400  0.2762  0.0136
39694OCT     C279388  12.930  10.018  19.749 -0.3378  0.2144 -0.0655
39695OCT     C179389   2.305  19.346   7.879 -0.1511  0.0800  0.1738
39695OCT     C279390   2.202  18.968   7.984  0.0015 -0.0605 -0.1398
39696OCT     C179391   6.047  18.444  14.176  0.1919  0.2343 -0.3449
39696OCT     C279392   5.878  18.901  14.149 -0.0939  0.0818 -0.1551
39697OCT     C179393   2.301  18.138   2.149 -0.4580  0.0764  0.1221
39697OCT     C279394   2.733  18.084   2.321  0.0913  0.2448 -0.1946
39698OCT     C179395   4.404  22.571  22.816 -0.1236  0.1345 -0.2292
39698OCT     C279396   4.824  22.436  22.692 -0.5635  0.1793  0.2887
39699OCT     C179397   5.330  23.584  20.111 -0.0337 -0.0906 -0.2618
39699OCT     C279398   5.426  23.216  19.925  0.0935  0.5354  0.1989
39700OCT     C179399   2.358  13.535  13.631 -0.1992 -0.3840 -0.0798
39700OCT     C279400   2.017  13.748  13.448  0.2263  0.3511 -0.3402
39701OCT     C179401  17.057  12.363  19.811  0.0691  0.2652  0.0625
39701OCT     C279402  16.832  11.964  19.664  0.3664 -0.2615 -0.4090
39702OCT     C179403   9.542  19.947  13.977 -0.2436  0.3651 -0.0495
39702OCT     C279404   9.227  19.934  14.378 -0.2361 -0.1445 -0.1551
39703OCT     C179405   7.126  18.361   6.413  0.2977 -0.1163  0.0887
39703OCT     C279406   7.181  18.270   6.895 -0.0881 -0.0400  0.1128
39704OCT     C179407  19.673   5.136  15.751 -0.1963 -0.1558  0.1374
39704OCT     C279408  19.574   4.801  15.984  0.1936 -0.2201 -0.1955
39705OCT     C179409   4.885  17.357  22.405 -0.1012  0.0106  0.2179
39705OCT     C279410   4.672  17.112  22.756  0.2130 -0.0125  0.1454
39706OCT     C179411  22.487  23.061  17.235  0.3025  0.0765  0.2412
39706OCT     C279412  22.242  22.998  16.851 -0.4215 -0.0352 -0.1323
39707OCT     C179413  11.700  15.235  15.626  0.1733  0.2700  0.2478
39707OCT     C279414  12.090  15.190  15.945 -0.1488  0.0337  0.2473
39708OCT     C179415   3.721  14.926   9.116 -0.1709  0.1868 -0.0309
39708OCT     C279416   3.347  15.166   8.879  0.0592 -0.1584 -0.0708
39709OCT     C179417  11.836   3.036  22.670 -0.0990  0.2109 -0.0474
39709OCT     C279418  11.458   3.189  22.875  0.0553 -0.4031 -0.2326
39710OCT     C179419  21.022  22.513  21.424 -0.0701  0.2778  0.4745
39710OCT     C279420  21.142  22.881  21.649 -0.0204 -0.1939  0.3194
39711OCT     C179421  20.169  14.653  22.119 -0.0948 -0.2431  0.6964
39711OCT     C279422  20.559  14.500  21.956  0.0295  0.0221  0.4415
39712OCT     C179423  12.707  23.678   4.590  0.2471 -0.2786 -0.0186
39712OCT     C279424  12.728  23.202   4.643  0.2421  0.4048  0.2742
39713OCT     C179425  10.800   8.790   6.443 -0.2154  0.0841  0.1028
39713OCT     C279426  10.966   8.733   6.031 -0.1662 -0.2927  0.2768
39714OCT     C179427  11.854  19.035   8.956 -0.4624  0.1978 -0.1255
39714OCT     C279428  11.672  19.222   8.555 -0.1065 -0.3057  0.1171
39715OCT     C179429   6.746  12.298  18.913  0.0721 -0.1739  0.0474
39715OCT     C279430   6.603  12.728  18.897 -0.3596  0.0500  0.3243
39716OCT     C179431  19.740   3.640  16.844  0.5317  0.0769 -0.3565
39716OCT     C279432  19.632   3.483  17.319  0.1363  0.2155  0.1744
39717OCT     C179433   1.612  10.549  23.241 -0.1142 -0.1393 -0.0434
39717OCT     C279434   1.342  10.448  22.909 -0.2567  0.3862  0.1823
39718OCT     C179435  20.593  11.187  23.063  0.3054 -0.2596 -0.0025
39718OCT     C279436  20.950  11.207  22.755 -0.0020 -0.1015  0.1617
39719OCT     C179437  15.896  16.609   3.206  0.0650 -0.3457  0.0448
39719OCT     C279438  16.205  16.632   2.823  0.1469  0.0408  0.2073
39720OCT     C179439  14.269   0.609  20.020  0.3755 -0.0178 -0.0962
39720OCT     C279440  14.353   0.582  20.454 -0.3306  0.2526  0.0553
39721OCT     C179441  21.481  22.632  18.275  0.0263 -0.2514 -0.1631
39721OCT     C279442  21.740  22.729  18.586 -0.0237  0.2990  0.0399
39722OCT     C179443  14.868  17.198  17.058  0.0627  0.2971 -0.1452
39722OCT     C279444  15.005  17.244  16.570  0.0531 -0.0903  0.1065
39723OCT     C179445  20.980   1.689   7.426  0.2078 -0.1656  0.2262
39723OCT     C279446  20.661   1.662   7.043  0.2359  0.1660 -0.0928
39724OCT     C179447   5.804  20.382   9.846  0.0453 -0.2448 -0.1339
39724OCT     C279448   5.680  20.872   9.843  0.1329 -0.1529  0.1527
39725OCT     C179449  14.858   9.949  23.367  0.0674  0.1056  0.1770
39725OCT     C279450  15.255   9.952  23.117 -0.1808 -0.1807  0.3030
39726OCT     C179451   2.516  19.066  14.657  0.5267 -0.1339 -0.1750
39726OCT     C279452   2.705  18.837  14.297 -0.2588 -0.2309  0.1691
39727OCT     C179453   4.512  21.888  19.325  0.0195  0.1870 -0.0910
39727OCT     C279454   4.913  21.932  19.514  0.1882 -0.1373 -0.0981
39728OCT     C179455   4.016  22.876   1.893 -0.0597 -0.1931 -0.3816
39728OCT     C279456   4.091  22.425   2.035  0.3183  0.0757  0.0073
39729OCT     C179457   8.729  17.540  12.128 -0.1256  0.2182 -0.1398
39729OCT     C279458   8.298  17.375  12.211  0.1361 -0.1912 -0.2746
39730OCT     C179459  22.601  14.948  11.314 -0.0117 -0.0767  0.0602
39730OCT     C279460  22.377  15.113  11.690 -0.6386 -0.1596  0.0046
39731OCT     C179461  10.046   5.833  17.614 -0.2289  0.0182 -0.1008
39731OCT     C279462  10.323   6.181  17.440  0.2804  0.0250  0.0064
39732OCT     C179463  11.595   0.306  13.986 -0.2059  0.0537  0.2380
39732OCT     C279464  11.988   0.164  13.788 -0.2330 -0.1376  0.1265
39733OCT     C179465   2.952  14.964  19.412 -0.1556 -0.0194  0.0756
39733OCT     C279466   3.011  14.595  19.133  0.2446  0.3214  0.1361
39734OCT     C179467  20.372   5.810  15.955 -0.3717 -0.1484 -0.1916
39734OCT     C279468  20.076   5.435  15.959  0.0109 -0.1525 -0.0922
39735OCT     C179469  23.255  11.243   0.558  0.4776  0.1086 -0.2042
39735OCT     C279470  23.276  11.682   0.598  0.0858 -0.0625  0.2066
39736OCT     C179471   2.656  10.145  13.899  0.2894  0.2593 -0.3841
39736OCT     C279472   2.592   9.688  14.000  0.2429  0.0521 -0.1719
39737OCT     C179473   8.763  11.215  16.252  0.3639  0.2871  0.1107
39737OCT     C279474   9.058  11.478  16.015 -0.1419  0.2581 -0.1044
39738OCT     C179475  14.089   6.395   4.698 -0.3315  0.1016  0.1568
39738OCT     C279476  14.020   6.209   5.067 -0.0452  0.3372 -0.1259
39739OCT     C179477  16.289  18.133  18.116 -0.2098  0.2177  0.2917
39739OCT     C279478  15.891  17.926  18.306  0.2154  0.1597 -0.0929
39740OCT     C179479  19.037  11.773  12.770 -0.0537 -0.1314 -0.0791
39740OCT     C279480  19.123  11.497  12.378  0.1059 -0.2921 -0.1454
39741OCT     C179481   3.937  12.457  10.515  0.1437  0.2366  0.1046
39741OCT     C279482   4.139  12.013  10.513 -0.1609 -0.0596 -0.0649
39742OCT     C179483   3.845  18.724  19.570  0.1074  0.1251 -0.0238
39742OCT     C279484   3.482  18.513  19.276  0.5431  0.1042  0.0167
39743OCT     C179485   9.034  20.444  21.742 -0.3331  0.0512 -0.2705
39743OCT     C279486   9.006  20.108  22.031  0.1891 -0.4223  0.1587
39744OCT     C179487   3.288   5.399  21.683  0.0849  0.3718  0.2487
39744OCT     C279488   3.182   5.708  21.293  0.2181  0.0677 -0.1343
39745OCT     C179489   9.860   3.136  19.805  0.1389 -0.0555  0.3228
39745OCT     C279490  10.353   3.056  19.726  0.1949 -0.0969  0.0754
39746OCT     C179491  18.063  23.047   4.089  0.4572  0.0870  0.0283
39746OCT     C279492  17.643  23.085   3.870 -0.1136  0.0390 -0.0241
39747OCT     C179493  14.378  19.070  13.008 -0.1458  0.0998  0.2119
39747OCT     C279494  14.109  19.390  12.856 -0.2813 -0.1673 -0.4019
39748OCT     C179495  23.345  12.897   5.227  0.0600 -0.2451  0.1242
39748OCT     C279496  23.244  12.456   5.364 -0.1613 -0.3346 -0.0123
39749OCT     C179497  20.703  13.779  19.691 -0.0372 -0.0862  0.2238
39749OCT     C279498  20.944  13.599  19.362 -0.1774  0.2011  0.0276
39750OCT     C179499  17.958  17.399  14.936 -0.4275  0.2914 -0.2570
39750OCT     C279500  17.853  17.802  15.074  0.2961 -0.0181 -0.2906
39751OCT     C179501  15.205  21.983   4.875 -0.1991  0.4365  0.0744
39751OCT     C279502  15.336  22.342   4.561 -0.3979  0.2090  0.1627
39752OCT     C179503   7.948  21.673   7.199 -0.1049  0.1020 -0.1199
39752OCT     C279504   8.040  21.875   7.582  0.0412  0.1410  0.0167
39753OCT     C179505   5.440  18.262  17.607  0.0868  0.2297  0.0211
39753OCT     C279506   5.150  17.911  17.794 -0.3162 -0.1234  0.2255
39754OCT     C179507  12.366   1.350  18.996  0.1740  0.1463 -0.2596
39754OCT     C279508  12.418   1.813  19.000  0.2883 -0.1028  0.0534
39755OCT     C179509  17.570  12.282   7.707 -0.0978 -0.1566 -0.3031
39755OCT     C279510  17.520  12.419   8.164 -0.1690  0.0687 -0.1000
39756OCT     C179511   9.674  10.961   2.887 -0.0006  0.0043 -0.2457
39756OCT     C279512   9.227  11.022   2.954 -0.0401  0.3671 -0.2823
39757OCT     C179513   0.067  17.991  10.012 -0.1151 -0.1507 -0.4165
39757OCT     C279514  23.446  17.832  10.258 -0.1843 -0.0166 -0.1216
39758OCT     C179515   5.772   0.043   9.558 -0.4934  0.0132  0.1166
39758OCT     C279516   5.940   0.430   9.686  0.2113 -0.2979 -0.0263
39759OCT     C179517  18.368   6.609  19.945  0.0851  0.3813 -0.2199
39759OCT     C279518  18.268   6.323  19.571 -0.2284 -0.1336  0.2840
39760OCT     C179519  17.304   7.041  18.153 -0.0266  0.2021  0.0439
39760OCT     C279520  17.687   7.071  18.040 -0.4219 -0.0466 -0.2900
39761OCT     C179521  22.725   8.191  21.801  0.6747  0.3232 -0.0275
39761OCT     C279522  22.511   7.784  21.890 -0.3485  0.3638 -0.0927
39762OCT     C179523   3.181  20.017   5.812 -0.1532  0.0698  0.1225
39762OCT     C279524   3.565  19.986   5.994 -0.3762  0.1940 -0.1054
39763OCT     C179525   9.402  15.854  18.634  0.0341 -0.1245  0.1857
39763OCT     C279526   9.762  16.034  18.399  0.0543  0.1092 -0.1014
39764OCT     C179527   9.066   1.037   6.670 -0.1345 -0.0091  0.3241
39764OCT     C279528   8.783   1.357   6.627 -0.0214 -0.0976 -0.0686
39765OCT     C179529  10.837   9.429  14.836 -0.2964 -0.0679  0.0127
39765OCT     C279530  11.093   9.657  14.444  0.4192 -0.0886 -0.0804
39766OCT     C179531   1.135   2.576   6.349 -0.0400  0.2763 -0.1558
39766OCT     C279532   0.938   2.489   5.913 -0.0006  0.0295 -0.1847
39767OCT     C179533   8.821   4.038  13.357  0.1616  0.0769  0.1581
39767OCT     C279534   8.605   4.367  13.120 -0.0357 -0.0092  0.0146
39768OCT     C179535   3.790  16.452   2.808 -0.0372  0.0398  0.4206
39768OCT     C279536   3.691  16.795   3.120 -0.3729 -0.3507  0.0053
39769OCT     C179537  17.193  20.765  10.914 -0.0387  0.1909 -0.1771
39769OCT     C279538  16.973  20.796  11.337 -0.2550  0.1274  0.1109
39770OCT     C179539   2.132  23.102  21.969  0.1213 -0.2854 -0.2730
39770OCT     C279540   2.380  23.090  21.607 -0.1135 -0.3239 -0.4300
39771OCT     C179541   8.253   0.222   1.361  0.0848  0.3296  0.1222
39771OCT     C279542   7.929   0.404   1.115 -0.1377  0.0949 -0.2224
39772OCT     C179543   4.139  18.002   3.284 -0.0822 -0.1209  0.1513
39772OCT     C279544   4.326  17.960   3.673 -0.3042 -0.2185 -0.0852
39773OCT     C179545  15.672  13.393  15.075  0.1789 -0.1466 -0.2585
39773OCT     C279546  15.617  13.511  15.484  0.0019  0.0535  0.3757
39774OCT     C179547  21.462  22.026  17.343 -0.1720 -0.1659 -0.7210
39774OCT     C279548  21.441  22.394  17.124 -0.1436 -0.3199  0.2679
39775OCT     C179549   7.786  23.407   9.310 -0.1083  0.4125  0.4775
39775OCT     C279550   7.571  23.124   9.503 -0.2483 -0.1401 -0.1227
39776OCT     C179551  19.650  17.138   2.359  0.4390 -0.2560  0.0654
39776OCT     C279552  19.611  16.983   2.741 -0.0723  0.2497 -0.0872
39777OCT     C179553  14.951   9.864  18.354  0.1018 -0.1052  0.3915
39777OCT     C279554  15.073  10.295  18.491  0.1112  0.1847  0.0074
39778OCT     C179555  19.056  17.677   5.710 -0.0893 -0.2571 -0.2613
39778OCT     C279556  19.042  17.285   6.015  0.0833 -0.0294 -0.0557
39779OCT     C179557   0.696  14.191   1.387 -0.0355  0.2008  0.1009
39779OCT     C279558   1.107  13.899   1.470  0.2057 -0.2267 -0.0439
39780OCT     C179559  12.228   1.922  15.977  0.0609  0.0928  0.1935
39780OCT     C279560  12.146   1.801  16.392  0.2133  0.1863 -0.0640
39781OCT     C179561  17.325   5.501  19.266 -0.0374  0.0889 -0.2134
39781OCT     C279562  17.380   5.809  19.607  0.0564 -0.1957 -0.2514
39782OCT     C179563   4.658  16.680  18.489  0.1294  0.0104  0.1199
39782OCT     C279564   4.400  16.967  18.679  0.3784 -0.0019  0.1644
39783OCT     C179565  11.859  20.439  16.278 -0.1275  0.1588  0.0021
39783OCT     C279566  11.778  20.049  16.536  0.0415  0.1753 -0.1569
39784OCT     C179567   0.927  13.216  22.045  0.0683  0.0361  0.1086
39784OCT     C279568   0.897  13.417  21.614 -0.1983  0.0615  0.0046
39785OCT     C179569   7.438   3.755  19.799 -0.1036  0.0459  0.1205
39785OCT     C279570   7.209   3.395  19.633  0.1768 -0.3033 -0.0974
39786OCT     C179571  23.662  16.717  10.860 -0.2153 -0.1980 -0.0204
39786OCT     C279572  23.239  16.669  10.682 -0.0005 -0.0532  0.1945
39787OCT     C179573   7.162  12.436  13.088 -0.2431  0.1906 -0.2981
39787OCT     C279574   7.179  12.012  12.940 -0.1978  0.0213  0.4223
39788OCT     C179575  12.869   0.257   2.465 -0.0475  0.0104  0.0355
39788OCT     C279576  12.979  23.561   2.561  0.1139 -0.2314  0.1631
39789OCT     C179577   1.548  20.441   4.910  0.0739 -0.1705  0.2380
39789OCT     C279578   1.876  20.294   5.212  0.1119  0.3045  0.0013
39790OCT     C179579  11.088   2.741   1.526  0.1631 -0.2221  0.1207
39790OCT     C279580  10.790   2.604   1.208 -0.0602 -0.1169  0.3211
39791OCT     C179581   2.834   7.916  17.876  0.2431  0.3816 -0.2119
39791OCT     C279582   2.489   8.245  17.958  0.1399 -0.0488  0.1264
39792OCT     C179583   1.270   5.339  23.538  0.0607 -0.0120 -0.0175
39792OCT     C279584   1.051   5.282   0.187 -0.0263 -0.1342 -0.1508
39793OCT     C179585  10.661   4.661  17.292 -0.0781 -0.0698  0.0246
39793OCT     C279586  10.759   4.189  17.208 -0.0442 -0.0897 -0.0936
39794OCT     C179587  13.845   7.057  15.149 -0.1468 -0.1111  0.1724
39794OCT     C279588  13.960   7.430  14.865  0.0489 -0.4348  0.1312
39795OCT     C179589  10.400  15.046   7.467 -0.1634 -0.0944  0.0785
39795OCT     C279590  10.601  15.291   7.836  0.2824  0.6653  0.0529
39796OCT     C179591  14.627   7.234   0.333  0.1326 -0.0883  0.1035
39796OCT     C279592  14.614   7.671   0.415  0.2072 -0.2202 -0.0051
39797OCT     C179593   2.969   3.212  12.892  0.0945 -0.0471  0.4354
39797OCT     C279594   2.548   3.411  12.910 -0.2832 -0.2641  0.0576
39798OCT     C179595   3.733  17.105  19.293 -0.3493  0.0216  0.2454
39798OCT     C279596   4.199  17.056  19.165  0.4183  0.0268  0.2864
39799OCT     C179597   2.378   8.777  18.157  0.2303  0.2367  0.0957
39799OCT     C279598   2.022   8.511  18.243  0.1386  0.2165 -0.4649
39800OCT     C179599   9.596  14.206   9.942  0.2428  0.1218  0.3729
39800OCT     C279600   9.786  14.425  10.313 -0.0488  0.0716  0.1294
39801OCT     C179601   3.701   8.872  16.588 -0.2928 -0.0920  0.0737
39801OCT     C279602   4.116   8.901  16.786  0.0709  0.3286  0.0448
39802OCT     C179603   7.766   9.685  12.189 -0.0120 -0.1731 -0.4068
39802OCT     C279604   8.146   9.882  12.279 -0.2976 -0.0695  0.3387
39803OCT     C179605   3.417  16.535  20.361 -0.1857 -0.1735 -0.6011
39803OCT     C279606   3.365  16.757  19.948 -0.0880  0.0302 -0.0981
39804OCT     C179607   5.088   7.934  13.352  0.2195  0.1114 -0.4346
39804OCT     C279608   5.037   7.546  13.050  0.0302  0.1496  0.2346
39805OCT     C179609  18.919   3.328  21.615  0.2355 -0.3480 -0.0600
39805OCT     C279610  18.502   3.041  21.647 -0.0429  0.0608  0.1519
39806OCT     C179611  14.268   3.780  21.936  0.1339 -0.0739 -0.1015
39806OCT     C279612  13.745   3.773  21.761 -0.0046  0.2058 -0.0870
39807OCT     C179613  19.544  16.189  21.465 -0.3179 -0.3821  0.1103
39807OCT     C279614  19.454  16.562  21.736 -0.2144 -0.0578 -0.0775
39808OCT     C179615  18.822  23.261  10.215  0.3585 -0.1081  0.3766
39808OCT     C279616  18.809  22.931   9.959  0.1758  0.1222  0.2018
39809OCT     C179617  17.564  14.328  12.448 -0.2311 -0.2922 -0.2038
39809OCT     C279618  17.481  14.597  12.809 -0.0252 -0.0036  0.0127
39810OCT     C179619   0.321  14.900  10.445 -0.0535  0.0395  0.3013
39810OCT     C279620   0.563  14.544  10.312  0.4673 -0.3301 -0.0173
39811OCT     C179621  10.297  19.018   9.247 -0.0265 -0.0540  0.1837
39811OCT     C279622  10.018  18.701   9.471  0.0954 -0.0182 -0.0261
39812OCT     C179623   7.747   6.558  16.523 -0.1970  0.0896 -0.5197
39812OCT     C279624   8.142   6.892  16.487  0.1190 -0.0941 -0.2906
39813OCT     C179625  21.810   1.476  19.896 -0.0902  0.2783 -0.1819
39813OCT     C279626  21.619   1.029  19.868  0.3547  0.0813  0.1830
39814OCT     C179627   1.036  10.593   5.784 -0.0011  0.0754 -0.1981
39814OCT     C279628   0.817  10.560   5.343  0.1244 -0.0280 -0.0957
39815OCT     C179629  13.629   0.222  13.244 -0.1527  0.4664  0.0271
39815OCT     C279630  13.288   0.299  12.944  0.1189  0.1021 -0.2355
39816OCT     C179631  11.459   5.916   9.340  0.1922  0.3484  0.3607
39816OCT     C279632  11.331   5.480   9.457 -0.0903 -0.1558  0.4806
39817OCT     C179633   5.370   2.925  19.307 -0.4298  0.0100  0.1479
39817OCT     C279634   5.768   2.754  19.162  0.1545  0.2597 -0.2949
39818OCT     C179635   4.331  16.450  21.388 -0.2882 -0.1590 -0.1741
39818OCT     C279636   3.879  16.607  21.479 -0.2068  0.3714  0.3966
39819OCT     C179637  12.477  15.352   3.928 -0.0150 -0.0061 -0.2331
39819OCT     C279638  12.593  14.886   3.910  0.0349 -0.1227  0.2299
39820OCT     C179639  17.309  22.306  14.101  0.0757 -0.0812 -0.1913
39820OCT     C279640  17.531  22.270  13.698 -0.0823  0.3244  0.0937
39821OCT     C179641  15.532  13.438  10.424 -0.2681 -0.0989  0.5265
39821OCT     C279642  15.764  13.663  10.034 -0.2865  0.1272 -0.2598
39822OCT     C179643   0.904  19.085  14.892  0.0225  0.2078 -0.3357
39822OCT     C279644   0.616  18.787  14.804 -0.0224  0.0429 -0.0805
39823OCT     C179645  16.192   4.487  13.153 -0.1434  0.3084  0.0472
39823OCT     C279646  16.045   4.574  13.578  0.1537 -0.1185 -0.0184
39824OCT     C179647  14.056   0.007  18.415 -0.1727  0.0964  0.0317
39824OCT     C279648  14.514   0.040  18.516 -0.0809  0.1207  0.1182
39825OCT     C179649  11.131  11.052  21.022 -0.1800 -0.1986  0.1044
39825OCT     C279650  10.834  10.699  21.053  0.2194  0.1608 -0.2397
39826OCT     C179651  19.213  23.169  13.626  0.1929 -0.3345 -0.0184
39826OCT     C279652  19.155  23.041  14.057 -0.0660 -0.1459  0.1094
39827OCT     C179653  21.545   7.966   2.856  0.1601  0.2049  0.0457
39827OCT     C279654  21.825   7.569   2.746  0.0223  0.2474  0.1262
39828OCT     C179655  20.981   1.986  12.585 -0.0386 -0.0091 -0.2197
39828OCT     C279656  21.314   2.086  12.292 -0.2201  0.3173 -0.2750
39829OCT     C179657  17.379  14.584  18.593 -0.2490  0.2730 -0.1454
39829OCT     C279658  17.071  14.233  18.428 -0.1900  0.1856 -0.3507
39830OCT     C179659  20.628   8.791  10.363 -0.2173 -0.1051 -0.2346
39830OCT     C279660  20.983   9.067  10.191  0.0325  0.4111  0.2195
39831OCT     C179661  18.392   5.731   2.293 -0.0059  0.1535 -0.1720
39831OCT     C279662  18.772   5.838   2.628 -0.0944 -0.0120 -0.2264
39832OCT     C179663   9.239   8.880   5.902 -0.2220 -0.0217  0.3446
39832OCT     C279664   9.152   8.867   5.422 -0.3751  0.0748 -0.1689
39833OCT     C179665   3.892  19.302  16.919  0.0079 -0.1741  0.2260
39833OCT     C279666   3.963  19.310  17.379 -0.0684 -0.3209  0.1839
39834OCT     C179667  11.688  10.444  15.077 -0.0457  0.2234  0.0631
39834OCT     C279668  12.118  10.646  15.052  0.0329  0.1609 -0.1384
39835OCT     C179669  18.187  13.920   1.248 -0.1966  0.1214  0.1443
39835OCT     C279670  18.343  13.680   1.557  0.1214  0.0985  0.2425
39836OCT     C179671   2.495   7.736  10.512  0.0940  0.0451  0.2555
39836OCT     C279672   2.863   7.518  10.374  0.3035  0.1936  0.4231
39837OCT     C179673   2.186  15.884  22.078 -0.1313  0.1254 -0.2684
39837OCT     C279674   2.600  15.696  22.170  0.2647  0.2407  0.0659
39838OCT     C179675   5.062  18.278  21.614 -0.0335  0.3379  0.5787
39838OCT     C279676   4.776  18.066  21.897  0.2990 -0.2137  0.1071
39839OCT     C179677  16.365   1.210  11.192  0.1414 -0.1172  0.1930
39839OCT     C279678  16.829   1.157  11.111 -0.0657  0.1287 -0.1696
39840OCT     C179679   3.223   0.846  17.517 -0.2119  0.1656 -0.1474
39840OCT     C279680   3.595   0.564  17.658 -0.1020  0.1032 -0.0895
39841OCT     C179681  16.321  17.421  12.647 -0.1507  0.0063 -0.4275
39841OCT     C279682  15.974  17.744  12.501 -0.1069  0.0153 -0.2062
39842OCT     C179683   2.945  13.088  20.838  0.0384  0.3831  0.0230
39842OCT     C279684   2.709  13.031  20.419  0.0858 -0.1099 -0.0103
39843OCT     C179685   5.755   8.386  16.234  0.4108 -0.0305  0.0111
39843OCT     C279686   5.507   8.330  15.865 -0.0155 -0.5268  0.0920
39844OCT     C179687   9.618  16.679  10.291 -0.0415  0.1170 -0.0990
39844OCT     C279688   9.368  16.734  10.629  0.1648  0.2339  0.3239
39845OCT     C179689   2.114   0.148   7.399 -0.2682 -0.1010 -0.0030
39845OCT     C279690   2.598   0.194   7.347  0.0338  0.1228 -0.1137
39846OCT     C179691   0.915   4.216  10.673  0.0693 -0.0485  0.0414
39846OCT     C279692   0.703   3.925  10.350 -0.1676 -0.1181 -0.4010
39847OCT     C179693  21.845   1.681   4.936 -0.0071 -0.0064 -0.1095
39847OCT     C279694  21.645   1.310   5.192 -0.3302 -0.2103  0.4460
39848OCT     C179695  20.770   5.332   2.015  0.0371  0.0097 -0.1654
39848OCT     C279696  20.464   5.304   1.643  0.5010  0.0921 -0.3099
39849OCT     C179697  16.630   5.616  14.773  0.1353 -0.0859  0.1391
39849OCT     C279698  16.396   5.783  15.133 -0.1434 -0.0023  0.2759
39850OCT     C179699  22.716  11.690  14.852  0.0223  0.3555 -0.2283
39850OCT     C279700  22.940  11.751  14.408 -0.2846 -0.0854  0.3923
39851OCT     C179701   0.690  17.741   3.799  0.3569  0.1440  0.5517
39851OCT     C279702   0.777  17.584   3.383  0.1231  0.6899 -0.3361
39852OCT     C179703  17.302  13.550  19.133  0.5300  0.3402  0.2547
39852OCT     C279704  17.721  13.353  19.123  0.2242  0.1566 -0.1247
39853OCT     C179705  20.855  13.976  10.213 -0.3295  0.0100  0.2561
39853OCT     C279706  20.704  13.555  10.416  0.0717 -0.0656  0.1458
39854OCT     C179707  10.098   5.326  17.761 -0.1014 -0.1361 -0.0253
39854OCT     C279708  10.325   4.936  17.544  0.2623  0.4180  0.0555
39855OCT     C179709  16.697  11.655   7.449 -0.0309 -0.2583 -0.1354
39855OCT     C279710  16.855  11.899   7.855 -0.0317 -0.1397  0.0768
39856OCT     C179711  12.576   1.700  21.127 -0.0322  0.0684  0.1295
39856OCT     C279712  12.523   1.300  20.875 -0.2705  0.0885 -0.0988
39857OCT     C179713  11.814  19.191  17.571 -0.0290  0.2460 -0.0531
39857OCT     C279714  12.179  19.302  17.277 -0.0119 -0.1085 -0.3642
39858OCT     C179715  15.173  20.228   5.836  0.1815  0.4562  0.1373
39858OCT     C279716  15.072  19.781   5.999  0.0599 -0.5674  0.0050
39859OCT     C179717  22.515   1.447   2.122 -0.1439  0.0841  0.2622
39859OCT     C279718  22.066   1.335   2.201  0.2390  0.0565  0.1047
39860OCT     C179719  20.778   5.419  18.111 -0.3805  0.1831 -0.1648
39860OCT     C279720  20.811   5.887  17.970 -0.1476 -0.1301 -0.1272
39861OCT     C179721  23.260   1.213  17.637 -0.2272  0.0162  0.0707
39861OCT     C279722  23.383   1.503  17.962 -0.4695 -0.4117 -0.1127
39862OCT     C179723   5.686  22.965  20.827 -0.1209  0.1733  0.0159
39862OCT     C279724   5.807  23.197  21.220 -0.1443  0.0108 -0.0026
39863OCT     C179725   3.656  10.816  12.041 -0.2826  0.0727 -0.0771
39863OCT     C279726   3.773  10.861  12.482 -0.0773 -0.1550 -0.1056
39864OCT     C179727   4.265  11.804   3.433  0.0155 -0.3426  0.1208
39864OCT     C279728   4.660  12.039   3.299  0.0970 -0.2611  0.1497
39865OCT     C179729   7.429   1.532  16.266  0.1993 -0.0970 -0.1102
39865OCT     C279730   6.980   1.653  16.318  0.1382 -0.3702  0.3191
39866OCT     C179731  18.739  14.313  20.726 -0.0625 -0.1690 -0.3176
39866OCT     C279732  19.140  14.545  20.742 -0.1097  0.0817 -0.0688
39867OCT     C179733  21.096  19.997   8.867  0.0681 -0.1406 -0.1986
39867OCT     C279734  20.856  20.263   9.196 -0.1288  0.0793 -0.1015
39868OCT     C179735  10.077  23.061  11.168 -0.1839  0.0095 -0.2059
39868OCT     C279736   9.729  22.732  11.179  0.0013 -0.1473 -0.0103
39869OCT     C179737   6.272  17.200  18.878  0.3456 -0.1554 -0.1251
39869OCT     C279738   6.401  16.756  18.995  0.1051  0.1724 -0.1250
39870OCT     C179739   8.377   9.461   1.752  0.1375  0.0848  0.1008
39870OCT     C279740   8.515   9.226   1.412 -0.1220  0.1352 -0.0045
39871OCT     C179741  13.583  11.646   8.990 -0.2351  0.0251  0.0393
39871OCT     C279742  13.216  11.632   8.693 -0.1549 -0.0010  0.4773
39872OCT     C179743   5.965  16.231  17.554  0.0235  0.2408  0.1619
39872OCT     C279744   6.192  16.414  17.256  0.0224 -0.1679  0.1547
39873OCT     C179745   4.732  12.746  18.056 -0.0065  0.3012 -0.0796
39873OCT     C279746   4.840  12.345  18.182  0.1181  0.0434  0.3139
39874OCT     C179747  16.305  21.436   9.884  0.4428  0.1329 -0.2195
39874OCT     C279748  15.946  21.736   9.941  0.1064  0.1438 -0.1374
39875OCT     C179749  10.573  15.559   8.391  0.1365  0.1567 -0.0538
39875OCT     C279750  10.194  15.420   8.190 -0.0838 -0.1977  0.2108
39876OCT     C179751  11.179  18.193  13.223  0.0848  0.0031  0.1226
39876OCT     C279752  11.136  18.086  13.642 -0.0290  0.1446  0.4878
39877OCT     C179753   8.003   8.611   0.645 -0.0880 -0.1230  0.4550
39877OCT     C279754   8.100   8.431   0.229  0.3037 -0.0028 -0.4465
39878OCT     C179755   0.541  20.466  23.610 -0.0902 -0.1166  0.2413
39878OCT     C279756   0.925  20.628  23.371 -0.1484 -0.3459 -0.0297
39879OCT     C179757  10.036  13.699   6.903 -0.1204 -0.1504  0.0085
39879OCT     C279758   9.918  13.651   6.470 -0.2333  0.0518  0.0808
39880OCT     C179759  10.158   7.247  22.772  0.0558  0.0606  0.2112
39880OCT     C279760  10.195   6.833  23.003 -0.4389  0.2730  0.0137
39881OCT     C179761   3.196  19.689  17.819  0.1693  0.2076 -0.3714
39881OCT     C279762   3.511  19.353  17.782 -0.0803 -0.0124 -0.1135
39882OCT     C179763  12.752  21.146   1.187 -0.0005  0.0068 -0.1092
39882OCT     C279764  13.144  21.122   1.469  0.1386  0.1169  0.0280
39883OCT     C179765  18.180  10.374   6.894 -0.2685  0.0906 -0.1452
39883OCT     C279766  17.957  10.204   7.286 -0.3300  0.0876  0.0954
39884OCT     C179767  18.944   7.866   5.676  0.0175  0.1739  0.2169
39884OCT     C279768  18.603   7.641   5.730 -0.0978  0.0594  0.1907
39885OCT     C179769   7.328  14.862  17.728 -0.4051  0.0813  0.0419
39885OCT     C279770   7.069  14.755  17.330  0.0850  0.1945  0.3243
39886OCT     C179771  21.652  14.653   1.757  0.0794 -0.0646 -0.0946
39886OCT     C279772  21.979  14.425   2.043 -0.0724  0.1728 -0.1404
39887OCT     C179773  10.296   8.773  21.875  0.1988 -0.0111  0.0086
39887OCT     C279774  10.179   9.195  22.013  0.0763 -0.0576  0.2748
39888OCT     C179775  13.486  16.102   9.476 -0.1442 -0.1052  0.2145
39888OCT     C279776  13.081  16.342   9.430  0.0309  0.1208  0.0512
39889OCT     C179777   0.562  13.865  15.435  0.0398  0.0914 -0.0459
39889OCT     C279778   0.104  13.781  15.614 -0.0639 -0.4968 -0.0763
39890OCT     C179779   3.545  13.902   8.094 -0.1359  0.2910 -0.0783
39890OCT     C279780   3.277  13.486   7.966 -0.4727  0.4036  0.0911
39891OCT     C179781   3.935   3.814  10.283  0.0828 -0.0777 -0.0832
39891OCT     C279782   4.115   3.530  10.633 -0.1508 -0.1584  0.1449
39892OCT     C179783   9.657   3.955   2.842 -0.0283  0.1854  0.0673
39892OCT     C279784   9.930   4.003   3.226 -0.0736  0.0252 -0.0606
39893OCT     C179785   6.651   3.776  17.338  0.0944  0.3221  0.0702
39893OCT     C279786   6.930   3.875  16.962 -0.5035 -0.3124  0.1151
39894OCT     C179787  17.688   0.558  13.712  0.4428 -0.2408 -0.2134
39894OCT     C279788  17.378   0.833  13.420 -0.1162 -0.0124 -0.1735
39895OCT     C179789  19.809  16.800   8.246 -0.2018  0.2425  0.0557
39895OCT     C279790  19.742  17.241   8.046 -0.0254 -0.1293 -0.1750
39896OCT     C179791  17.836  12.103   1.846  0.1295 -0.0683  0.0183
39896OCT     C279792  17.681  12.240   1.437 -0.1320  0.0846  0.0105
39897OCT     C179793   7.817  14.455   3.205  0.0163  0.2318  0.0577
39897OCT     C279794   7.360  14.577   3.239  0.3602  0.2595  0.2110
39898OCT     C179795  11.414  11.003  10.647  0.4640 -0.1480  0.0665
39898OCT     C279796  11.799  10.935  10.915 -0.0787 -0.0740 -0.1722
39899OCT     C179797  13.394  11.200  21.469 -0.2369 -0.1090  0.2422
39899OCT     C279798  13.667  10.822  21.524  0.4140 -0.0879 -0.2781
39900OCT     C179799  15.439   7.702  18.271  0.1019  0.0484  0.2195
39900OCT     C279800  15.524   7.847  17.837 -0.0739 -0.3246 -0.1028
39901OCT     C179801   1.372  12.839   2.451 -0.1396  0.0486 -0.4973
39901OCT     C279802   1.335  12.834   1.980  0.3541  0.1487 -0.0654
39902OCT     C179803   6.278  15.098   9.117 -0.1977 -0.1073 -0.5477
39902OCT     C279804   6.680  15.002   9.001 -0.1323  0.3145 -0.1219
39903OCT     C179805  14.965  13.060   0.233  0.0643 -0.0647  0.1746
39903OCT     C279806  15.351  13.009   0.527 -0.2600 -0.2584  0.0327
39904OCT     C179807  18.686  22.431  16.951 -0.1176 -0.1733  0.5432
39904OCT     C279808  18.851  22.308  17.351  0.0639  0.0419 -0.2774
39905OCT     C179809   7.138   4.488   8.512  0.2808  0.0850  0.1368
39905OCT     C279810   7.085   4.320   8.116 -0.3729  0.3771 -0.1286
39906OCT     C179811  15.425  15.388   0.076  0.0645 -0.0461  0.0030
39906OCT     C279812  15.201  15.715   0.310  0.2702  0.0579 -0.1447
39907OCT     C179813  14.195   9.611   7.668  0.0535  0.1668 -0.0316
39907OCT     C279814  14.590   9.758   7.831 -0.0879 -0.1140 -0.0023
39908OCT     C179815  17.961   5.556  21.993  0.0132 -0.2392 -0.2573
39908OCT     C279816  18.207   5.886  22.269  0.0008  0.0850 -0.2864
39909OCT     C179817  15.840  19.995  16.376  0.0098 -0.1110  0.0527
39909OCT     C279818  15.936  19.594  16.365 -0.2568 -0.2278  0.1929
39910OCT     C179819   4.871   8.173   4.619 -0.1969 -0.0220 -0.2110
39910OCT     C279820   4.587   8.181   4.242 -0.1264 -0.1371 -0.2105
39911OCT     C179821  21.459  19.009   6.137  0.0191 -0.0009  0.1315
39911OCT     C279822  21.103  18.809   5.821 -0.3635  0.0614  0.4370
39912OCT     C179823   7.309   2.974   0.402  0.0980  0.0769  0.3256
39912OCT     C279824   6.928   3.063   0.653  0.1555 -0.1606  0.0196
39913OCT     C179825  13.181  18.514   1.674 -0.3985  0.0586  0.1550
39913OCT     C279826  13.206  18.943   1.842 -0.3299  0.1670  0.2113
39914OCT     C179827   5.941   2.467  20.429  0.0462 -0.0944 -0.1921
39914OCT     C279828   6.296   2.490  20.777 -0.0881 -0.0220  0.4928
39915OCT     C179829   6.521  14.216  18.571 -0.2961  0.0520 -0.0984
39915OCT     C279830   6.674  13.765  18.430  0.0819 -0.2658  0.0568
39916OCT     C179831  15.764  21.832   7.277  0.1120 -0.3455  0.2865
39916OCT     C279832  16.147  21.877   7.522 -0.0464 -0.3575  0.0154
39917OCT     C179833   5.876  18.888  15.052 -0.1271 -0.4668  0.0350
39917OCT     C279834   5.457  18.894  14.904  0.1316 -0.1079 -0.0594
39918OCT     C179835   1.130  21.324  21.081  0.1386  0.0382  0.2137
39918OCT     C279836   0.897  21.552  21.411  0.2230  0.0533 -0.1242
39919OCT     C179837  15.270  12.112   0.788 -0.1015 -0.2930  0.0691
39919OCT     C279838  15.162  12.536   0.651  0.0390 -0.1047  0.0101
39920OCT     C179839   8.763  16.435   3.935  0.2184  0.1700 -0.3467
39920OCT     C279840   8.478  16.454   3.629 -0.4990 -0.0298 -0.1297
39921OCT     C179841  13.323  15.290  21.755 -0.0393  0.0436  0.0428
39921OCT     C279842  13.445  15.435  21.370 -0.2415 -0.1553  0.4312
39922OCT     C179843   4.237   2.775   8.822 -0.1400  0.2446 -0.1467
39922OCT     C279844   3.769   2.565   8.834 -0.2584  0.2754 -0.4296
39923OCT     C179845  19.344  21.199   9.298 -0.1995  0.1117 -0.1800
39923OCT     C279846  19.359  21.044   9.738 -0.1011  0.2053 -0.0007
39924OCT     C179847  22.667  11.133   2.516  0.3022 -0.1008 -0.2041
39924OCT     C279848  22.990  11.036   2.856  0.6185 -0.1082 -0.0328
39925OCT     C179849   3.151  20.549  23.488 -0.0303 -0.2251  0.2737
39925OCT     C279850   2.838  20.677   0.035 -0.0387 -0.1643  0.0738
39926OCT     C179851   7.630  12.610  16.205 -0.1046  0.1060  0.0587
39926OCT     C279852   7.573  13.029  16.043  0.3295 -0.1679 -0.3421
39927OCT     C179853   5.395  23.620  22.634 -0.3701 -0.1826  0.2828
39927OCT     C279854   5.052  23.466  22.941 -0.1863  0.1411  0.0795
39928OCT     C179855   0.153   4.723   9.314  0.3854  0.3100 -0.0450
39928OCT     C279856   0.637   4.768   9.364  0.3250  0.0509  0.2125
39929OCT     C179857  21.788  16.497  10.585  0.1494 -0.3428 -0.2486
39929OCT     C279858  21.442  16.258  10.430 -0.3476 -0.1211  0.1192
39930OCT     C179859  21.426  13.594  12.282  0.1593 -0.1575 -0.2529
39930OCT     C279860  21.863  13.412  12.328  0.2239  0.0353 -0.0776
39931OCT     C179861  16.442  20.614  11.783 -0.0901 -0.0433 -0.4107
39931OCT     C279862  16.572  20.760  12.274  0.1312 -0.2772  0.3408
39932OCT     C179863   8.499   7.968  12.631  0.0954 -0.2120  0.1462
39932OCT     C279864   8.552   8.068  13.118 -0.0824  0.1130  0.0467
39933OCT     C179865   4.840  22.998  22.024  0.3368 -0.1284  0.2964
39933OCT     C279866   4.945  23.115  21.551 -0.1593 -0.4417 -0.0035
39934OCT     C179867   8.034   2.758  21.752 -0.1965  0.0510 -0.1804
39934OCT     C279868   7.893   2.331  21.705 -0.2095  0.0833 -0.1612
39935OCT     C179869  15.375   5.142  20.885 -0.0985 -0.0734 -0.1978
39935OCT     C279870  15.207   5.525  20.600  0.2981  0.0846 -0.0170
39936OCT     C179871  10.262   3.994  11.354 -0.2412  0.0194  0.2378
39936OCT     C279872  10.533   3.777  11.070 -0.4000 -0.0841 -0.2537
39937OCT     C179873   7.410   1.957  19.628 -0.0097 -0.2877 -0.3409
39937OCT     C279874   7.188   1.737  19.274  0.2032  0.2098  0.4822
39938OCT     C179875   1.203   0.946  22.177  0.5750 -0.1111  0.1141
39938OCT     C279876   1.427   1.005  22.596 -0.0217 -0.1905  0.1470
39939OCT     C179877  14.560  21.722   3.464  0.1752 -0.0405  0.0354
39939OCT     C279878  14.684  21.800   3.923 -0.2715 -0.0196 -0.2578
39940OCT     C179879  16.090   5.692  14.734  0.0961  0.2729 -0.3724
39940OCT     C279880  15.808   5.372  14.579  0.0952 -0.3185  0.1502
39941OCT     C179881  23.027   7.623  20.661 -0.0765 -0.6589 -0.2290
39941OCT     C279882  23.501   7.529  20.517  0.0676 -0.2555  0.4454
39942OCT     C179883  21.193  10.278  13.373  0.0697  0.1285  0.0694
39942OCT     C279884  20.991  10.506  13.059 -0.5285 -0.0314  0.1564
39943OCT     C179885   5.550   5.856  16.968  0.0416  0.1868 -0.1865
39943OCT     C279886   5.438   5.570  17.322 -0.0861  0.0498 -0.1744
39944OCT     C179887  22.888  10.448   3.615 -0.0227 -0.0386  0.1948
39944OCT     C279888  22.670  10.061   3.471 -0.0602 -0.1244  0.2192
39945OCT     C179889  16.585  18.352   6.502 -0.4584  0.0253  0.0181
39945OCT     C279890  16.640  18.761   6.619  0.2284 -0.0579 -0.2586
39946OCT     C179891  10.549  12.967   2.931  0.0516  0.1800 -0.0188
39946OCT     C279892  10.899  12.633   2.919 -0.3293 -0.0305  0.1757
39947OCT     C179893  23.012  22.635   5.243 -0.0670 -0.2384 -0.2635
39947OCT     C279894  22.698  22.999   5.456 -0.1545  0.2398 -0.0594
39948OCT     C179895  17.153   8.973  10.460  0.2948  0.0075  0.4285
39948OCT     C279896  16.843   9.339  10.324 -0.2236 -0.0703  0.1079
39949OCT     C179897  19.003  23.558   7.551 -0.1301  0.6516  0.1321
39949OCT     C279898  18.989  23.703   7.062  0.2561  0.2520  0.0002
39950OCT     C179899  12.791  12.051   3.111  0.0493 -0.2596  0.0925
39950OCT     C279900  12.448  12.351   3.205 -0.0526  0.1754  0.1256
39951OCT     C179901   0.881   2.396  21.519 -0.1343  0.0452  0.3858
39951OCT     C279902   0.842   2.484  21.045  0.2133  0.1506 -0.0104
39952OCT     C179903   8.219  12.930   2.726 -0.3328  0.4886 -0.1535
39952OCT     C279904   7.863  12.797   3.045 -0.1573 -0.2106 -0.3533
39953OCT     C179905   2.825  10.504  13.572 -0.0615 -0.5689  0.0629
39953OCT     C279906   3.077  10.451  13.978  0.0022 -0.0149 -0.0262
39954OCT     C179907   4.080  18.060  11.570 -0.1521  0.0600  0.3124
39954OCT     C279908   4.480  18.243  11.778 -0.3719  0.1079  0.1473
39955OCT     C179909  18.444  14.332   3.786 -0.2840  0.0643  0.1770
39955OCT     C279910  18.794  14.191   3.509  0.0569 -0.2408 -0.0783
39956OCT     C179911  14.425  21.780  13.869  0.2629 -0.2676  0.1781
39956OCT     C279912  14.061  21.545  13.630 -0.1099  0.2808 -0.2585
39957OCT     C179913  19.174   9.710  11.325  0.2753  0.0194 -0.1025
39957OCT     C279914  19.154   9.431  10.957  0.0065 -0.4700 -0.0818
39958OCT     C179915  15.118  13.152   1.736  0.0432  0.1464  0.1327
39958OCT     C279916  14.691  13.156   1.945  0.1542 -0.1543 -0.4592
39959OCT     C179917   5.004   3.468  13.793 -0.0664  0.1734  0.1675
39959OCT     C279918   5.401   3.332  13.821 -0.0567 -0.1211  0.0895
39960OCT     C179919  17.728   9.323  20.953  0.0019 -0.1927  0.0789
39960OCT     C279920  17.587   9.086  21.362  0.2396 -0.0253  0.0177
39961OCT     C179921  14.868  18.085  18.352  0.0298  0.2912  0.0601
39961OCT     C279922  14.751  17.737  18.700 -0.4042  0.1545 -0.2394
39962OCT     C179923  11.221   0.045   8.903  0.0249  0.0911  0.2788
39962OCT     C279924  11.356  23.343   8.986  0.2584 -0.1837  0.0968
39963OCT     C179925   4.280  15.805  16.499 -0.0730 -0.0542 -0.1876
39963OCT     C279926   4.238  16.209  16.228 -0.0942  0.2444  0.0347
39964OCT     C179927   1.947  20.977   9.968 -0.0915 -0.1451  0.2105
39964OCT     C279928   1.831  20.579  10.183 -0.2667  0.3378 -0.3651
39965OCT     C179929   8.184  19.891  21.315 -0.0700  0.0418 -0.1527
39965OCT     C279930   8.632  19.631  21.332 -0.1751 -0.0025  0.1172
39966OCT     C179931   1.889  19.371  21.291 -0.1451 -0.2231 -0.1541
39966OCT     C279932   1.767  19.224  20.881  0.0574 -0.0973  0.2380
39967OCT     C179933  18.398  10.543   5.738  0.4236  0.1463 -0.1433
39967OCT     C279934  18.432  10.087   5.823  0.1230 -0.2783  0.2813
39968OCT     C179935   0.810  15.016   7.431 -0.0465  0.0181  0.3084
39968OCT     C279936   0.974  14.986   7.027 -0.0587  0.3321  0.3032
39969OCT     C179937   6.806   0.388   1.515  0.1860  0.1813 -0.2173
39969OCT     C279938   6.622   0.845   1.589  0.1985  0.4011  0.0863
39970OCT     C179939  18.457  14.971   4.629  0.1825  0.3068 -0.2967
39970OCT     C279940  18.151  15.227   4.478 -0.0758 -0.3712 -0.1800
39971OCT     C179941   9.917   0.217  14.107  0.2247 -0.0571  0.1182
39971OCT     C279942  10.143  23.531  14.122 -0.0047 -0.2931 -0.0082
39972OCT     C179943  14.189   3.770   5.860  0.1451  0.1668  0.3975
39972OCT     C279944  14.121   3.661   5.349  0.0015 -0.0373  0.2026
39973OCT     C179945  12.478  19.972   5.793  0.1321  0.0952 -0.4236
39973OCT     C279946  12.277  20.013   5.368  0.1401  0.1250 -0.0528
39974OCT     C179947   2.439   8.800   9.221  0.0363 -0.4955  0.4998
39974OCT     C279948   2.469   9.225   9.260  0.0114  0.1314 -0.0525
39975OCT     C179949  23.487   7.378   7.042  0.2163 -0.1497 -0.0751
39975OCT     C279950  23.422   6.969   6.855  0.1472 -0.2756  0.2565
39976OCT     C179951   0.515  18.702  15.265 -0.0354 -0.3262  0.0758
39976OCT     C279952   0.113  18.923  15.333 -0.1045 -0.1543 -0.0363
39977OCT     C179953  22.979   3.642  18.729  0.2608 -0.2753  0.0171
39977OCT     C279954  23.204   3.550  18.338 -0.0562  0.0454 -0.3264
39978OCT     C179955  20.237  15.852  10.086  0.0609 -0.0937  0.0231
39978OCT     C279956  20.494  16.246  10.062  0.1186  0.2745 -0.1221
39979OCT     C179957  16.696   9.553   5.868 -0.0556 -0.1350 -0.2209
39979OCT     C279958  16.581   9.791   6.280 -0.0967  0.0919 -0.1607
39980OCT     C179959  17.622   5.456  15.295 -0.1727 -0.0502  0.2943
39980OCT     C279960  17.846   5.434  15.695 -0.4423 -0.2284  0.0399
39981OCT     C179961   7.377  17.210   9.094 -0.2108 -0.0533 -0.0533
39981OCT     C279962   7.231  17.621   9.146 -0.0119  0.1311 -0.1091
39982OCT     C179963   2.880  16.839  16.383  0.0281 -0.4821  0.0456
39982OCT     C279964   2.398  16.857  16.369  0.0667 -0.0125  0.1807
39983OCT     C179965  11.722   7.524   4.097  0.1010 -0.0945  0.4264
39983OCT     C279966  11.990   7.371   3.734 -0.2220  0.0949 -0.0621
39984OCT     C179967  12.273  21.175  21.506 -0.0699 -0.0243  0.1580
39984OCT     C279968  12.298  20.806  21.754  0.2181  0.2231 -0.0339
39985OCT     C179969  18.361  13.300  22.540  0.0423  0.0012 -0.2752
39985OCT     C279970  18.472  13.273  22.119 -0.2667 -0.0874  0.0641
39986OCT     C179971  22.965   6.616  19.707 -0.0119  0.0945  0.0747
39986OCT     C279972  23.365   6.588  19.997  0.1366  0.2457 -0.1655
39987OCT     C179973   8.990  21.462   2.258  0.0656  0.2495 -0.1339
39987OCT     C279974   8.941  21.016   2.442  0.0421  0.2513 -0.2448
39988OCT     C179975   3.361  20.762  20.967  0.0279  0.2706 -0.2445
39988OCT     C279976   3.079  20.533  20.693 -0.0442 -0.2679  0.0024
39989OCT     C179977  23.165   3.700  11.347  0.2367  0.1902  0.0223
39989OCT     C279978  22.733   3.610  11.202 -0.2340  0.1288 -0.0800
39990OCT     C179979   8.389  10.939  18.795 -0.0841  0.5442  0.3208
39990OCT     C279980   8.752  10.775  19.031  0.1286 -0.2084 -0.0705
39991OCT     C179981  12.645  17.829  17.084  0.1954 -0.1091  0.0004
39991OCT     C279982  12.831  17.514  17.351 -0.0309  0.1495  0.0851
39992OCT     C179983  12.079  22.877  20.324 -0.1052 -0.3405 -0.2068
39992OCT     C279984  11.778  22.791  20.731  0.1232 -0.1100 -0.1093
39993OCT     C179985  16.673  11.708  18.915  0.7162  0.3155 -0.1803
39993OCT     C279986  16.429  11.809  18.551 -0.2596 -0.3560  0.0943
39994OCT     C179987  16.964  20.161  21.259  0.0135  0.0469 -0.2177
39994OCT     C279988  17.154  20.037  20.823  0.0993 -0.1996  0.0423
39995OCT     C179989  10.231  20.453  22.613 -0.2033  0.1750 -0.2605
39995OCT     C279990  10.401  20.825  22.837  0.1678 -0.0639 -0.0818
39996OCT     C179991   4.822   9.602  14.672  0.1417  0.2522  0.0090
39996OCT     C279992   4.542   9.727  14.256  0.3287 -0.3027 -0.2281
39997OCT     C179993  13.262   8.922   7.431  0.0517 -0.0162 -0.2913
39997OCT     C279994  13.084   8.613   7.174 -0.1369 -0.1636 -0.0875
39998OCT     C179995   4.241  23.458  20.686  0.0823  0.0961 -0.3122
39998OCT     C279996   3.950  23.460  20.380 -0.2693 -0.0837 -0.0675
39999OCT     C179997   8.171   3.695   9.212 -0.0749 -0.0468 -0.2636
39999OCT     C279998   7.973   3.966   8.864 -0.0017  0.3579 -0.1359
40000OCT     C179999   7.309  15.037  22.546 -0.2000  0.5234 -0.1089
40000OCT     C280000   6.856  14.939  22.621 -0.1042 -0.0121  0.2731
40001OCT     C180001  10.713   6.443  18.238 -0.0287  0.2358  0.3733
40001OCT     C280002  11.097   6.734  18.191 -0.0218 -0.2224  0.2797
40002OCT     C180003   8.476   3.435  12.374  0.1757  0.5159 -0.1190
40002OCT     C280004   8.519   3.882  12.405  0.4790 -0.0627  0.1816
40003OCT     C180005   5.179  10.028   5.927 -0.3163 -0.2009  0.0746
40003OCT     C280006   5.201  10.371   5.583 -0.3595 -0.2431  0.1520
40004OCT     C180007   0.040  16.851   6.434  0.1124 -0.2651  0.0183
40004OCT     C280008   0.453  16.704   6.390  0.2382  0.1422 -0.0397
40005OCT     C180009   3.963  15.503   0.299 -0.1882 -0.2198 -0.2019
40005OCT     C280010   4.269  15.822   0.462 -0.0887 -0.0887 -0.1708
40006OCT     C180011   2.496  10.854  13.401 -0.2066 -0.1666  0.2067
40006OCT     C280012   2.543  10.645  12.998  0.1340 -0.0560 -0.1476
40007OCT     C180013  16.954   1.485   1.686 -0.1256 -0.2047  0.0905
40007OCT     C280014  17.165   1.685   2.081  0.0414  0.3346 -0.0062
40008OCT     C180015  19.879  20.112  19.931  0.0460 -0.1750  0.1167
40008OCT     C280016  20.007  20.071  20.428  0.2882 -0.0409  0.0303
40009OCT     C180017  19.483   3.018  15.612 -0.1182  0.8065  0.1028
40009OCT     C280018  19.775   3.141  15.277  0.0020  0.1138 -0.4394
40010OCT     C180019  13.654   3.294  13.156 -0.2252 -0.3690 -0.1136
40010OCT     C280020  13.369   3.164  13.459 -0.0491 -0.2927 -0.0921
40011OCT     C180021  18.118  17.744  12.121 -0.1672  0.1723  0.1976
40011OCT     C280022  17.980  18.007  12.482  0.3018 -0.3623  0.0179
40012OCT     C180023  10.346  21.535  11.046  0.0213  0.0173 -0.4153
40012OCT     C280024  10.107  21.429  11.479  0.0519 -0.0110  0.0247
40013OCT     C180025  15.078  17.103  11.538  0.2116  0.1085  0.0410
40013OCT     C280026  14.879  16.667  11.632 -0.1850 -0.1103 -0.0787
40014OCT     C180027   0.097   2.056  11.973  0.0889 -0.0047  0.1748
40014OCT     C280028  23.388   2.152  11.986  0.0449  0.1929 -0.1613
40015OCT     C180029   8.962  10.405   4.327 -0.0452 -0.1098 -0.4741
40015OCT     C280030   8.882  10.657   4.725  0.5452 -0.0332  0.0541
40016OCT     C180031   8.951   4.401   1.137  0.0520  0.0922  0.0219
40016OCT     C280032   9.141   4.012   0.920  0.0805  0.3749  0.2994
40017OCT     C180033  19.055   3.532  19.957  0.1883  0.1240 -0.0480
40017OCT     C280034  19.382   3.205  19.936  0.1629 -0.3147 -0.4032
40018OCT     C180035  20.415  10.414  19.135  0.2600  0.1235  0.1163
40018OCT     C280036  20.500  10.813  19.283  0.0642  0.2480  0.0309
40019OCT     C180037   9.975   2.985   5.501  0.2934 -0.2215  0.0756
40019OCT     C280038   9.671   2.826   5.200 -0.4305 -0.0612 -0.1490
40020OCT     C180039  19.721  18.046   0.131  0.1489  0.4218  0.0940
40020OCT     C280040  19.793  18.484   0.372  0.0386 -0.0407 -0.2352
40021OCT     C180041  15.063   8.312  18.789  0.0305  0.0133 -0.1342
40021OCT     C280042  14.788   8.492  18.461  0.1328  0.1271  0.1254
40022OCT     C180043  12.883   3.355  20.910  0.0237 -0.1356  0.1150
40022OCT     C280044  12.899   3.709  21.309 -0.1469 -0.0802  0.0218
40023OCT     C180045  19.241   2.849  15.135 -0.0988 -0.0970 -0.1288
40023OCT     C280046  19.197   2.561  14.772  0.2077  0.3318 -0.3048
40024OCT     C180047  10.921  17.282  10.324  0.0664 -0.1021 -0.3225
40024OCT     C280048  11.128  17.291   9.869  0.0260 -0.1587 -0.0394
40025OCT     C180049  17.479   9.648   4.484  0.0901 -0.2539 -0.0463
40025OCT     C280050  17.576   9.741   4.951  0.1627  0.1982  0.0998
40026OCT     C180051  19.460   4.940  21.800  0.1761 -0.1780  0.1769
40026OCT     C280052  19.279   5.316  22.041 -0.0573 -0.1100 -0.0477
40027OCT     C180053   6.287  23.406  10.757  0.2661  0.3602 -0.3390
40027OCT     C280054   6.735  23.482  10.636  0.0185  0.0123  0.1967
40028OCT     C180055  19.022  20.170   0.829  0.1143  0.1035  0.1390
40028OCT     C280056  18.780  20.409   0.486  0.1217 -0.0700 -0.0240
40029OCT     C180057   5.520  14.730  10.142 -0.2990  0.0187  0.1437
40029OCT     C280058   5.990  14.760  10.101  0.2189 -0.0090 -0.0562
40030OCT     C180059  20.321   6.126  19.443 -0.2799  0.1952 -0.1018
40030OCT     C280060  20.135   6.170  19.025 -0.1366  0.0848 -0.5088
40031OCT     C180061   2.170  13.385  14.878  0.2839 -0.2440  0.2093
40031OCT     C280062   2.008  13.679  15.196  0.2289 -0.2086 -0.0056
40032OCT     C180063   6.432  14.423  13.574  0.0107 -0.2607 -0.2873
40032OCT     C280064   6.787  14.459  13.201 -0.0108 -0.1624 -0.1043
40033OCT     C180065   2.331   1.647   3.634  0.0162  0.1744 -0.0662
40033OCT     C280066   1.900   1.564   3.756 -0.0387 -0.0246 -0.0357
40034OCT     C180067   3.821  19.916  11.677  0.0036 -0.2520 -0.0413
40034OCT     C280068   3.992  19.480  11.870  0.0833 -0.0740 -0.0992
40035OCT     C180069   6.505   8.489  14.815  0.2784  0.1922 -0.2118
40035OCT     C280070   6.691   8.431  15.227 -0.2046 -0.0250  0.1038
40036OCT     C180071  14.117  16.014   0.539  0.2222 -0.1607  0.2888
40036OCT     C280072  13.758  15.837   0.786 -0.3744 -0.1143 -0.2415
40037OCT     C180073  18.656   6.700   3.364 -0.0107 -0.2432  0.0783
40037OCT     C280074  18.207   6.945   3.373 -0.3507  0.0667 -0.0048
40038OCT     C180075  18.444  13.847   3.876  0.2060 -0.1798 -0.0900
40038OCT     C280076  18.523  13.692   4.306  0.1178  0.5023 -0.2099
40039OCT     C180077   1.291  19.121  17.287  0.2162 -0.0809 -0.2166
40039OCT     C280078   1.482  18.941  17.694  0.0835 -0.2923  0.0279
40040OCT     C180079  16.513   4.836  19.630 -0.0785  0.0461 -0.3137
40040OCT     C280080  16.912   4.696  19.869 -0.0404 -0.2100  0.1628
40041OCT     C180081   1.880   8.539  20.441 -0.0023 -0.3857 -0.0603
40041OCT     C280082   1.968   8.097  20.524 -0.3643  0.0689 -0.0640
40042OCT     C180083   0.654   7.371   5.161 -0.2587  0.3399  0.2969
40042OCT     C280084   0.541   7.313   5.611  0.4084  0.1960 -0.3792
40043OCT     C180085  21.354  16.788  11.887  0.0316 -0.1551  0.1931
40043OCT     C280086  21.136  17.172  11.631  0.0047 -0.2796  0.3107
40044OCT     C180087   8.790  13.747  11.478  0.0847 -0.1427 -0.0396
40044OCT     C280088   8.384  13.815  11.243 -0.0580  0.2851  0.0007
40045OCT     C180089  18.707  11.698   8.221  0.0694 -0.1245  0.0621
40045OCT     C280090  18.278  11.435   8.365  0.0225 -0.1858  0.0887
40046OCT     C180091   8.488   1.776   1.413  0.2091  0.1234 -0.0624
40046OCT     C280092   8.654   1.991   1.769  0.3726 -0.1024 -0.0279
40047OCT     C180093  19.369  16.368   1.570 -0.0322  0.0747  0.1748
40047OCT     C280094  19.517  16.821   1.612  0.0109  0.1013 -0.2286
40048OCT     C180095  19.663   3.404   6.997 -0.1227 -0.0204  0.0222
40048OCT     C280096  19.582   3.259   7.391  0.4181  0.0423 -0.2312
40049OCT     C180097  19.054   7.494  12.570  0.2777 -0.0965  0.4839
40049OCT     C280098  18.674   7.302  12.390 -0.0936  0.1276  0.1541
40050OCT     C180099   6.182   5.498  21.891 -0.0473  0.1237 -0.0347
40050OCT     C280100   6.014   5.290  22.257 -0.1440  0.1561  0.0538
40051OCT     C180101  18.154  22.668  10.431  0.1684 -0.0242  0.3598
40051OCT     C280102  18.448  22.600  10.048  0.0923  0.0260  0.2342
40052OCT     C180103   8.821  18.561   4.153  0.1682  0.0735 -0.0838
40052OCT     C280104   9.181  18.261   4.291  0.0206 -0.2431 -0.3114
40053OCT     C180105   2.209   7.550  21.231 -0.1631 -0.1622 -0.2193
40053OCT     C280106   2.062   7.238  20.890  0.0485  0.0356  0.2260
40054OCT     C180107   6.442   7.672   6.943  0.0794 -0.4266  0.2878
40054OCT     C280108   6.658   7.304   6.829  0.1399  0.1786 -0.3393
40055OCT     C180109   2.220  10.177  17.433 -0.2390  0.0939 -0.0732
40055OCT     C280110   1.733  10.107  17.373 -0.0490  0.1186  0.3689
40056OCT     C180111  13.058   6.049  23.129 -0.0109  0.1719  0.1276
40056OCT     C280112  13.275   6.360  23.337  0.3353 -0.3302  0.1567
40057OCT     C180113  12.142  19.745  17.073  0.1578  0.2239  0.0834
40057OCT     C280114  11.881  19.708  17.457 -0.0619  0.2148 -0.1110
40058OCT     C180115  16.614  23.048   0.752  0.0010  0.0157 -0.0326
40058OCT     C280116  16.494  23.364   1.120 -0.2269 -0.0767 -0.5083
40059OCT     C180117   7.784  10.032   0.052 -0.2949 -0.1494  0.3443
40059OCT     C280118   7.788   9.535   0.131  0.4527 -0.1120 -0.1822
40060OCT     C180119   0.663  14.319  15.270  0.1784  0.0142  0.0478
40060OCT     C280120   0.942  14.644  15.171  0.2417 -0.2124 -0.0449
40061OCT     C180121   1.147   4.347  13.840  0.1489 -0.1305  0.1494
40061OCT     C280122   0.880   4.066  13.561  0.0826  0.2556 -0.3576
40062OCT     C180123   3.779   7.634  11.879 -0.3039 -0.0592  0.5281
40062OCT     C280124   4.117   7.620  11.574  0.3372 -0.1709  0.1394
40063OCT     C180125   9.071   8.556  16.638 -0.2619 -0.0804 -0.1695
40063OCT     C280126   8.959   8.636  17.083  0.2465 -0.1052 -0.0522
40064OCT     C180127   3.203  12.503  12.849 -0.4224  0.1383  0.0271
40064OCT     C280128   2.977  12.753  13.152 -0.2755  0.0813  0.2547
40065OCT     C180129  17.535  13.337  20.854 -0.3585  0.0540 -0.1882
40065OCT     C280130  17.109  13.647  20.820  0.0441 -0.1415 -0.0689
40066OCT     C180131   0.775  11.558   1.331  0.3118  0.2957 -0.2766
40066OCT     C280132   0.367  11.672   1.513 -0.2013 -0.0290 -0.2237
40067OCT     C180133   1.962   9.025   8.487 -0.3013 -0.4121 -0.1081
40067OCT     C280134   2.204   8.736   8.689 -0.0579  0.2286  0.0630
40068OCT     C180135  21.727  18.680  12.670  0.1731  0.1899  0.0426
40068OCT     C280136  21.684  18.220  12.741  0.1905 -0.0064 -0.1326
40069OCT     C180137  19.662   7.678  12.444 -0.1966 -0.1089 -0.3557
40069OCT     C280138  19.293   7.948  12.300 -0.1585 -0.0448 -0.2905
40070OCT     C180139   5.853  14.414   9.791 -0.1148 -0.0613 -0.2107
40070OCT     C280140   6.061  14.223  10.141 -0.0794 -0.1862  0.0418
40071OCT     C180141  16.906  17.737   0.778  0.0043  0.1964  0.0572
40071OCT     C280142  17.039  17.741   0.273 -0.1136  0.2463 -0.2804
40072OCT     C180143   7.527   9.900  20.094  0.2280 -0.1917  0.4673
40072OCT     C280144   7.789  10.240  20.000  0.0633 -0.1090 -0.2234
40073OCT     C180145   7.600  18.769  23.037 -0.2311 -0.1628  0.3986
40073OCT     C280146   7.694  18.618  22.598 -0.0782  0.2759 -0.0853
40074OCT     C180147  19.471   9.762  14.408  0.1308 -0.1102  0.0431
40074OCT     C280148  19.386  10.075  14.708 -0.0300 -0.0759  0.3809
40075OCT     C180149   3.661   6.372   2.711 -0.2143 -0.2710  0.0306
40075OCT     C280150   3.879   6.601   3.069  0.1476 -0.3861  0.0363
40076OCT     C180151   2.038   2.186  12.377 -0.1967  0.3313  0.3669
40076OCT     C280152   2.172   2.491  12.715  0.0615 -0.2618  0.2237
40077OCT     C180153   5.969   8.992  16.958  0.2665  0.0688 -0.3169
40077OCT     C280154   5.640   9.289  17.157  0.0845  0.2991  0.0588
40078OCT     C180155   7.435   4.211  10.118  0.0757 -0.0890  0.0213
40078OCT     C280156   7.067   3.940   9.936 -0.0524 -0.0531 -0.1512
40079OCT     C180157  22.758   1.933  13.513 -0.1560 -0.1350  0.1337
40079OCT     C280158  22.544   2.152  13.190  0.1982 -0.0682  0.0662
40080OCT     C180159  23.415  12.909  21.931 -0.3771 -0.1505  0.1748
40080OCT     C280160   0.040  12.982  21.629  0.2169 -0.2012  0.2514
40081OCT     C180161   5.881   0.210  20.873  0.0037 -0.4286  0.2845
40081OCT     C280162   5.522  23.675  21.067 -0.2529  0.3025  0.2327
40082OCT     C180163  17.262  15.666  15.638 -0.1419  0.2449 -0.3217
40082OCT     C280164  16.941  15.521  15.376 -0.4662 -0.3575 -0.1480
40083OCT     C180165   5.887  11.046  20.979 -0.3026 -0.1118 -0.1075
40083OCT     C280166   5.943  11.035  20.490  0.0608 -0.1289 -0.3116
40084OCT     C180167   2.069  11.401  20.125  0.0847  0.3805  0.2301
40084OCT     C280168   2.090  11.618  19.718  0.2014 -0.1685 -0.0809
40085OCT     C180169  15.103   4.705   4.866 -0.1686 -0.3098 -0.2701
40085OCT     C280170  15.339   4.909   4.520 -0.0851  0.0674  0.0643
40086OCT     C180171   4.260   3.926   3.908  0.3277 -0.0953  0.1506
40086OCT     C280172   4.688   4.084   3.814  0.0689 -0.0547  0.2029
40087OCT     C180173   4.398  13.477   0.050  0.0431  0.0917 -0.3041
40087OCT     C280174   4.652  13.124   0.288 -0.2349  0.2236  0.0256
40088OCT     C180175   9.069   3.601   9.423  0.0944  0.1021  0.3303
40088OCT     C280176   8.889   3.377   9.828 -0.0226 -0.0627  0.0841
40089OCT     C180177   4.323  15.565   9.826 -0.2106  0.4951  0.1511
40089OCT     C280178   4.169  15.118   9.950 -0.1076  0.1556  0.1634
40090OCT     C180179  16.889   8.679   1.125  0.0320 -0.5180 -0.0901
40090OCT     C280180  16.533   8.895   1.326  0.1339 -0.0294 -0.0126
40091OCT     C180181   7.939  13.769   0.566  0.0339 -0.1122 -0.0739
40091OCT     C280182   7.996  13.867   1.053  0.2132  0.2930 -0.4157
40092OCT     C180183  16.295   8.161   1.716  0.1869 -0.0432 -0.1084
40092OCT     C280184  16.153   7.710   1.803  0.3478 -0.3148  0.1030
40093OCT     C180185  10.924  11.044   2.808  0.4271 -0.0207  0.6007
40093OCT     C280186  10.576  10.802   2.502  0.0059  0.4972 -0.2230
40094OCT     C180187  23.030   1.647  18.890 -0.0149 -0.7440  0.2395
40094OCT     C280188  22.961   1.217  18.776  0.3350  0.2137  0.1405
40095OCT     C180189  12.113   4.025  21.529  0.1571  0.0903  0.0870
40095OCT     C280190  11.881   4.408  21.721 -0.1487  0.1714 -0.2228
40096OCT     C180191  22.965  11.660  12.685  0.1147  0.2554 -0.4645
40096OCT     C280192  23.036  11.901  12.294  0.0450  0.0292 -0.1346
40097OCT     C180193  20.403   0.089   6.801 -0.3359  0.0286 -0.1297
40097OCT     C280194  20.407   0.529   6.598 -0.0295 -0.2345 -0.3486
40098OCT     C180195  22.001  12.915   1.792  0.0363  0.1929  0.2932
40098OCT     C280196  22.364  12.736   1.600  0.0322 -0.1512 -0.2752
40099OCT     C180197   4.482  19.200   4.343  0.2006 -0.2330  0.2275
40099OCT     C280198   4.617  19.028   4.770  0.1930  0.0269 -0.1902
40100OCT     C180199  11.231  10.218   4.334  0.2568  0.3227  0.2956
40100OCT     C280200  11.292   9.990   4.766 -0.0846  0.1235 -0.2074
40101OCT     C180201   8.248   1.493  21.274 -0.0150  0.1461  0.1636
40101OCT     C280202   7.793   1.305  21.275  0.2474  0.2453 -0.2153
40102OCT     C180203  19.174  23.115  19.355  0.2651 -0.0101  0.0230
40102OCT     C280204  18.884  23.192  18.996 -0.0106  0.2389  0.0551
40103OCT     C180205   6.554  12.458   1.309 -0.3295 -0.0525  0.1484
40103OCT     C280206   7.002  12.324   1.273 -0.1127  0.1027 -0.0693
40104OCT     C180207   4.519   7.452   9.293 -0.2901  0.0284  0.1784
40104OCT     C280208   4.601   7.738   9.683  0.2424  0.2439 -0.3078
40105OCT     C180209  16.998   5.511  21.907  0.1002  0.0651  0.1596
40105OCT     C280210  16.604   5.703  21.736 -0.2731 -0.2184  0.1998
40106OCT     C180211  17.928   1.953   3.536 -0.1145  0.1820 -0.0645
40106OCT     C280212  18.085   2.373   3.630  0.2807 -0.0682 -0.0753
40107OCT     C180213  19.338   4.157   9.225 -0.1571  0.2071 -0.0693
40107OCT     C280214  19.332   4.595   9.048  0.1559 -0.1740  0.0282
40108OCT     C180215   2.889   0.734   9.821  0.4807 -0.1050  0.2490
40108OCT     C280216   2.473   0.836   9.625  0.0448  0.1858  0.2784
40109OCT     C180217   0.781  20.340  17.742  0.1804 -0.0255  0.1354
40109OCT     C280218   1.051  20.677  17.563 -0.2304 -0.1072  0.0448
40110OCT     C180219  14.777  10.525   0.458  0.0115 -0.1075 -0.1332
40110OCT     C280220  14.300  10.580   0.434  0.4667  0.1527 -0.0013
40111OCT     C180221   8.382   6.750  16.908  0.0790  0.2888 -0.0266
40111OCT     C280222   8.825   6.875  16.869 -0.2596  0.2460 -0.0496
40112OCT     C180223  23.113  15.607  14.444 -0.0522  0.0270  0.4296
40112OCT     C280224  23.081  15.145  14.415 -0.0254 -0.0556  0.4377
40113OCT     C180225  10.314   3.350   6.329 -0.2678  0.1431  0.0877
40113OCT     C280226  10.378   3.374   6.767  0.1050  0.2325 -0.1371
40114OCT     C180227  19.361   5.979  18.282 -0.0809  0.2292  0.3388
40114OCT     C280228  19.767   6.105  18.208 -0.1873 -0.2942  0.1120
40115OCT     C180229  23.094   5.356   8.315  0.1452  0.0264  0.1627
40115OCT     C280230  23.471   5.655   8.362  0.1448  0.0763 -0.5340
40116OCT     C180231  23.661  10.680   7.334 -0.0553  0.0310 -0.1653
40116OCT     C280232  23.710  11.079   7.568  0.0673 -0.1241 -0.2638
40117OCT     C180233  16.698   5.720  20.060 -0.0399  0.1709  0.3151
40117OCT     C280234  17.158   5.671  20.092 -0.0617 -0.1826 -0.1460
40118OCT     C180235  14.871   6.039   8.639  0.1146  0.0937  0.3300
40118OCT     C280236  14.855   6.076   9.095  0.1155 -0.1222  0.1312
40119OCT     C180237   2.334  14.581  21.943  0.1082  0.2780 -0.1480
40119OCT     C280238   2.689  14.850  22.158 -0.1413 -0.1674  0.0961
40120OCT     C180239   5.373  19.224   0.176 -0.3689 -0.0739 -0.2497
40120OCT     C280240   5.220  18.904   0.465  0.1301 -0.2485  0.0682
40121OCT     C180241   1.691  13.327  23.442 -0.2610  0.0063  0.0717
40121OCT     C280242   2.040  13.068  23.618  0.1297  0.1339 -0.0056
40122OCT     C180243  12.125  10.076   2.000  0.3539 -0.0872  0.0733
40122OCT     C280244  11.844   9.801   1.697 -0.1042 -0.0757 -0.2736
40123OCT     C180245  17.015  18.195   4.851 -0.0651 -0.0123  0.1760
40123OCT     C280246  17.088  18.150   5.396  0.2534 -0.0402 -0.3829
40124OCT     C180247  12.124  16.851  17.036 -0.1549 -0.0068 -0.0789
40124OCT     C280248  11.767  16.486  17.021 -0.3981 -0.0894  0.0586
40125OCT     C180249   9.310   1.439   7.360 -0.1529 -0.2612 -0.1645
40125OCT     C280250   9.550   1.122   7.620 -0.2387 -0.0077  0.1537
40126OCT     C180251   9.458   4.944  14.894 -0.1540 -0.1258  0.1889
40126OCT     C280252   9.899   4.753  14.926 -0.1052 -0.1120 -0.3693
40127OCT     C180253  19.079   2.279   5.350 -0.2825 -0.2973  0.0174
40127OCT     C280254  19.346   2.716   5.303  0.0990 -0.1075  0.0349
40128OCT     C180255   8.688   8.046   7.111  0.3036  0.3992 -0.0897
40128OCT     C280256   8.857   8.244   6.689  0.2942 -0.0115  0.1463
40129OCT     C180257   7.483  21.424  11.833 -0.2499 -0.0484 -0.1019
40129OCT     C280258   7.800  21.695  11.601  0.2073  0.0595 -0.0842
40130OCT     C180259   5.785   5.217  13.016  0.0858 -0.4197  0.0485
40130OCT     C280260   5.724   4.746  13.157  0.1228  0.3352  0.3391
40131OCT     C180261   8.309  21.409   5.763 -0.1280  0.1094 -0.3828
40131OCT     C280262   7.948  21.315   5.472 -0.0660  0.1356 -0.0441
40132OCT     C180263  20.183  20.781  17.003 -0.0980 -0.2685  0.1350
40132OCT     C280264  20.476  20.457  17.222 -0.0176  0.1784 -0.0114
40133OCT     C180265  20.478  15.216  18.473  0.1137 -0.2686  0.0025
40133OCT     C280266  20.350  15.130  18.006 -0.2030  0.0670 -0.2718
40134OCT     C180267  14.563  17.655   1.073  0.1211 -0.3194 -0.1034
40134OCT     C280268  14.859  17.294   1.069 -0.1142  0.2257 -0.1200
40135OCT     C180269  23.443   3.337  22.573  0.2112  0.2976  0.0150
40135OCT     C280270  22.995   3.390  22.770 -0.2423 -0.0066 -0.1250
40136OCT     C180271   9.459  20.809  21.561  0.1067 -0.1278  0.0475
40136OCT     C280272   9.255  20.805  22.002  0.3209  0.1720  0.1713
40137OCT     C180273  20.506  21.674   5.042  0.0153  0.1190  0.0141
40137OCT     C280274  20.388  21.289   4.763  0.1201  0.0307 -0.2081
40138OCT     C180275   1.431  21.123  10.560 -0.4975 -0.0511 -0.0621
40138OCT     C280276   1.917  21.228  10.409  0.1010 -0.1075 -0.1179
40139OCT     C180277   6.781  11.999  17.827 -0.0628  0.0261  0.0357
40139OCT     C280278   6.751  12.059  18.293  0.2385  0.0292  0.1552
40140OCT     C180279  19.267  14.527  14.921 -0.2689  0.1393  0.2029
40140OCT     C280280  18.896  14.821  14.947  0.1295 -0.1962  0.0346
40141OCT     C180281  10.600  20.319  23.710  0.3173 -0.1350  0.1881
40141OCT     C280282  10.852  20.265  23.346 -0.3287 -0.3279  0.1326
40142OCT     C180283   1.172  18.934   0.714 -0.1221 -0.1986  0.1270
40142OCT     C280284   1.394  19.351   0.576  0.0236 -0.1335 -0.4106
40143OCT     C180285   9.560  10.702  21.171  0.4908 -0.1174 -0.2272
40143OCT     C280286   9.581  10.583  20.713 -0.0052 -0.3847 -0.0535
40144OCT     C180287   7.344   0.241  19.941 -0.1225  0.1130 -0.1336
40144OCT     C280288   6.969   0.502  19.788  0.3563  0.0567  0.2116
40145OCT     C180289  22.927  22.928   2.198  0.3909 -0.0802 -0.2736
40145OCT     C280290  23.328  22.764   2.271  0.0686 -0.1346  0.1707
40146OCT     C180291   0.444  19.285  21.340 -0.1455  0.2059 -0.0947
40146OCT     C280292   0.096  19.616  21.253 -0.0769  0.2318 -0.4211
40147OCT     C180293   9.369  22.708  20.917  0.0203 -0.0018  0.2103
40147OCT     C280294   8.975  23.003  20.910  0.0720  0.0434 -0.1696
40148OCT     C180295   0.513  10.011   7.296  0.3509  0.0785 -0.1180
40148OCT     C280296   0.325  10.393   7.516  0.1191  0.1709  0.2369
40149OCT     C180297  11.740  21.982   8.179  0.0788 -0.1903  0.1944
40149OCT     C280298  11.562  21.715   8.454 -0.1098  0.3518 -0.0680
40150OCT     C180299  23.240  23.506   3.150  0.3204 -0.1835  0.0432
40150OCT     C280300  23.093   0.189   3.075 -0.0299 -0.3473 -0.2326
40151OCT     C180301   1.412  12.529  12.731 -0.0457  0.3072 -0.1032
40151OCT     C280302   1.727  12.708  12.983 -0.0769 -0.1121  0.3057
40152OCT     C180303  17.705   9.992  15.445  0.0370 -0.0921  0.0775
40152OCT     C280304  17.495   9.667  15.618 -0.0125  0.0019 -0.0118
40153OCT     C180305   1.325   0.478  16.175  0.3550  0.1058 -0.1157
40153OCT     C280306   1.170   0.341  16.580 -0.2902  0.1178 -0.2704
40154OCT     C180307   9.037  14.507   4.191  0.0919  0.2267 -0.1160
40154OCT     C280308   9.076  14.105   4.014  0.5419  0.5004 -0.1451
40155OCT     C180309  12.842  12.358  11.573 -0.3302 -0.0248  0.1050
40155OCT     C280310  13.127  11.974  11.452  0.0697 -0.2259  0.3870
40156OCT     C180311  18.116  14.193  13.020  0.0457 -0.5929  0.0865
40156OCT     C280312  17.951  14.472  12.707 -0.2019 -0.2018 -0.3608
40157OCT     C180313  22.132   2.357   3.288 -0.1375 -0.1351 -0.4305
40157OCT     C280314  22.468   1.997   3.501  0.2771 -0.2240  0.0658
40158OCT     C180315   0.678  14.321  14.086  0.0926 -0.1005  0.1860
40158OCT     C280316   0.685  14.728  14.355 -0.0379 -0.0353  0.2957
40159OCT     C180317  23.490  15.036  17.848  0.0840 -0.3726  0.2151
40159OCT     C280318  23.192  15.280  18.081  0.3842  0.1524  0.0858
40160OCT     C180319   5.180  13.509  14.683  0.0676  0.2119  0.1483
40160OCT     C280320   5.236  12.999  14.745  0.0348 -0.3751  0.1225
40161OCT     C180321   0.321  12.695  11.165 -0.2886 -0.3445 -0.2305
40161OCT     C280322   0.451  12.827  11.617  0.0491  0.1958  0.1296
40162OCT     C180323  10.520  10.226   1.769  0.0521 -0.3399 -0.1471
40162OCT     C280324  10.530   9.787   1.518 -0.2048  0.0534  0.3448
40163OCT     C180325  16.994  19.198  18.401  0.2980  0.2744 -0.0773
40163OCT     C280326  17.037  18.808  18.718 -0.1670  0.0471  0.0299
40164OCT     C180327   5.581  21.275   2.699  0.3506 -0.0124 -0.0383
40164OCT     C280328   5.757  21.432   3.136  0.0923  0.0407 -0.0212
40165OCT     C180329  20.487  23.215   1.311 -0.0544  0.2185 -0.1625
40165OCT     C280330  20.821  23.446   1.230 -0.0573 -0.3132 -0.1315
40166OCT     C180331  13.521   5.753   4.505 -0.1153 -0.5099 -0.1836
40166OCT     C280332  13.091   5.573   4.300 -0.2390 -0.0905 -0.1437
40167OCT     C180333  18.208   5.085  22.250  0.1031  0.1995  0.1237
40167OCT     C280334  18.254   4.706  22.518  0.1040  0.3964  0.3478
40168OCT     C180335  19.254  12.372  19.349  0.0241  0.2056  0.4623
40168OCT     C280336  19.142  12.517  19.816  0.1371  0.0359 -0.0851
40169OCT     C180337  12.160  21.968   3.981 -0.1080  0.0662 -0.1362
40169OCT     C280338  12.147  22.441   4.050  0.2877  0.0091 -0.0760
40170OCT     C180339  21.901  21.989   0.950  0.4177  0.1665  0.1605
40170OCT     C280340  22.282  22.085   0.683 -0.0274  0.2002  0.1280
40171OCT     C180341  14.129   2.782   1.553  0.1582  0.0643 -0.1301
40171OCT     C280342  14.379   3.163   1.660  0.0613 -0.2941  0.0769
40172OCT     C180343  19.228   0.437  19.459  0.2216 -0.0431  0.1315
40172OCT     C280344  18.990   0.122  19.240 -0.1761 -0.1264  0.0131
40173OCT     C180345  21.199  14.543  14.463 -0.0096  0.1509  0.0367
40173OCT     C280346  21.633  14.552  14.316 -0.0310  0.0619 -0.2781
40174OCT     C180347   0.700  22.216   5.655  0.2233  0.2603 -0.0220
40174OCT     C280348   0.411  22.599   5.612  0.3400  0.1882 -0.1206
40175OCT     C180349   6.915  15.912  22.717  0.0459  0.0825  0.0487
40175OCT     C280350   7.102  16.316  22.464  0.0797  0.2042  0.2091
40176OCT     C180351   4.803  19.326  12.110  0.1582  0.0870 -0.2906
40176OCT     C280352   4.673  19.222  12.546  0.0728 -0.1736  0.4377
40177OCT     C180353   3.077   6.493  19.271  0.6973 -0.6001 -0.0636
40177OCT     C280354   2.658   6.579  19.305  0.1916  0.0817 -0.1073
40178OCT     C180355  19.194  23.707  12.381  0.1227  0.1335  0.4360
40178OCT     C280356  19.548   0.078  12.625  0.3089  0.5264  0.2823
40179OCT     C180357  16.226   7.786  21.804 -0.0084 -0.0673  0.3444
40179OCT     C280358  16.413   7.933  21.381  0.3079  0.1829  0.1178
40180OCT     C180359  13.140  17.642  22.328  0.1904  0.0552  0.1490
40180OCT     C280360  12.753  17.859  22.399  0.0861 -0.1069  0.1893
40181OCT     C180361   2.719  16.907  22.533  0.1243 -0.0913 -0.1165
40181OCT     C280362   2.579  17.353  22.629  0.2896  0.1885 -0.2986
40182OCT     C180363  16.151  22.407  23.654  0.1929 -0.4009 -0.2531
40182OCT     C280364  15.951  21.975   0.031 -0.2463 -0.1206  0.0274
40183OCT     C180365  23.490  15.559  21.890  0.1755 -0.2718  0.2506
40183OCT     C280366  23.016  15.585  22.006 -0.1791  0.0051 -0.0872
40184OCT     C180367  10.792   3.445   9.189 -0.2981  0.0552 -0.1028
40184OCT     C280368  10.608   3.602   9.602  0.2002 -0.3959  0.1808
40185OCT     C180369   1.725  21.657  19.435  0.1514  0.2290 -0.1376
40185OCT     C280370   1.304  21.877  19.442 -0.2524  0.1018 -0.1781
40186OCT     C180371   9.711   9.569  18.120  0.0058  0.4399 -0.5860
40186OCT     C280372   9.980   9.851  18.427 -0.1840  0.0379  0.0075
40187OCT     C180373  10.659  17.888  23.047  0.0959  0.1801  0.2047
40187OCT     C280374  10.707  17.900  23.524 -0.1150 -0.2318  0.0117
40188OCT     C180375   1.951   6.879   7.903 -0.0257 -0.0724 -0.0953
40188OCT     C280376   2.314   6.857   8.207 -0.3010 -0.1493  0.5144
40189OCT     C180377  10.671  18.646  15.950  0.2759 -0.2675 -0.2987
40189OCT     C280378  10.327  18.480  15.657 -0.1319  0.0078 -0.3243
40190OCT     C180379  16.091  15.998   0.417 -0.2952  0.2410 -0.2340
40190OCT     C280380  16.401  15.957   0.074  0.1802 -0.1878  0.1154
40191OCT     C180381   4.058   4.009  19.790  0.1209  0.0173  0.0171
40191OCT     C280382   3.651   3.856  20.020  0.0624 -0.1192  0.1526
40192OCT     C180383  13.620  14.470   0.023  0.1237 -0.0714 -0.1684
40192OCT     C280384  13.250  14.104  23.719  0.3051  0.0990  0.2353
40193OCT     C180385  17.204   1.814  20.440 -0.1266 -0.0067  0.1455
40193OCT     C280386  17.448   1.412  20.317 -0.0820 -0.0771 -0.0655
40194OCT     C180387  11.894   0.405  19.286  0.0881  0.4376  0.0295
40194OCT     C280388  12.115   0.805  19.101 -0.4086  0.0528 -0.0811
40195OCT     C180389  19.371  20.829   2.589  0.1788  0.3374 -0.3090
40195OCT     C280390  19.112  21.176   2.331 -0.0963  0.1939 -0.0965
40196OCT     C180391  19.861  21.534   9.265  0.1295  0.2490  0.2654
40196OCT     C280392  19.472  21.741   9.402 -0.0504  0.3233  0.1172
40197OCT     C180393  14.057   0.597  13.253 -0.2686  0.0534  0.1701
40197OCT     C280394  14.473   0.435  13.451 -0.0179 -0.0419 -0.1326
40198OCT     C180395   5.845  11.385   1.306 -0.3558  0.0350 -0.2569
40198OCT     C280396   5.574  11.066   1.089 -0.0055  0.0994 -0.0469
40199OCT     C180397  16.229   8.694  16.161 -0.1204 -0.0628 -0.0792
40199OCT     C280398  16.316   9.177  15.981 -0.1855 -0.0578  0.1141
40200OCT     C180399  15.848   5.716  16.803  0.1070 -0.1583 -0.0271
40200OCT     C280400  15.727   6.210  16.639  0.0209  0.0403  0.2441
40201OCT     C180401   7.351   9.002   9.851 -0.2123 -0.0199  0.1951
40201OCT     C280402   6.995   8.988   9.583 -0.2540 -0.0745  0.2788
40202OCT     C180403   5.167  17.513   0.257 -0.2449 -0.1281 -0.0675
40202OCT     C280404   5.463  17.310  23.680 -0.2013 -0.2215 -0.2956
40203OCT     C180405   4.965  10.956  20.704 -0.1309  0.3393  0.0499
40203OCT     C280406   4.617  11.225  20.506 -0.3067  0.5632  0.0316
40204OCT     C180407  19.909   3.670   6.479 -0.1768  0.1379 -0.1628
40204OCT     C280408  19.631   3.964   6.612 -0.0988 -0.0073 -0.1555
40205OCT     C180409  13.804   2.691  21.102  0.3054 -0.2966 -0.0194
40205OCT     C280410  13.997   2.302  21.330 -0.1798  0.0907 -0.0530
40206OCT     C180411   1.514   8.105  20.698  0.3444  0.2203  0.2628
40206OCT     C280412   1.507   7.871  20.285 -0.0482  0.1327 -0.2596
40207OCT     C180413   4.669   1.395   0.649 -0.4841 -0.0216 -0.4225
40207OCT     C280414   5.110   1.513   0.603  0.0219  0.1465 -0.0873
40208OCT     C180415  21.908  21.623  10.437  0.1366 -0.1578 -0.4091
40208OCT     C280416  21.717  21.703  10.028  0.2543 -0.2142  0.1381
40209OCT     C180417   1.721  13.001   4.348 -0.0900  0.4367 -0.2896
40209OCT     C280418   1.572  12.568   4.108 -0.5589 -0.2324 -0.2572
40210OCT     C180419  22.695  13.884   4.445 -0.0181 -0.1217  0.1437
40210OCT     C280420  23.069  14.157   4.513  0.0800 -0.0231  0.2273
40211OCT     C180421  19.443  19.780   5.706 -0.0319  0.1690  0.0917
40211OCT     C280422  19.057  19.963   5.784 -0.0404  0.3978  0.0501
40212OCT     C180423  10.956   9.456  18.879  0.2776 -0.1058 -0.2405
40212OCT     C280424  10.566   9.751  18.839  0.0385  0.3855  0.3488
40213OCT     C180425   2.079   5.024   7.306  0.0569  0.2823 -0.2319
40213OCT     C280426   2.149   5.003   7.796  0.0319 -0.0211 -0.0046
40214OCT     C180427  14.036   7.168  13.574  0.1063  0.0070 -0.0265
40214OCT     C280428  14.457   7.262  13.673  0.0172 -0.4187  0.2878
40215OCT     C180429   0.229   7.295  11.062 -0.1075  0.1067 -0.0782
40215OCT     C280430   0.288   7.585  10.713 -0.5128  0.2532  0.1408
40216OCT     C180431   6.032   0.467  22.254  0.2683 -0.0310 -0.0593
40216OCT     C280432   5.937   0.786  22.579 -0.2602  0.1449  0.2188
40217OCT     C180433  18.212   6.182   6.014 -0.0980  0.2644  0.0560
40217OCT     C280434  18.285   6.286   6.530  0.3202 -0.0457 -0.1147
40218OCT     C180435  20.237   1.206   1.565  0.3714  0.1023 -0.0541
40218OCT     C280436  20.350   1.369   1.130 -0.0765 -0.0892 -0.2520
40219OCT     C180437  15.244  17.813   9.874  0.1890 -0.2468  0.1281
40219OCT     C280438  14.960  18.118  10.098  0.0922 -0.1030 -0.1646
40220OCT     C180439  15.836  18.314  11.126  0.5274  0.0197 -0.0034
40220OCT     C280440  15.885  18.571  10.720 -0.0059  0.4348  0.0354
40221OCT     C180441   3.809  16.576   3.810  0.1005  0.3106  0.0259
40221OCT     C280442   3.703  16.061   3.678 -0.1622  0.2498 -0.2995
40222OCT     C180443   9.015  23.615   2.493 -0.0814 -0.2794  0.0481
40222OCT     C280444   8.572  23.546   2.689 -0.5165 -0.1508 -0.2449
40223OCT     C180445  21.908  13.644  11.439  0.2474  0.0249 -0.1501
40223OCT     C280446  22.060  13.597  11.882 -0.0755 -0.0486 -0.2670
40224OCT     C180447   2.567   3.008   7.214 -0.2721 -0.2631  0.3667
40224OCT     C280448   2.777   2.606   7.139  0.1081 -0.2432 -0.2321
40225OCT     C180449  14.571  13.867  15.559 -0.2368 -0.0300  0.2306
40225OCT     C280450  14.683  13.806  15.990 -0.0625 -0.1903  0.1661
40226OCT     C180451   4.714   3.799   3.007  0.0303 -0.0907  0.4833
40226OCT     C280452   4.988   3.924   3.396 -0.0556  0.1886 -0.1716
40227OCT     C180453   7.236  11.060   4.722 -0.1146 -0.2413  0.3496
40227OCT     C280454   7.426  10.630   4.780  0.1363 -0.0037  0.2941
40228OCT     C180455  22.552  19.687  19.148  0.5008  0.0940  0.1171
40228OCT     C280456  22.406  19.298  19.023 -0.3705 -0.1024  0.0581
40229OCT     C180457  16.033   6.509  17.786 -0.0062  0.0156  0.2563
40229OCT     C280458  16.033   6.252  17.385  0.0694 -0.1638  0.5361
40230OCT     C180459  23.204   9.903  16.352  0.1115  0.2924  0.0842
40230OCT     C280460  23.351   9.423  16.272  0.0746 -0.1032  0.2821
40231OCT     C180461  13.503  23.425  10.775  0.2059 -0.1637  0.2542
40231OCT     C280462  13.564  23.338  11.245 -0.1680 -0.0008 -0.2811
40232OCT     C180463   5.484  14.479   3.137 -0.1114 -0.2359  0.2231
40232OCT     C280464   5.303  14.746   3.494  0.3722  0.2948 -0.0119
40233OCT     C180465   4.142   3.720   6.728 -0.2241 -0.2290  0.3752
40233OCT     C280466   4.380   3.764   6.304 -0.2555 -0.0845  0.1906
40234OCT     C180467  21.540   1.456   8.192  0.1168 -0.0157 -0.1280
40234OCT     C280468  21.345   1.901   8.129 -0.1758  0.1953 -0.1121
40235OCT     C180469   7.791   7.738   8.057  0.4427 -0.1702  0.1223
40235OCT     C280470   7.900   7.996   7.654 -0.0269  0.0685 -0.1119
40236OCT     C180471  12.967   5.590   6.652  0.0829  0.2456 -0.2585
40236OCT     C280472  12.573   5.774   6.604 -0.0406 -0.3646  0.3090
40237OCT     C180473  19.907   3.355  11.743  0.1337  0.1084 -0.1053
40237OCT     C280474  19.693   3.788  11.657 -0.0049  0.0162 -0.2471
40238OCT     C180475   0.354   0.716  14.557  0.0808 -0.1078  0.0210
40238OCT     C280476   0.123   1.138  14.586  0.1013 -0.0399  0.0865
40239OCT     C180477   6.497   7.394   6.308 -0.0700 -0.2763 -0.2792
40239OCT     C280478   6.303   7.067   6.040 -0.0294 -0.1909 -0.3799
40240OCT     C180479   5.210   8.462   1.682 -0.4456 -0.0516  0.7432
40240OCT     C280480   5.630   8.658   1.537  0.0580  0.1562 -0.1133
40241OCT     C180481   3.962   0.270   7.490 -0.3272 -0.1291 -0.1541
40241OCT     C280482   4.109  23.605   7.415  0.0599 -0.0590 -0.1909
40242OCT     C180483   1.888  19.447  11.148 -0.4396 -0.0761  0.0283
40242OCT     C280484   1.684  19.456  11.562  0.0676 -0.0645  0.0647
40243OCT     C180485  21.525   4.254   8.483 -0.0653 -0.1325  0.3242
40243OCT     C280486  21.248   4.429   8.798 -0.0633 -0.0994  0.1633
40244OCT     C180487  23.561   5.470  21.546  0.0338 -0.1868  0.0595
40244OCT     C280488   0.041   5.098  21.382 -0.0179 -0.3237 -0.6164
40245OCT     C180489  10.110  15.242   9.846 -0.0744 -0.1684 -0.0123
40245OCT     C280490   9.765  15.176   9.622 -0.3131 -0.0926 -0.3331
40246OCT     C180491   3.637  14.722  17.020 -0.4376  0.2027  0.0381
40246OCT     C280492   3.530  15.065  16.685  0.0893 -0.1001  0.5646
40247OCT     C180493   9.817   9.545   1.378 -0.2932 -0.1685 -0.1702
40247OCT     C280494  10.012   9.277   1.764  0.0585  0.1602  0.2097
40248OCT     C180495  21.335   1.870   3.476 -0.1455 -0.1843  0.1287
40248OCT     C280496  21.168   2.078   3.092 -0.0218 -0.1174 -0.1363
40249OCT     C180497  11.990  11.477  16.109  0.0563  0.5162 -0.1885
40249OCT     C280498  12.310  11.309  16.396  0.0307  0.2570  0.0833
40250OCT     C180499  11.984  20.200  10.918 -0.3353 -0.3608 -0.1600
40250OCT     C280500  11.873  19.806  10.975  0.0511 -0.0124 -0.2695
40251OCT     C180501  22.656   9.762  14.956  0.0582 -0.2193 -0.2953
40251OCT     C280502  22.791   9.449  14.640 -0.1984  0.0999  0.0126
40252OCT     C180503  20.624   7.187  11.228  0.1826  0.0131  0.4139
40252OCT     C280504  20.138   7.311  11.333  0.1650 -0.2012  0.1034
40253OCT     C180505  11.202  16.101   7.951  0.3048 -0.1962  0.0785
40253OCT     C280506  11.188  16.470   8.159 -0.5069  0.1675 -0.2513
40254OCT     C180507   3.680  15.732   8.792  0.1472 -0.1107 -0.1589
40254OCT     C280508   3.893  15.995   9.137 -0.0098  0.0233  0.2290
40255OCT     C180509   3.834  18.269  14.737  0.0330 -0.2385 -0.1430
40255OCT     C280510   3.588  17.998  15.057 -0.2867 -0.0272 -0.0650
40256OCT     C180511   6.501   6.710   7.210 -0.0103  0.4723 -0.4245
40256OCT     C280512   6.826   6.705   7.647 -0.1322 -0.1612  0.2087
40257OCT     C180513  17.188   2.349   5.859 -0.1061 -0.1431  0.2909
40257OCT     C280514  17.551   2.561   5.655  0.2396  0.3426  0.1764
40258OCT     C180515   9.992  10.882   9.426 -0.0228  0.0090  0.1932
40258OCT     C280516  10.040  10.422   9.419  0.0835  0.2611  0.2664
40259OCT     C180517  10.836   5.672   7.052 -0.1308  0.2652 -0.1856
40259OCT     C280518  11.088   5.446   6.799  0.1189  0.0137 -0.0663
40260OCT     C180519  18.338   4.216  22.086 -0.2248  0.0269 -0.0915
40260OCT     C280520  18.627   4.601  22.037 -0.0420 -0.1494  0.0966
40261OCT     C180521  10.256   1.078  22.098 -0.0695  0.2415 -0.0883
40261OCT     C280522  10.661   0.965  22.242 -0.0395  0.0490 -0.0066
40262OCT     C180523   9.984   5.492   7.027  0.0559 -0.3556  0.0234
40262OCT     C280524  10.354   5.547   7.289  0.1227 -0.1994 -0.2263
40263OCT     C180525  11.734  14.763  13.694  0.0281  0.0177 -0.1238
40263OCT     C280526  11.711  14.330  13.920 -0.0839 -0.1058 -0.2831
40264OCT     C180527  10.062  13.566  14.223  0.3275 -0.2505 -0.1804
40264OCT     C280528   9.662  13.366  14.431  0.0192 -0.4484  0.1328
40265OCT     C180529  12.796   7.036   4.792  0.1485 -0.2597 -0.4625
40265OCT     C280530  13.121   7.390   4.747 -0.0760 -0.3783 -0.1269
40266OCT     C180531  10.219  19.598   9.549  0.0765  0.3428  0.0714
40266OCT     C280532  10.405  19.516   9.150 -0.0159  0.0252  0.1434
40267OCT     C180533   1.875  14.142   6.306 -0.1361  0.0917 -0.1681
40267OCT     C280534   1.863  14.368   5.869 -0.4263  0.3265  0.3187
40268OCT     C180535   6.886  18.854  23.705  0.4525 -0.1925  0.1288
40268OCT     C280536   6.418  18.797   0.061  0.1858 -0.0133  0.1185
40269OCT     C180537   7.487   8.402  21.117 -0.1129 -0.1291  0.0827
40269OCT     C280538   7.589   8.016  21.296  0.4058  0.3291 -0.0403
40270OCT     C180539  13.412  22.742  22.909  0.1609 -0.0323 -0.0076
40270OCT     C280540  13.495  22.295  23.084 -0.0377  0.0544  0.0991
40271OCT     C180541  12.554  19.677  17.393  0.0503 -0.4163  0.2788
40271OCT     C280542  12.756  20.117  17.355 -0.1344 -0.0359 -0.2184
40272OCT     C180543  13.181  14.721  15.844  0.1759  0.4071  0.2611
40272OCT     C280544  13.500  14.554  15.525 -0.0384 -0.1601  0.1483
40273OCT     C180545  18.004  23.674   3.479 -0.3718 -0.0985 -0.0608
40273OCT     C280546  17.889   0.316   3.248 -0.0624  0.3109  0.2973
40274OCT     C180547  15.907  17.556  17.040  0.0152  0.1280  0.0665
40274OCT     C280548  16.087  17.530  16.605  0.2390  0.0890  0.2067
40275OCT     C180549   5.806  13.516   0.211 -0.2960  0.0360  0.2772
40275OCT     C280550   6.051  13.467  23.508  0.1500  0.0676  0.3383
40276OCT     C180551  23.469  19.464   1.759 -0.0595  0.0641  0.4207
40276OCT     C280552  23.056  19.777   1.730  0.2361  0.4938  0.0245
40277OCT     C180553  21.447  15.956  16.142 -0.1287  0.0208 -0.1918
40277OCT     C280554  21.571  15.492  16.085  0.1023  0.0705  0.2528
40278OCT     C180555  19.218  18.616  22.923 -0.5111  0.1829 -0.3955
40278OCT     C280556  19.408  18.795  22.558  0.0635  0.0783  0.1660
40279OCT     C180557  10.208  20.902   2.067 -0.0088  0.1572  0.1649
40279OCT     C280558  10.486  21.365   2.012 -0.1107  0.3851  0.0737
40280OCT     C180559  13.184   4.472  18.061  0.1274  0.0736 -0.3388
40280OCT     C280560  13.432   4.040  18.225 -0.1186 -0.0852 -0.1473
40281OCT     C180561  11.403  19.888  19.782 -0.1340 -0.3146 -0.2770
40281OCT     C280562  11.320  20.044  20.214  0.0658 -0.1161  0.0557
40282OCT     C180563   0.608  10.671   0.762  0.3287  0.0913 -0.0742
40282OCT     C280564   0.558  10.192   0.721  0.3539 -0.1144 -0.0790
40283OCT     C180565  13.864  12.570   2.696 -0.3148  0.0429 -0.1081
40283OCT     C280566  13.744  12.696   2.267  0.0699 -0.3777  0.0512
40284OCT     C180567  22.153   6.070  23.178 -0.1756  0.0390 -0.2120
40284OCT     C280568  22.320   5.780  22.820  0.2293 -0.1695  0.5240
40285OCT     C180569   6.537   1.807   6.193 -0.0469 -0.0390  0.1717
40285OCT     C280570   6.509   1.638   5.718  0.1482 -0.4038  0.0443
40286OCT     C180571   7.382  20.797   7.742 -0.0745 -0.2852 -0.1998
40286OCT     C280572   7.515  20.752   7.383  0.1477  0.1570  0.2195
40287OCT     C180573   7.067  11.506  13.024 -0.2128  0.0963  0.0198
40287OCT     C280574   7.164  11.335  12.567  0.0291  0.3237 -0.0964
40288OCT     C180575   4.384  22.707   6.447 -0.0167 -0.0262  0.3350
40288OCT     C280576   4.177  22.997   6.744 -0.0044 -0.2288 -0.0501
40289OCT     C180577  10.654   1.596  17.080 -0.2569 -0.2980 -0.1122
40289OCT     C280578  10.477   1.158  17.135  0.1868  0.0404 -0.1675
40290OCT     C180579   5.906  15.376   9.341  0.1803 -0.1831 -0.1198
40290OCT     C280580   6.104  15.369   9.784 -0.0376  0.3139  0.0071
40291OCT     C180581  12.342   5.521  11.425  0.0469 -0.0139  0.2271
40291OCT     C280582  12.597   5.462  11.052  0.5002 -0.0190  0.1705
40292OCT     C180583  19.350  19.389  20.235 -0.0214 -0.2054  0.1504
40292OCT     C280584  19.620  19.541  19.922 -0.3283 -0.0778  0.1545
40293OCT     C180585  21.904  19.446  14.022  0.1314 -0.1809 -0.1098
40293OCT     C280586  22.146  19.127  14.264 -0.1888  0.0914 -0.1246
40294OCT     C180587  10.448  20.550  21.627  0.2353  0.0585  0.5391
40294OCT     C280588  10.854  20.282  21.690  0.2669 -0.1057 -0.2984
40295OCT     C180589  21.582  17.366   8.955 -0.1141 -0.0902  0.1538
40295OCT     C280590  21.153  17.458   9.041  0.4398  0.1782  0.2903
40296OCT     C180591   9.472   0.254  22.710  0.1960  0.0884 -0.2517
40296OCT     C280592   9.159   0.009  22.533  0.1643 -0.1922 -0.2506
40297OCT     C180593  16.663  14.605   6.086 -0.0671  0.3203  0.1346
40297OCT     C280594  16.515  14.173   6.144 -0.1961  0.1364  0.3735
40298OCT     C180595  20.537   3.768  14.809 -0.3505  0.0470 -0.1763
40298OCT     C280596  20.299   3.846  14.434  0.2029  0.0013 -0.1643
40299OCT     C180597  12.029   9.598   1.190 -0.5250 -0.0689 -0.1369
40299OCT     C280598  11.832   9.302   0.870 -0.0616  0.3239 -0.2473
40300OCT     C180599   2.299   2.927  20.368  0.1032  0.2300  0.0388
40300OCT     C280600   2.525   3.297  20.496 -0.3089  0.0124 -0.2174
40301OCT     C180601  11.476  13.374   1.796 -0.0667 -0.1864 -0.0500
40301OCT     C280602  11.370  13.712   2.126 -0.2467 -0.1637  0.1211
40302OCT     C180603  10.811   0.180  18.601  0.1308 -0.3582  0.6960
40302OCT     C280604  10.750  23.474  18.451 -0.0520  0.1090  0.1784
40303OCT     C180605   2.576  12.175  19.188 -0.0585  0.2540 -0.2794
40303OCT     C280606   3.016  12.289  19.125 -0.3342  0.1630 -0.0934
40304OCT     C180607  16.628  16.585  16.907  0.1381 -0.1412  0.0404
40304OCT     C280608  16.540  16.317  16.595  0.2015  0.1370  0.3597
40305OCT     C180609   8.723   8.256  20.268 -0.0614 -0.4407 -0.1036
40305OCT     C280610   8.404   7.897  20.166 -0.4230  0.1100  0.0253
40306OCT     C180611  10.218  22.866   8.436 -0.0410 -0.1176  0.0560
40306OCT     C280612  10.641  22.982   8.335  0.0747 -0.1997  0.2861
40307OCT     C180613   0.696  12.528  16.270 -0.3200  0.1365 -0.1482
40307OCT     C280614   0.972  12.868  16.441  0.3566 -0.0697 -0.1762
40308OCT     C180615   7.259  16.066   0.403  0.1899 -0.2308 -0.0353
40308OCT     C280616   6.983  16.055   0.793  0.2162  0.2280 -0.0361
40309OCT     C180617   8.287   1.952   8.021 -0.2988  0.1763  0.1450
40309OCT     C280618   8.112   1.825   7.551  0.2219  0.0554 -0.2644
40310OCT     C180619  17.450  10.629  21.696 -0.0796 -0.1416 -0.2407
40310OCT     C280620  17.739  10.934  21.634  0.1474  0.0962 -0.1524
40311OCT     C180621  19.555  20.505  20.900 -0.0645  0.1532  0.0743
40311OCT     C280622  19.486  20.845  21.240 -0.1351 -0.2172  0.1314
40312OCT     C180623  17.936   7.655  14.753  0.1575 -0.1903 -0.0011
40312OCT     C280624  17.558   7.917  14.893 -0.0013 -0.3407 -0.0415
40313OCT     C180625   8.884  22.226  23.498  0.0093 -0.0927 -0.1588
40313OCT     C280626   8.463  22.228  23.636  0.2499 -0.1864 -0.3833
40314OCT     C180627   9.450  11.944  23.634 -0.0925  0.1366  0.3325
40314OCT     C280628   9.502  11.914  23.181 -0.1784 -0.0907 -0.4349
40315OCT     C180629   2.433   7.207   2.234 -0.0030  0.0560 -0.3972
40315OCT     C280630   2.014   7.037   2.316 -0.1599 -0.0552 -0.0981
40316OCT     C180631   9.373  10.415   4.936  0.0820 -0.1188  0.1563
40316OCT     C280632   9.032  10.190   4.774  0.0861  0.0539 -0.0050
40317OCT     C180633   8.438   3.692   1.064 -0.1505 -0.2956 -0.0569
40317OCT     C280634   8.676   4.021   0.798 -0.1722  0.0472 -0.2210
40318OCT     C180635   8.166  19.262   5.591 -0.4530 -0.1290  0.0204
40318OCT     C280636   7.865  19.351   5.875 -0.2295 -0.2476 -0.0241
40319OCT     C180637  16.383  16.439  23.501  0.2228  0.2025 -0.4204
40319OCT     C280638  16.040  16.821  23.583 -0.1438 -0.0762  0.3074
40320OCT     C180639  13.451   1.671   7.678  0.0254 -0.1269  0.0790
40320OCT     C280640  13.543   1.339   7.383 -0.2203 -0.0874  0.0575
40321OCT     C180641   2.929   8.016  10.470 -0.1506 -0.1710  0.1448
40321OCT     C280642   2.538   8.256  10.552  0.0727  0.0777 -0.0770
40322OCT     C180643   3.778   4.287   2.664 -0.3189  0.1248  0.3654
40322OCT     C280644   3.368   4.337   2.911  0.0368 -0.1440 -0.2078
40323OCT     C180645  22.348  11.972  12.561  0.0920  0.0788 -0.0687
40323OCT     C280646  22.712  12.288  12.516  0.3463  0.4158 -0.0077
40324OCT     C180647  10.892  21.860  19.359 -0.0325  0.0391 -0.2529
40324OCT     C280648  11.013  22.141  19.740 -0.0299  0.1680 -0.0211
40325OCT     C180649  15.036  20.688   9.530  0.0527  0.0896 -0.1284
40325OCT     C280650  15.294  20.332   9.656  0.0473 -0.1289 -0.4257
40326OCT     C180651  10.752   3.856  22.006 -0.2304  0.2928 -0.2525
40326OCT     C280652  10.450   4.183  21.917 -0.2292 -0.1224  0.2879
40327OCT     C180653  11.931  11.625  19.429  0.1539 -0.1477  0.1773
40327OCT     C280654  12.109  11.238  19.373 -0.2537  0.1546  0.0710
40328OCT     C180655   3.180  14.516   5.593 -0.1510  0.0575  0.1598
40328OCT     C280656   3.450  14.461   5.901 -0.1227 -0.0105  0.2403
40329OCT     C180657  10.169  15.457   7.190 -0.1110  0.2021  0.1491
40329OCT     C280658   9.879  15.526   6.900 -0.0201  0.2373  0.2571
40330OCT     C180659   9.189  12.401  18.791 -0.0337 -0.2713  0.2899
40330OCT     C280660   9.528  12.300  18.551  0.2563 -0.3368  0.4186
40331OCT     C180661   9.065  10.250  18.258 -0.0682  0.0793 -0.2141
40331OCT     C280662   9.465  10.054  18.256 -0.0198  0.1741  0.0045
40332OCT     C180663   9.406   3.740  15.424  0.3245  0.1391 -0.0667
40332OCT     C280664   9.661   3.852  15.056 -0.2255  0.3343  0.1577
40333OCT     C180665  20.745  18.521  19.791  0.0610 -0.4040  0.0665
40333OCT     C280666  20.678  18.618  20.266  0.1541  0.0770 -0.0772
40334OCT     C180667   2.246   7.298  22.436  0.5392 -0.4299 -0.0516
40334OCT     C280668   2.466   6.848  22.236  0.0172 -0.0667  0.1101
40335OCT     C180669  19.396   9.024  10.104 -0.2602 -0.1090 -0.4242
40335OCT     C280670  19.146   9.305   9.864  0.1123  0.1314 -0.5733
40336OCT     C180671   5.546  18.325  11.172  0.1000 -0.1688 -0.1155
40336OCT     C280672   5.171  18.053  11.077  0.0593 -0.0051 -0.2741
40337OCT     C180673  16.963   4.548   1.432  0.2520 -0.2387 -0.0523
40337OCT     C280674  17.155   4.670   1.840  0.0854 -0.1408  0.3257
40338OCT     C180675  18.239   7.879  23.678 -0.0915 -0.1400 -0.1111
40338OCT     C280676  18.083   8.300  23.472 -0.0199  0.0444  0.0737
40339OCT     C180677   7.309  16.788  20.164  0.1453  0.2948  0.2904
40339OCT     C280678   7.085  16.692  20.574 -0.3055  0.1231  0.0020
40340OCT     C180679  21.426  17.929  20.686 -0.1745 -0.1792 -0.4548
40340OCT     C280680  20.930  17.936  20.753 -0.0089  0.1401 -0.1725
40341OCT     C180681   3.807  23.134  11.090  0.0528  0.0594  0.0199
40341OCT     C280682   3.858  23.338  10.700  0.0381 -0.0417 -0.1788
40342OCT     C180683   0.931  23.065   4.731 -0.1019 -0.0262 -0.0985
40342OCT     C280684   0.919  22.990   5.170 -0.1322 -0.2124  0.1924
40343OCT     C180685  20.044   9.125  17.930  0.0143  0.0458  0.0617
40343OCT     C280686  19.595   9.190  17.939 -0.2033  0.1050 -0.2461
40344OCT     C180687  17.500   4.712  16.866  0.1362 -0.0031  0.0201
40344OCT     C280688  17.867   4.999  16.983 -0.2181  0.0156  0.3024
40345OCT     C180689   7.474  19.225   5.644 -0.0036  0.0903  0.2671
40345OCT     C280690   7.249  19.608   5.472 -0.2848  0.0705  0.0449
40346OCT     C180691   6.123  12.196  15.184 -0.5214  0.2678 -0.4420
40346OCT     C280692   6.108  12.530  14.861 -0.3301  0.2819 -0.1274
40347OCT     C180693  19.662  20.157  12.389 -0.1179  0.1018  0.1784
40347OCT     C280694  19.299  20.417  12.297 -0.2777  0.2359 -0.0219
40348OCT     C180695  14.082  14.055  20.372 -0.0233  0.3059  0.1031
40348OCT     C280696  13.961  13.783  20.004  0.0354 -0.2601 -0.0338
40349OCT     C180697   7.031  20.044  11.665 -0.1430  0.2961  0.0462
40349OCT     C280698   7.274  19.698  11.729 -0.1984  0.4190  0.1631
40350OCT     C180699   9.227   3.789   8.790 -0.0917 -0.0840  0.0854
40350OCT     C280700   8.912   4.027   9.041 -0.0057 -0.0425 -0.1224
40351OCT     C180701  14.936  11.585  18.950  0.2656 -0.1176 -0.0130
40351OCT     C280702  14.962  11.188  18.737  0.0937  0.0866  0.0754
40352OCT     C180703   8.153  21.401   0.665 -0.0097  0.1630 -0.1749
40352OCT     C280704   7.793  21.547   0.504  0.2521  0.0003  0.1079
40353OCT     C180705   5.963  17.604  10.897  0.1863 -0.1654 -0.0043
40353OCT     C280706   6.018  17.947  11.204  0.2350 -0.1938 -0.0675
40354OCT     C180707  20.685  19.003  17.465  0.0772 -0.1946 -0.3721
40354OCT     C280708  20.535  18.692  17.693  0.0346  0.0462  0.0988
40355OCT     C180709  22.950  12.687   7.642  0.2553 -0.1029  0.2559
40355OCT     C280710  23.049  12.868   7.212 -0.1471 -0.1237 -0.1322
40356OCT     C180711  15.674   8.774  10.987 -0.1003 -0.3237  0.0083
40356OCT     C280712  15.710   8.452  11.298 -0.4784  0.1572 -0.0293
40357OCT     C180713  10.773   4.671   0.437  0.0709  0.1986 -0.0769
40357OCT     C280714  11.138   4.828   0.269 -0.0461 -0.2781 -0.1055
40358OCT     C180715   0.195  19.298   9.658  0.1682  0.0895  0.3203
40358OCT     C280716   0.045  19.498   9.218  0.3336  0.1014  0.0472
40359OCT     C180717   9.491  14.752  22.144 -0.0906 -0.0825  0.2290
40359OCT     C280718   9.760  14.483  21.946 -0.0107  0.1386 -0.1128
40360OCT     C180719   9.809  12.014   7.425 -0.1275 -0.2321  0.0131
40360OCT     C280720   9.764  11.553   7.516 -0.2484 -0.2734 -0.1178
40361OCT     C180721   1.612  23.555  14.809 -0.4332  0.0730 -0.1707
40361OCT     C280722   1.251   0.027  14.690  0.2861  0.0548 -0.2709
40362OCT     C180723  20.417   0.320  22.461 -0.2037 -0.0044 -0.3495
40362OCT     C280724  20.495  23.583  22.384 -0.3873 -0.3686  0.1428
40363OCT     C180725   1.121  19.286   2.834 -0.1058  0.0794  0.0753
40363OCT     C280726   0.717  19.516   2.912 -0.3373  0.2547 -0.1305
40364OCT     C180727   8.938  19.984  13.470 -0.0469 -0.0197  0.0839
40364OCT     C280728   9.352  20.076  13.446 -0.0417  0.1042 -0.0092
40365OCT     C180729  16.914  22.505   6.755  0.0689  0.1067 -0.1852
40365OCT     C280730  16.665  22.141   6.872 -0.4031  0.3093  0.2284
40366OCT     C180731   7.660   9.267  21.193 -0.1584 -0.0480  0.3928
40366OCT     C280732   8.121   9.283  21.327 -0.1313 -0.2855  0.3394
40367OCT     C180733  16.181  11.559  15.243  0.3062  0.0194  0.0877
40367OCT     C280734  16.569  11.772  15.515  0.1058  0.0570 -0.1627
40368OCT     C180735  11.069  20.389  15.437  0.0613  0.1718 -0.1565
40368OCT     C280736  11.069  20.481  14.970  0.2495 -0.1603 -0.1439
40369OCT     C180737  19.324  13.270   7.332 -0.2614  0.3394 -0.0540
40369OCT     C280738  19.532  13.645   7.440 -0.2631  0.0593  0.1632
40370OCT     C180739   4.559  17.976  16.929  0.5678 -0.1202 -0.3491
40370OCT     C280740   4.072  17.984  16.834  0.0983  0.1024 -0.1222
40371OCT     C180741   9.500  12.020  11.576  0.0188 -0.2138 -0.2793
40371OCT     C280742   9.875  11.971  11.327  0.1660  0.2752 -0.3641
40372OCT     C180743  18.243   9.268  13.960  0.1607  0.0082  0.0042
40372OCT     C280744  18.547   9.077  14.253 -0.0849 -0.4062  0.1333
40373OCT     C180745  16.677  20.310  11.409  0.0272  0.0381  0.2444
40373OCT     C280746  16.751  19.924  11.166  0.0048  0.2540 -0.1982
40374OCT     C180747  23.631   7.789   5.868 -0.1097  0.0399  0.4770
40374OCT     C280748  23.235   7.973   5.605  0.2742 -0.1226 -0.1527
40375OCT     C180749  22.958  19.280  19.101 -0.2851 -0.0312 -0.3042
40375OCT     C280750  23.216  19.054  18.841 -0.1825 -0.1296  0.0065
40376OCT     C180751   1.624  16.600  11.939 -0.1448 -0.0543 -0.0973
40376OCT     C280752   1.848  16.980  12.182  0.4982  0.0094  0.2249
40377OCT     C180753   3.567   0.766   9.258 -0.3350 -0.1750 -0.0920
40377OCT     C280754   3.807   0.498   9.037  0.1207 -0.0119  0.2401
40378OCT     C180755  15.313  11.506  14.796 -0.2434  0.1926  0.2401
40378OCT     C280756  15.262  11.941  14.770  0.1945  0.3214  0.3948
40379OCT     C180757  23.412  21.777   8.855  0.0095  0.0681  0.2234
40379OCT     C280758   0.033  21.694   9.202  0.2934 -0.5139  0.3615
40380OCT     C180759   3.896  12.532   0.010 -0.0794  0.4329 -0.5047
40380OCT     C280760   4.301  12.230  23.718 -0.1108 -0.0881 -0.1784
40381OCT     C180761  13.880   5.997   2.168  0.0899  0.0498  0.1271
40381OCT     C280762  13.880   6.379   1.882  0.3153 -0.1497 -0.1000
40382OCT     C180763  13.821  20.478   4.042  0.0521 -0.0327  0.4950
40382OCT     C280764  13.977  20.910   3.895  0.1166 -0.1757 -0.0062
40383OCT     C180765  19.347   5.060  10.174 -0.0089 -0.0115 -0.2250
40383OCT     C280766  19.652   5.418  10.140 -0.0053  0.3320  0.0976
40384OCT     C180767  16.585   1.384  14.233 -0.3784  0.0210  0.0292
40384OCT     C280768  16.811   1.266  14.631 -0.0148  0.1010 -0.2329
40385OCT     C180769   7.915   7.032  17.632  0.2307  0.3233 -0.0286
40385OCT     C280770   8.193   7.145  17.262 -0.0966 -0.0474  0.0392
40386OCT     C180771  15.493  22.604   0.914  0.0038 -0.0880  0.1363
40386OCT     C280772  15.245  22.202   1.011 -0.3017 -0.2682 -0.0101
40387OCT     C180773  10.062   6.275   7.708  0.1196 -0.1825  0.1494
40387OCT     C280774   9.961   5.870   7.968 -0.1243 -0.0623  0.2318
40388OCT     C180775   6.595  11.256   2.631 -0.0147 -0.1039 -0.2257
40388OCT     C280776   6.997  11.077   2.531  0.1054 -0.1856  0.1263
40389OCT     C180777   9.082  12.334   2.544 -0.0484  0.0991 -0.0178
40389OCT     C280778   9.225  12.082   2.211 -0.0269  0.0602 -0.1950
40390OCT     C180779   9.453  11.763  16.325  0.2082  0.1308 -0.0286
40390OCT     C280780   9.074  11.503  16.530  0.2913  0.0770  0.1136
40391OCT     C180781  17.025   5.948   4.325  0.0624 -0.0746 -0.0652
40391OCT     C280782  17.513   5.903   4.180  0.0500 -0.2768 -0.2396
40392OCT     C180783  22.111   8.892   6.159 -0.2688  0.1136 -0.1095
40392OCT     C280784  22.173   9.052   6.612 -0.2293  0.0086 -0.0966
40393OCT     C180785  11.078  18.861  16.551  0.4087 -0.0367 -0.3037
40393OCT     C280786  11.517  18.737  16.733  0.0232 -0.1798 -0.0587
40394OCT     C180787  10.766  19.396  15.358  0.3806 -0.0114  0.0620
40394OCT     C280788  11.251  19.332  15.306  0.2794  0.1637  0.1373
40395OCT     C180789   1.422  19.735   4.387 -0.1048 -0.0750  0.1669
40395OCT     C280790   1.135  19.462   4.038 -0.1172  0.0027 -0.1720
40396OCT     C180791   2.874   4.114   5.031  0.0366 -0.1583  0.2326
40396OCT     C280792   3.211   3.766   5.028 -0.2802  0.1293  0.2603
40397OCT     C180793   7.873   4.598   6.574  0.0040 -0.2111 -0.1913
40397OCT     C280794   8.334   4.496   6.725  0.0061  0.4252 -0.2885
40398OCT     C180795  10.816  19.921  15.482  0.2258  0.1443  0.2191
40398OCT     C280796  11.240  19.854  15.294 -0.2559 -0.2179  0.3036
40399OCT     C180797   1.995   7.279   4.109 -0.0823 -0.2145 -0.2353
40399OCT     C280798   2.105   6.980   3.818  0.0366  0.4197  0.0065
40400OCT     C180799  22.550   1.159  10.370  0.0647  0.1108  0.1780
40400OCT     C280800  22.922   1.208  10.659  0.2246 -0.0235  0.2724
40401OCT     C180801  17.737  20.237  17.252  0.1665 -0.0381  0.0449
40401OCT     C280802  17.335  20.026  17.169  0.1668  0.1259 -0.5388
40402OCT     C180803  16.111   8.830   4.430 -0.2962  0.0878  0.0107
40402OCT     C280804  15.720   8.912   4.206 -0.1537 -0.1001 -0.1032
40403OCT     C180805  23.460  12.196   2.150 -0.2492  0.2917 -0.0720
40403OCT     C280806   0.025  12.496   1.964 -0.0636  0.1133  0.1356
40404OCT     C180807  15.630   1.499  21.207  0.3658 -0.1236  0.0245
40404OCT     C280808  15.931   1.216  20.906  0.0523  0.0404  0.3515
40405OCT     C180809  17.283  18.223   8.020  0.3723 -0.1518 -0.1132
40405OCT     C280810  17.646  18.418   8.231 -0.0342 -0.2290 -0.3260
40406OCT     C180811  12.876   6.805  11.521 -0.0246 -0.1353  0.2018
40406OCT     C280812  13.321   6.589  11.605 -0.2303 -0.1996  0.1795
40407OCT     C180813  19.680  22.224   6.599 -0.0754 -0.0866  0.3588
40407OCT     C280814  19.956  22.574   6.427  0.1620 -0.1167  0.0640
40408OCT     C180815  17.224  22.060   4.498 -0.0400 -0.2840  0.0022
40408OCT     C280816  17.039  21.966   4.109  0.1727 -0.1460 -0.0781
40409OCT     C180817   1.015   0.094  22.296  0.1297 -0.1698 -0.1718
40409OCT     C280818   0.601  23.632  22.253 -0.0472 -0.0181 -0.1968
40410OCT     C180819  17.991  18.967  15.666  0.0185  0.2372  0.1489
40410OCT     C280820  17.963  18.658  15.293 -0.0433 -0.1941  0.2123
40411OCT     C180821  18.095   5.691   4.287  0.0432 -0.3026  0.1624
40411OCT     C280822  18.335   6.007   4.038  0.0548 -0.4780  0.3503
40412OCT     C180823  11.050  21.017  19.863  0.3465 -0.1549  0.1889
40412OCT     C280824  11.273  21.361  20.160 -0.3396 -0.1523  0.4680
40413OCT     C180825  15.003  12.307  20.762  0.0991 -0.3180 -0.3230
40413OCT     C280826  15.430  12.107  20.873  0.0574  0.0505  0.0607
40414OCT     C180827  14.988  13.320   2.290  0.0438 -0.1546 -0.1437
40414OCT     C280828  15.060  13.492   2.718  0.1152 -0.2137  0.0508
40415OCT     C180829  23.162  17.254   9.628  0.3437 -0.1116  0.3920
40415OCT     C280830  22.746  17.361   9.532  0.2533 -0.0240  0.7176
40416OCT     C180831  16.342  22.181  16.755  0.1519  0.1900 -0.2158
40416OCT     C280832  15.886  22.273  16.815 -0.1788  0.3127  0.0760
40417OCT     C180833   6.047  14.913  10.923  0.1216 -0.0286 -0.5606
40417OCT     C280834   6.156  14.618  10.586 -0.2045 -0.0211 -0.4774
40418OCT     C180835  10.725  12.832   0.840 -0.0907  0.0272 -0.1274
40418OCT     C280836  10.936  13.289   0.810  0.1403 -0.1492  0.4339
40419OCT     C180837  17.720   2.489  21.112  0.0604 -0.2372 -0.1291
40419OCT     C280838  17.495   2.358  20.729 -0.0501 -0.2116  0.0099
40420OCT     C180839  19.544  13.449   6.920  0.1048 -0.1540 -0.0298
40420OCT     C280840  19.439  12.988   6.853 -0.0012  0.3300  0.1265
40421OCT     C180841  13.371   8.686  15.750  0.0489 -0.1292  0.0932
40421OCT     C280842  13.690   8.935  16.000 -0.0391 -0.1313  0.1392
40422OCT     C180843   7.784   6.181  10.879  0.1032  0.3693  0.0182
40422OCT     C280844   7.652   5.925  10.519  0.0510  0.0096 -0.1296
40423OCT     C180845  17.313  18.270   1.327  0.1732 -0.0981 -0.0010
40423OCT     C280846  16.883  18.257   1.563  0.1464 -0.1560 -0.1875
40424OCT     C180847   4.388  16.693  23.596  0.0524  0.3299  0.0671
40424OCT     C280848   4.056  17.012  23.729  0.0513 -0.0147 -0.0723
40425OCT     C180849  12.936  22.279  17.527  0.3031 -0.0881 -0.2395
40425OCT     C280850  13.028  22.232  17.967 -0.4841 -0.2003 -0.0314
40426OCT     C180851   7.757  11.333  10.286 -0.0471 -0.1535  0.0376
40426OCT     C280852   7.962  10.928  10.364  0.1479  0.0889  0.2427
40427OCT     C180853  15.178  16.363   6.407  0.4679  0.0556  0.2393
40427OCT     C280854  15.054  16.018   6.059  0.3593 -0.0910  0.0975
40428OCT     C180855  23.565  20.392   5.385 -0.0208  0.0543  0.3843
40428OCT     C280856  23.472  19.954   5.152  0.2439 -0.2416 -0.2811
40429OCT     C180857  11.118   8.134  12.419 -0.1258 -0.0018 -0.1895
40429OCT     C280858  10.940   7.745  12.610 -0.0144 -0.2606 -0.0711
40430OCT     C180859  13.580   0.080  15.436 -0.4338  0.1396 -0.1297
40430OCT     C280860  13.874   0.449  15.280  0.3142  0.0460 -0.1248
40431OCT     C180861  11.293   2.914   9.601  0.0488  0.0691  0.0265
40431OCT     C280862  11.474   3.041  10.040  0.2918 -0.0293 -0.1672
40432OCT     C180863   6.710  15.641   5.313  0.3722  0.4711 -0.2003
40432OCT     C280864   6.315  15.632   5.086 -0.0556 -0.3085  0.1418
40433OCT     C180865  14.006   9.740  11.463 -0.3476  0.0094 -0.2398
40433OCT     C280866  14.091   9.289  11.433  0.0927  0.4832 -0.3507
40434OCT     C180867   5.014  20.861   2.079  0.1409  0.0398 -0.4466
40434OCT     C280868   5.195  20.996   2.545 -0.0885  0.0451  0.2657
40435OCT     C180869  11.760   4.550   5.068  0.2076  0.2858 -0.0912
40435OCT     C280870  12.045   4.724   4.798 -0.5024  0.0903 -0.0622
40436OCT     C180871  15.538  16.960  20.244 -0.0226  0.0298  0.0811
40436OCT     C280872  15.134  16.581  20.141  0.0060 -0.2542 -0.0069
40437OCT     C180873   6.922   3.041  17.429  0.0681  0.1095  0.2488
40437OCT     C280874   6.889   3.425  17.160  0.0685 -0.1353  0.2004
40438OCT     C180875  22.551   2.252  21.715 -0.3560 -0.0497  0.0043
40438OCT     C280876  22.230   1.938  21.475  0.0801 -0.2578  0.2934
40439OCT     C180877   9.524   6.597   4.431  0.4759  0.3133 -0.2086
40439OCT     C280878   9.502   6.739   3.928 -0.1568 -0.0785 -0.3240
40440OCT     C180879  20.437  14.768  16.774 -0.0801 -0.0213  0.1667
40440OCT     C280880  20.305  14.530  17.197 -0.1933  0.1701  0.3173
40441OCT     C180881   6.145  13.852  17.664  0.0341  0.1393 -0.0805
40441OCT     C280882   6.161  14.285  17.830  0.1079 -0.1515  0.1595
40442OCT     C180883  15.982  14.591  11.781 -0.2357  0.0033  0.2680
40442OCT     C280884  16.094  14.484  11.371 -0.3851  0.0881  0.3035
40443OCT     C180885  13.038   2.777  20.701 -0.0368 -0.1502 -0.1331
40443OCT     C280886  13.252   3.148  20.622 -0.2906 -0.0525  0.1300
40444OCT     C180887   3.219  21.397   4.307 -0.2116  0.0981  0.0986
40444OCT     C280888   3.022  21.131   4.012  0.2155  0.5047 -0.2617
40445OCT     C180889  20.413  13.028  15.114 -0.0097  0.0524 -0.2106
40445OCT     C280890  19.996  13.141  14.996  0.2871  0.3184  0.3820
40446OCT     C180891   6.664  23.126  11.657 -0.1801 -0.1067 -0.2121
40446OCT     C280892   6.416  23.523  11.737 -0.2663  0.0901 -0.4014
40447OCT     C180893  20.813  17.907   8.082  0.1661 -0.0380 -0.2471
40447OCT     C280894  20.422  17.608   8.161  0.3172  0.0635 -0.3822
40448OCT     C180895  16.672   8.298  12.280 -0.0572 -0.1123 -0.0682
40448OCT     C280896  16.296   8.313  12.004 -0.3918  0.0528 -0.2399
40449OCT     C180897   7.735  21.623   2.061 -0.1420 -0.1715 -0.0483
40449OCT     C280898   8.214  21.569   2.150 -0.1509  0.3097 -0.1375
40450OCT     C180899   4.758   9.259  21.429 -0.1215  0.4898 -0.1012
40450OCT     C280900   4.892   8.837  21.522 -0.1863 -0.1190 -0.0144
40451OCT     C180901  13.379   5.431   6.419 -0.1682 -0.1693 -0.2884
40451OCT     C280902  13.259   5.882   6.387 -0.1115 -0.1757  0.1527
40452OCT     C180903  12.057   9.350  23.074 -0.0299  0.4221 -0.0786
40452OCT     C280904  12.207   8.956  23.163 -0.2520 -0.0316 -0.1474
40453OCT     C180905   0.259  18.146  13.990 -0.1604  0.1503  0.3637
40453OCT     C280906   0.205  18.559  13.864  0.3192 -0.2146 -0.0144
40454OCT     C180907   6.016  20.894  17.813  0.1080 -0.3532  0.0814
40454OCT     C280908   6.237  20.641  18.119 -0.3014 -0.2893  0.1939
40455OCT     C180909  23.144  14.117   2.552 -0.0412  0.0334  0.0937
40455OCT     C280910  23.162  13.655   2.413 -0.1771  0.3569 -0.0002
40456OCT     C180911  16.917  12.845   8.306 -0.1409  0.2975 -0.1563
40456OCT     C280912  16.949  13.157   8.005 -0.1752  0.2485 -0.0608
40457OCT     C180913  11.744   9.218  10.916 -0.1281  0.1250 -0.1219
40457OCT     C280914  11.983   9.366  10.542  0.1432  0.1264 -0.0098
40458OCT     C180915   3.134  17.618  18.793  0.2089  0.2283 -0.0237
40458OCT     C280916   2.916  17.297  19.014 -0.0895  0.0831  0.2226
40459OCT     C180917   9.633   1.295   3.390  0.0705  0.0724 -0.0127
40459OCT     C280918   9.975   1.555   3.592 -0.0142  0.0709  0.3974
40460OCT     C180919  17.341  12.017   8.401  0.2628 -0.1778  0.0813
40460OCT     C280920  17.379  11.841   7.992  0.0927  0.1364 -0.4121
40461OCT     C180921  13.969  21.703  13.040  0.3371 -0.3272 -0.3079
40461OCT     C280922  14.396  21.852  12.857 -0.1239 -0.0320 -0.0143
40462OCT     C180923  19.469   4.009   5.274 -0.3634  0.1941  0.3085
40462OCT     C280924  19.281   3.774   5.600 -0.3417  0.2071  0.0257
40463OCT     C180925   5.608  21.811  21.671 -0.2051  0.1587 -0.4723
40463OCT     C280926   5.874  21.872  22.127  0.1889 -0.4192 -0.0878
40464OCT     C180927   7.655  13.951  11.691  0.3556  0.3124 -0.0678
40464OCT     C280928   8.012  14.236  11.561 -0.0493  0.0502  0.4728
40465OCT     C180929   2.804  13.049  11.029  0.1795  0.4169 -0.2011
40465OCT     C280930   2.502  12.870  11.307  0.4880  0.0416  0.1052
40466OCT     C180931  19.329  18.109  22.245 -0.3860 -0.1555  0.1794
40466OCT     C280932  18.975  18.406  22.368  0.2538 -0.0111 -0.0527
40467OCT     C180933  12.876   3.444  22.994  0.0563 -0.1369 -0.2273
40467OCT     C280934  12.470   3.308  23.242 -0.3535  0.1229  0.0453
40468OCT     C180935  10.567  20.847  13.287 -0.1859 -0.0139  0.3325
40468OCT     C280936  10.567  21.050  13.695  0.2275  0.2894  0.0948
40469OCT     C180937   9.016  14.809   1.256 -0.4974  0.2232 -0.0002
40469OCT     C280938   9.133  14.364   1.341  0.3921 -0.0520 -0.2949
40470OCT     C180939  19.087  14.271  15.857 -0.4828 -0.2386 -0.1956
40470OCT     C280940  18.761  14.334  15.593 -0.0601  0.1069  0.0265
40471OCT     C180941  14.703  22.408   9.597 -0.5349  0.2009 -0.0621
40471OCT     C280942  15.158  22.582   9.592  0.0475 -0.0481  0.2299
40472OCT     C180943  22.702   3.708   0.822 -0.0217  0.0591  0.5191
40472OCT     C280944  22.608   3.214   0.808  0.2285  0.0732 -0.0936
40473OCT     C180945  16.054  15.996  11.549  0.0872  0.1416 -0.0601
40473OCT     C280946  16.494  15.976  11.736  0.0475  0.0001  0.0547
40474OCT     C180947   6.747   4.958   1.481  0.1923 -0.0360  0.0646
40474OCT     C280948   6.991   5.034   1.904  0.0809 -0.1927  0.2578
40475OCT     C180949   4.914  10.295  17.771 -0.2121  0.0817  0.3482
40475OCT     C280950   5.087  10.619  17.482 -0.1578 -0.0552  0.0185
40476OCT     C180951   4.831  10.477   2.555  0.0173 -0.1466  0.0664
40476OCT     C280952   4.839  10.549   2.107 -0.1384 -0.0961  0.0487
40477OCT     C180953  10.005  20.215  19.881  0.0347  0.2356 -0.1647
40477OCT     C280954  10.369  20.030  19.659  0.1302  0.3002 -0.0000
40478OCT     C180955   2.496   5.015  22.509  0.0114 -0.0404 -0.2780
40478OCT     C280956   2.985   5.110  22.534  0.5002  0.2996 -0.0960
40479OCT     C180957  19.250  11.882  11.947  0.0944 -0.0966 -0.0274
40479OCT     C280958  19.060  12.297  12.055 -0.2143  0.2788  0.1226
40480OCT     C180959  11.822   2.293  14.439  0.1759  0.1267  0.0624
40480OCT     C280960  11.413   2.399  14.622  0.2132  0.0658 -0.1699
40481OCT     C180961   0.673   2.600  15.743 -0.0510 -0.0445 -0.2678
40481OCT     C280962   0.907   2.618  16.181  0.0816  0.0283  0.2040
40482OCT     C180963  15.081  11.856  19.534  0.0892 -0.2796 -0.0610
40482OCT     C280964  15.419  11.540  19.356 -0.0338  0.2397 -0.0161
40483OCT     C180965   4.433  18.131   2.186 -0.0036  0.2104  0.1785
40483OCT     C280966   4.561  18.483   2.464  0.3325 -0.1797  0.1536
40484OCT     C180967  13.448  16.837   1.881 -0.0104 -0.1919 -0.3164
40484OCT     C280968  13.517  16.435   1.691  0.0266  0.4113  0.1219
40485OCT     C180969   1.381   6.187  19.862  0.2237 -0.2392 -0.0560
40485OCT     C280970   1.421   6.551  19.571 -0.0257 -0.1740 -0.4514
40486OCT     C180971  16.244  17.553   7.548 -0.2109 -0.0667  0.1354
40486OCT     C280972  16.297  17.969   7.773 -0.0520  0.2028  0.2769
40487OCT     C180973   8.437  14.646   9.867 -0.1664 -0.2413  0.0514
40487OCT     C280974   8.230  14.934  10.163  0.0626  0.0507 -0.3505
40488OCT     C180975   8.649   8.774  15.061  0.0228 -0.0100 -0.2198
40488OCT     C280976   8.498   8.545  15.445 -0.2479 -0.0488  0.1592
40489OCT     C180977   6.049   1.472  15.619 -0.0281 -0.0702 -0.5059
40489OCT     C280978   5.976   0.991  15.581 -0.0787 -0.0099  0.2083
40490OCT     C180979   0.116   4.540   0.436 -0.0067 -0.0161 -0.0141
40490OCT     C280980   0.567   4.400   0.488 -0.0362 -0.1726  0.1720
40491OCT     C180981  18.914  17.596  21.311 -0.4423  0.1866  0.1648
40491OCT     C280982  18.630  17.256  21.386 -0.3729  0.1166 -0.0925
40492OCT     C180983  18.963  23.048   7.486  0.0273  0.1304 -0.3635
40492OCT     C280984  19.041  22.907   7.043 -0.1972 -0.0031 -0.0561
40493OCT     C180985   1.720  19.542   5.550  0.0882  0.1032 -0.0158
40493OCT     C280986   1.933  19.953   5.600  0.1466 -0.2396 -0.0328
40494OCT     C180987  13.360  17.336   5.372  0.2908  0.1026 -0.2363
40494OCT     C280988  13.251  17.663   5.003  0.0333  0.1821  0.2199
40495OCT     C180989  15.204   0.101  13.709  0.2272 -0.4320 -0.0673
40495OCT     C280990  14.868   0.429  13.798  0.1377 -0.1634  0.1428
40496OCT     C180991   9.290  21.776   5.727 -0.2415 -0.3825  0.2184
40496OCT     C280992   9.341  21.412   5.965 -0.1730  0.2511 -0.1855
40497OCT     C180993  14.455  13.299   6.450 -0.0967  0.0314 -0.0113
40497OCT     C280994  14.421  12.841   6.629 -0.1331 -0.0256  0.0524
40498OCT     C180995  22.427   4.832  10.903 -0.0465 -0.2822  0.0036
40498OCT     C280996  22.793   4.524  10.920  0.3252 -0.2903  0.3783
40499OCT     C180997  12.389   3.091   2.855 -0.0245  0.1222  0.1183
40499OCT     C280998  12.052   3.358   2.950 -0.2355  0.2975 -0.1329
40500OCT     C180999  16.131   0.630  15.946 -0.1770 -0.3000  0.3797
40500OCT     C281000  15.832   0.772  16.288 -0.0355  0.4828 -0.1255
40501OCT     C181001   8.213   0.157   5.862 -0.1273 -0.1672 -0.0506
40501OCT     C281002   8.258   0.600   6.101  0.1410 -0.1103  0.0913
40502OCT     C181003   3.433   1.349  15.060 -0.0715 -0.1589 -0.0929
40502OCT     C281004   3.693   1.083  14.875 -0.2263 -0.0763  0.0443
40503OCT     C181005   7.114  17.011  23.525 -0.2292 -0.0777 -0.3232
40503OCT     C281006   7.275  16.878  23.139 -0.0993 -0.0050 -0.0901
40504OCT     C181007  14.409   1.824  15.299 -0.0339  0.0669  0.1227
40504OCT     C281008  14.246   1.798  14.844 -0.6175  0.2217  0.5377
40505OCT     C181009   9.592   6.978  23.300  0.1871  0.1423 -0.1094
40505OCT     C281010   9.996   6.693  23.445  0.2780 -0.0008  0.2641
40506OCT     C181011  19.770  22.450  23.369  0.1939  0.2528  0.1875
40506OCT     C281012  19.449  22.758  23.215  0.0954  0.2879  0.3391
40507OCT     C181013  22.997  19.888  19.044  0.0722 -0.0949  0.1133
40507OCT     C281014  22.992  20.310  18.798  0.0274 -0.2275 -0.2522
40508OCT     C181015   2.325  15.191   5.362  0.3556  0.1747  0.0508
40508OCT     C281016   2.056  15.003   5.036 -0.0957 -0.1102 -0.9692
40509OCT     C181017   4.975   0.866  16.549  0.1618  0.0804 -0.2942
40509OCT     C281018   4.722   0.569  16.371  0.0590 -0.1639 -0.0112
40510OCT     C181019  11.120  21.842  22.710 -0.0626  0.1050  0.2154
40510OCT     C281020  11.217  21.905  22.322 -0.0192 -0.0685 -0.1261
40511OCT     C181021  16.348   7.789   8.351  0.0028  0.2466  0.0114
40511OCT     C281022  16.014   7.724   8.026  0.1136  0.0835  0.0055
40512OCT     C181023  10.912   4.808   7.425  0.1209  0.0189  0.4005
40512OCT     C281024  10.549   4.983   7.689 -0.0663  0.0799 -0.0438
40513OCT     C181025   7.344   7.307   1.454  0.1226  0.1323 -0.4438
40513OCT     C281026   7.335   7.131   1.928 -0.1307  0.0593 -0.0991
40514OCT     C181027  22.007  13.729   7.400  0.0913 -0.1876  0.1023
40514OCT     C281028  21.761  13.649   6.977  0.1446  0.5746  0.0255
40515OCT     C181029  18.325   0.011  21.260 -0.0714 -0.0706 -0.0634
40515OCT     C281030  18.655  23.399  21.319 -0.0363 -0.2170  0.0229
40516OCT     C181031  17.711   6.484  14.985  0.0695 -0.0197  0.0944
40516OCT     C281032  18.104   6.723  14.958  0.1120 -0.0740 -0.2572
40517OCT     C181033  16.071  14.819   5.568  0.2407  0.3924  0.1227
40517OCT     C281034  16.018  15.086   5.162  0.2600  0.2770  0.0427
40518OCT     C181035  14.872  11.888   5.859 -0.0231  0.1471  0.1621
40518OCT     C281036  14.677  12.258   5.621  0.2148  0.0278  0.2380
40519OCT     C181037   3.045  21.664  12.336 -0.0704 -0.3437  0.0909
40519OCT     C281038   2.855  22.073  12.475  0.0527  0.0649 -0.0451
40520OCT     C181039   6.190   4.010   5.294 -0.2364  0.0302 -0.0188
40520OCT     C281040   6.458   4.311   5.039  0.2269  0.3021  0.0803
40521OCT     C181041   0.017  19.744  12.663 -0.3194  0.2249  0.0039
40521OCT     C281042   0.371  19.742  12.978  0.0364 -0.1446 -0.1565
40522OCT     C181043   3.604  18.912  14.014 -0.0403  0.2706  0.1160
40522OCT     C281044   3.652  18.733  14.442  0.1057  0.0368  0.2043
40523OCT     C181045  12.499  20.055  21.824  0.0966  0.0481  0.1373
40523OCT     C281046  12.620  19.615  21.919 -0.3245 -0.0062 -0.2223
40524OCT     C181047  16.921  10.627   6.855  0.2195  0.1720  0.0222
40524OCT     C281048  17.350  10.663   6.983  0.3112  0.2552 -0.0944
40525OCT     C181049   3.469  14.179  21.854 -0.1718  0.1402 -0.0027
40525OCT     C281050   3.566  14.060  22.286  0.0879  0.0164  0.1983
40526OCT     C181051  14.147   3.622  19.316 -0.1736 -0.0000 -0.2963
40526OCT     C281052  14.047   3.780  19.723  0.3969  0.0816 -0.3308
40527OCT     C181053   2.879   8.708   6.604 -0.0762 -0.1590  0.2716
40527OCT     C281054   2.536   8.708   6.219 -0.1457  0.0998 -0.1378
40528OCT     C181055   4.546   7.635  13.295  0.2126  0.0026  0.3631
40528OCT     C281056   4.192   7.808  13.116  0.1275  0.2299 -0.1096
40529OCT     C181057   0.639   3.902  23.687  0.1216 -0.1611 -0.1203
40529OCT     C281058   0.708   3.600  23.302 -0.0840 -0.0783  0.0105
40530OCT     C181059  21.698   0.870  19.424  0.1634  0.5329  0.1608
40530OCT     C281060  21.787   1.089  19.056  0.5565  0.0580 -0.1099
40531OCT     C181061  20.892  16.124   7.559  0.3323 -0.3348  0.1727
40531OCT     C281062  21.115  16.221   7.208 -0.3615 -0.0475 -0.2168
40532OCT     C181063  18.576  17.970  19.748 -0.4801  0.0939 -0.1588
40532OCT     C281064  18.325  17.718  20.043 -0.1625 -0.1254 -0.0573
40533OCT     C181065  20.666  14.214   4.445 -0.2946  0.0497 -0.1495
40533OCT     C281066  20.304  14.239   4.763  0.4262  0.0751 -0.0122
40534OCT     C181067   3.368  21.468   8.465 -0.1365 -0.0274 -0.0796
40534OCT     C281068   3.181  21.646   8.093  0.1838 -0.0949  0.1456
40535OCT     C181069  10.693  21.001  19.379  0.0880  0.0028 -0.0053
40535OCT     C281070  10.753  21.406  19.424 -0.3581 -0.3296  0.2427
40536OCT     C181071  10.845   3.018   9.751  0.1650 -0.0102 -0.0414
40536OCT     C281072  11.023   3.392   9.905 -0.0573  0.0938  0.0797
40537OCT     C181073   6.312   5.697  22.484  0.3729 -0.1444 -0.0450
40537OCT     C281074   6.543   5.822  22.090 -0.1088 -0.3841  0.0421
40538OCT     C181075  15.268  13.471  22.206  0.5037  0.1531 -0.0762
40538OCT     C281076  14.911  13.382  21.916 -0.1780  0.2182 -0.0533
40539OCT     C181077  22.250   5.261   1.280  0.0261  0.0237 -0.2441
40539OCT     C281078  21.909   4.982   1.062 -0.0135  0.0031 -0.1508
40540OCT     C181079   9.079  17.956   5.103 -0.0276  0.3875 -0.0352
40540OCT     C281080   9.401  18.230   5.070 -0.2023 -0.1341  0.2074
40541OCT     C181081   1.783   9.986  23.051  0.0834 -0.0015 -0.0589
40541OCT     C281082   1.935  10.377  22.877 -0.1430 -0.0885  0.0507
40542OCT     C181083  13.472   3.854  12.289  0.2512  0.2119  0.0340
40542OCT     C281084  13.010   3.735  12.352  0.0571 -0.2127  0.2772
40543OCT     C181085  16.524  16.427  21.233 -0.1762 -0.1460 -0.1998
40543OCT     C281086  16.467  16.006  21.368 -0.0831 -0.1047  0.0648
40544OCT     C181087   0.658  18.888   0.286 -0.0266 -0.0648  0.0552
40544OCT     C281088   0.313  18.721   0.001  0.3301  0.1293  0.1497
40545OCT     C181089  16.227  11.662   4.789  0.0641 -0.2115  0.0171
40545OCT     C281090  16.682  11.649   4.697 -0.0554 -0.0945  0.0021
40546OCT     C181091  13.782   7.835  14.077 -0.1987  0.2623 -0.1075
40546OCT     C281092  14.008   8.221  14.090 -0.1361  0.1961 -0.0739
40547OCT     C181093  17.539  21.783   5.281 -0.0299  0.0413  0.1988
40547OCT     C281094  17.271  22.145   5.104 -0.4239 -0.2143  0.3137
40548OCT     C181095  12.320   7.517   9.624  0.0764  0.2242 -0.1683
40548OCT     C281096  12.001   7.307   9.398 -0.2919 -0.2045 -0.0994
40549OCT     C181097   0.100   8.076   3.681  0.0046  0.2176  0.1650
40549OCT     C281098  23.579   8.043   3.312 -0.2745  0.1652 -0.3560
40550OCT     C181099   3.772   8.989   9.088 -0.1833  0.0627 -0.2338
40550OCT     C281100   4.166   8.856   9.290  0.0656  0.1259  0.0533
40551OCT     C181101  17.658  11.622  12.093  0.2321  0.1799 -0.0005
40551OCT     C281102  17.680  11.199  11.911  0.0817 -0.0389 -0.1679
40552OCT     C181103  19.794  21.511   0.511  0.1352 -0.0463 -0.2712
40552OCT     C281104  20.195  21.643   0.279 -0.1043  0.2516  0.0988
40553OCT     C181105   6.889  14.281  19.223  0.1971 -0.0890 -0.0185
40553OCT     C281106   6.836  14.692  19.327 -0.1969  0.3237  0.0584
40554OCT     C181107  21.529  12.105   2.594  0.2633  0.2167 -0.0156
40554OCT     C281108  21.438  12.480   2.323  0.1166  0.0866  0.1053
40555OCT     C181109  22.223  20.664   5.470  0.2312 -0.1676 -0.0379
40555OCT     C281110  22.134  20.338   5.163 -0.1147 -0.0639 -0.0422
40556OCT     C181111  17.565  12.709   7.461 -0.4286 -0.1126  0.3601
40556OCT     C281112  17.394  13.070   7.786 -0.3448 -0.1377  0.0038
40557OCT     C181113   9.869  19.064   6.908 -0.0522 -0.0588 -0.1205
40557OCT     C281114   9.808  18.638   6.858  0.0893  0.0262 -0.1822
40558OCT     C181115  13.698  22.681   9.015  0.4205 -0.0079 -0.1278
40558OCT     C281116  13.864  22.949   8.677 -0.1158 -0.2964  0.3251
40559OCT     C181117  14.930  11.368   8.399  0.0971 -0.0006  0.0632
40559OCT     C281118  14.846  11.316   8.894 -0.0629 -0.0361 -0.0206
40560OCT     C181119  19.878  19.329  18.575 -0.0071 -0.3733 -0.1683
40560OCT     C281120  19.613  19.670  18.339 -0.0488  0.0456  0.0165
40561OCT     C181121  16.375  16.080  13.196  0.0590  0.2310  0.1063
40561OCT     C281122  16.174  15.655  13.256  0.3439 -0.0154 -0.3830
40562OCT     C181123  21.234  18.484  23.261  0.1924 -0.2191  0.0373
40562OCT     C281124  21.336  18.849  23.502 -0.5167 -0.1003 -0.3409
40563OCT     C181125  15.791  11.767   8.246  0.0455  0.1474 -0.2444
40563OCT     C281126  15.474  11.452   8.069 -0.0975  0.3515  0.2602
40564OCT     C181127   9.273   2.613   8.130 -0.1674  0.0401  0.4722
40564OCT     C281128   9.420   2.233   7.881  0.1181 -0.5586 -0.0497
40565OCT     C181129  21.174  13.441   2.077  0.0951 -0.2526  0.1230
40565OCT     C281130  21.080  13.364   1.642 -0.0304 -0.0278  0.0005
40566OCT     C181131  16.610  20.184  22.641 -0.0342  0.1396  0.1429
40566OCT     C281132  16.655  19.831  22.311  0.3572 -0.0915 -0.0975
40567OCT     C181133  19.707  14.980   6.172 -0.2570 -0.0434 -0.1408
40567OCT     C281134  19.984  15.166   5.804 -0.0447  0.4809  0.2466
40568OCT     C181135   7.497   2.983   3.592  0.0708  0.2503 -0.2895
40568OCT     C281136   7.542   2.641   3.274 -0.1132  0.0211  0.0368
40569OCT     C181137  15.159   9.764   8.127  0.3209  0.1533 -0.0416
40569OCT     C281138  14.812   9.828   8.423 -0.4467  0.0339  0.4056
40570OCT     C181139   2.108  16.209  15.452  0.0205  0.2034  0.4613
40570OCT     C281140   1.740  16.469  15.365  0.0009 -0.3935 -0.2666
40571OCT     C181141   8.677  20.590  22.069 -0.2459  0.2431  0.2211
40571OCT     C281142   8.799  20.380  22.509  0.0604  0.0039  0.0187
40572OCT     C181143   7.496  21.789  14.657  0.0387 -0.5026  0.2304
40572OCT     C281144   7.389  21.759  14.201  0.0288  0.2265  0.1472
40573OCT     C181145   3.409   1.586  22.785  0.2197  0.3452 -0.1198
40573OCT     C281146   3.304   1.640  22.301 -0.2842 -0.0061 -0.1455
40574OCT     C181147   1.193   2.926  14.988  0.2274 -0.4355  0.0215
40574OCT     C281148   1.387   2.539  15.177  0.0408  0.1120 -0.0379
40575OCT     C181149  23.651   5.292  15.230  0.1464  0.3710  0.1503
40575OCT     C281150   0.076   4.861  15.361  0.5542 -0.1309 -0.3655
40576OCT     C181151   0.395  21.331   1.813  0.1123 -0.3704  0.4338
40576OCT     C281152   0.052  21.258   2.110 -0.3903  0.0232  0.1914
40577OCT     C181153   9.058  15.778  12.627  0.0725 -0.1867  0.0812
40577OCT     C281154   9.218  16.211  12.724  0.0405 -0.0368  0.0947
40578OCT     C181155  19.818  11.422  19.060 -0.0526  0.1419  0.0290
40578OCT     C281156  19.439  11.697  18.996 -0.0177 -0.2058  0.4980
40579OCT     C181157   0.892   4.989  11.715 -0.0001 -0.3215 -0.0976
40579OCT     C281158   0.538   4.625  11.723  0.2404 -0.3395 -0.0081
40580OCT     C181159  22.898  22.839   0.898 -0.1014 -0.1446  0.0281
40580OCT     C281160  23.001  22.744   1.355 -0.0732  0.0391  0.1005
40581OCT     C181161   6.710  10.862  14.782  0.0181  0.0007 -0.0909
40581OCT     C281162   7.151  10.710  14.785  0.1955  0.0746 -0.0260
40582OCT     C181163  14.790  14.171  12.378  0.2435  0.1015 -0.1321
40582OCT     C281164  15.215  14.052  12.327  0.0070 -0.1175  0.2041
40583OCT     C181165   2.988   9.376  23.038  0.1163  0.1996 -0.0169
40583OCT     C281166   2.797   9.153  22.711 -0.3129  0.2155 -0.0263
40584OCT     C181167  20.607   4.434  12.301 -0.0128  0.1369 -0.0478
40584OCT     C281168  20.801   4.063  12.075  0.3278  0.3562  0.0228
40585OCT     C181169  20.537  18.957  20.715 -0.0480 -0.1098 -0.1453
40585OCT     C281170  20.619  18.808  21.155 -0.2734 -0.2178  0.0567
40586OCT     C181171  14.801   0.281   6.756  0.1418 -0.0166 -0.0999
40586OCT     C281172  14.974   0.049   6.364 -0.1923  0.1159  0.1197
40587OCT     C181173   0.827   7.307   3.080  0.0104 -0.0908  0.0252
40587OCT     C281174   0.440   7.442   3.356  0.4349 -0.1200  0.0391
40588OCT     C181175   4.560  15.209  22.604  0.2742  0.2143 -0.2293
40588OCT     C281176   4.757  15.092  23.005  0.4821 -0.0028 -0.1968
40589OCT     C181177  21.991   0.797   4.648 -0.0335 -0.4469 -0.1039
40589OCT     C281178  21.746   1.154   4.731 -0.2229 -0.0304 -0.0093
40590OCT     C181179   0.611  12.507   2.889 -0.1305 -0.1431 -0.2697
40590OCT     C281180   0.609  12.612   3.352  0.2247 -0.1982 -0.2457
40591OCT     C181181   0.776  15.827  22.785  0.2176  0.2611  0.0119
40591OCT     C281182   0.977  15.910  23.216 -0.1842  0.3374  0.0442
40592OCT     C181183   1.582   9.094  22.763  0.5071 -0.4087 -0.1831
40592OCT     C281184   1.545   8.735  22.424 -0.2600  0.0760  0.0040
40593OCT     C181185  14.702   1.445   3.565  0.1415 -0.1802 -0.2973
40593OCT     C281186  14.230   1.535   3.660  0.2666 -0.0698 -0.1668
40594OCT     C181187  17.005   1.474   9.566  0.5286  0.1261 -0.1132
40594OCT     C281188  17.329   1.621   9.224 -0.2194 -0.2415 -0.2059
40595OCT     C181189  16.928  12.583   0.110  0.0953 -0.0237 -0.0492
40595OCT     C281190  17.410  12.789   0.228  0.1252  0.1316 -0.0061
40596OCT     C181191  23.248   0.220  18.154  0.0508 -0.0043 -0.1309
40596OCT     C281192  23.245  23.529  18.314 -0.2199 -0.2969  0.1228
40597OCT     C181193   0.239   9.979  13.906  0.3899 -0.0322  0.1977
40597OCT     C281194  23.575   9.714  13.996 -0.1452 -0.1250 -0.0450
40598OCT     C181195   6.423   6.173   6.118 -0.0042 -0.0430  0.0087
40598OCT     C281196   6.494   5.728   6.339  0.1562 -0.0259 -0.0385
40599OCT     C181197  20.045   5.273   0.714  0.0942  0.0188 -0.0539
40599OCT     C281198  19.927   4.859   0.905 -0.3613  0.4142 -0.1480
40600OCT     C181199  16.536   4.049  20.568 -0.1357 -0.0191 -0.0839
40600OCT     C281200  16.322   4.514  20.585 -0.0572 -0.1430  0.3448
40601OCT     C181201  14.951   4.529   6.858  0.0368  0.2303  0.4329
40601OCT     C281202  14.521   4.790   6.898  0.4178  0.1074  0.0735
40602OCT     C181203   9.124   4.971   6.189 -0.1380  0.5112 -0.1027
40602OCT     C281204   9.269   5.383   6.116  0.2157 -0.0248  0.1206
40603OCT     C181205  10.667  16.365   7.971 -0.3143 -0.0350 -0.1606
40603OCT     C281206  10.440  16.192   8.332  0.0328  0.0649 -0.2345
40604OCT     C181207  16.511  21.370  19.078  0.0062 -0.2805 -0.0636
40604OCT     C281208  16.677  21.003  19.324 -0.0352 -0.2187 -0.1223
40605OCT     C181209   4.715   9.062  16.712 -0.0041 -0.0665  0.2676
40605OCT     C281210   5.223   9.172  16.758 -0.2896 -0.2365  0.3403
40606OCT     C181211   0.163   8.784   0.294 -0.0262 -0.0421  0.0898
40606OCT     C281212  23.486   8.726   0.064 -0.0288 -0.1031  0.1319
40607OCT     C181213  17.095  23.491   8.619 -0.2916 -0.1013  0.6307
40607OCT     C281214  17.387   0.051   8.355  0.0898 -0.2974 -0.3020
40608OCT     C181215   2.461  16.432   8.675 -0.1177  0.0074 -0.2282
40608OCT     C281216   2.142  16.379   9.020  0.3537 -0.0378  0.1305
40609OCT     C181217   3.532  11.940  23.502 -0.1235  0.4718  0.0925
40609OCT     C281218   3.238  11.690  23.215  0.0257  0.0172 -0.2007
40610OCT     C181219  21.272   5.804   6.196  0.0936 -0.0188  0.0756
40610OCT     C281220  21.606   5.952   5.925 -0.0229 -0.0239  0.1645
40611OCT     C181221  15.073  20.411  20.051 -0.1489  0.1927  0.1563
40611OCT     C281222  15.451  20.465  19.964  0.2222  0.1724  0.0735
40612OCT     C181223  14.310  14.681  18.309  0.1108 -0.0475  0.0889
40612OCT     C281224  14.635  14.810  18.085 -0.1313 -0.1026 -0.0574
40613OCT     C181225  13.840   6.370  13.095  0.2370 -0.3304 -0.4364
40613OCT     C281226  13.697   6.207  13.498  0.1179  0.1315 -0.0934
40614OCT     C181227   3.988  12.357   0.479 -0.0618  0.0038 -0.2357
40614OCT     C281228   4.003  12.558   0.887 -0.0664  0.6189  0.1023
40615OCT     C181229   9.164   0.109   9.086 -0.0792 -0.2851  0.1852
40615OCT     C281230   8.989   0.495   9.362  0.1235 -0.3109  0.0803
40616OCT     C181231  11.097  20.900  18.436 -0.5858  0.1235  0.0088
40616OCT     C281232  10.992  20.743  18.852 -0.0818  0.3862 -0.0089
40617OCT     C181233   7.943   6.356  16.974  0.0543  0.0504 -0.0629
40617OCT     C281234   8.208   6.197  16.635 -0.1587 -0.1531 -0.0021
40618OCT     C181235  16.337  13.234  16.394  0.1498 -0.0234  0.2290
40618OCT     C281236  16.394  13.060  15.974 -0.2519  0.2906  0.3716
40619OCT     C181237   5.229  16.780  21.466 -0.2581 -0.2566  0.2217
40619OCT     C281238   5.464  16.907  21.093 -0.0177 -0.0097 -0.2205
40620OCT     C181239   4.223  13.072   0.632 -0.2436 -0.1484 -0.0837
40620OCT     C281240   3.859  13.288   0.855 -0.0824  0.2696  0.1402
40621OCT     C181241   3.331  21.754  21.457  0.0169  0.2352  0.0951
40621OCT     C281242   3.635  21.650  21.829  0.2507 -0.0933  0.2925
40622OCT     C181243  17.529   1.059  23.415 -0.0474 -0.2092  0.3764
40622OCT     C281244  17.767   0.696  23.542 -0.4925 -0.0522  0.0071
40623OCT     C181245   5.728  15.448  12.118 -0.1079  0.1723 -0.2622
40623OCT     C281246   6.092  15.350  11.819 -0.0146  0.5164  0.1721
40624OCT     C181247  14.321   8.837  13.865  0.1520  0.2666  0.2188
40624OCT     C281248  14.126   9.232  13.922 -0.0179 -0.2532 -0.0105
40625OCT     C181249   4.875   3.522  12.986 -0.3850  0.0028 -0.2072
40625OCT     C281250   4.808   3.731  13.375 -0.3454 -0.0193  0.4943
40626OCT     C181251  22.741  14.884   8.238  0.0896 -0.2135 -0.0042
40626OCT     C281252  22.311  14.626   8.191 -0.2809 -0.0945 -0.1030
40627OCT     C181253  10.164   8.714  22.293  0.0963  0.1491 -0.0866
40627OCT     C281254   9.987   8.298  22.434 -0.2409 -0.5072 -0.2228
40628OCT     C181255  22.534  10.500  13.437 -0.1803 -0.1665  0.0072
40628OCT     C281256  23.001  10.657  13.293  0.5102 -0.1479  0.0673
40629OCT     C181257   3.109   0.850   3.255 -0.3064 -0.0265 -0.0188
40629OCT     C281258   3.398   0.587   3.533 -0.0407 -0.2576  0.2260
40630OCT     C181259  16.671  12.830  15.201  0.0584 -0.2057 -0.2337
40630OCT     C281260  17.113  12.920  15.103 -0.4083  0.1709  0.0266
40631OCT     C181261  13.452   3.782  10.511 -0.0898  0.0725 -0.0229
40631OCT     C281262  13.495   4.189  10.741  0.4053 -0.1738  0.1271
40632OCT     C181263  10.729  23.553   4.411 -0.0013 -0.3581 -0.2426
40632OCT     C281264  11.087  23.717   4.189  0.0316 -0.0360  0.2294
40633OCT     C181265  22.232  15.253  23.052  0.1881  0.2093 -0.0850
40633OCT     C281266  21.770  15.119  23.093 -0.2470 -0.2147 -0.2965
40634OCT     C181267  12.249   1.529  15.611 -0.2536 -0.1350 -0.1330
40634OCT     C281268  12.146   1.390  16.067  0.2097 -0.3764 -0.0549
40635OCT     C181269   4.611  15.939  19.550  0.0405  0.3643  0.1864
40635OCT     C281270   4.722  15.663  19.934 -0.4087 -0.2196  0.1573
40636OCT     C181271  19.871  22.158  18.948 -0.0960  0.0972 -0.2320
40636OCT     C281272  19.417  22.214  19.035 -0.1119  0.2919 -0.5915
40637OCT     C181273  20.689  14.136  14.357 -0.1793 -0.2356 -0.0469
40637OCT     C281274  20.376  14.016  14.681  0.0146  0.1284  0.2819
40638OCT     C181275  17.064  10.577   2.900  0.2751  0.0879  0.0821
40638OCT     C281276  16.814  10.944   2.939  0.0093  0.2404  0.1035
40639OCT     C181277  11.132  20.829  12.083  0.3732 -0.0511 -0.3866
40639OCT     C281278  10.922  21.128  12.371  0.0459  0.1142  0.0073
40640OCT     C181279  14.566  18.795  18.572 -0.3336 -0.1263 -0.0357
40640OCT     C281280  14.440  18.613  19.040 -0.1147  0.1937  0.1459
40641OCT     C181281  19.048  21.934   3.948 -0.0134  0.1422 -0.1201
40641OCT     C281282  18.848  21.525   4.144 -0.0381 -0.3396  0.0992
40642OCT     C181283  21.350  20.716  11.300 -0.1984  0.2161 -0.0227
40642OCT     C281284  20.902  20.868  11.227  0.0773 -0.2995 -0.2291
40643OCT     C181285  20.277  15.198  12.737  0.3579  0.0432 -0.1177
40643OCT     C281286  20.200  15.437  13.136  0.1655 -0.1171 -0.2955
40644OCT     C181287   6.288  12.848  22.848 -0.0735  0.2211 -0.0352
40644OCT     C281288   6.685  12.768  23.135  0.0419  0.4118  0.0049
40645OCT     C181289  22.286   0.067   8.773  0.2824 -0.1606  0.0308
40645OCT     C281290  22.269   0.386   8.467  0.1887  0.2886  0.2869
40646OCT     C181291  22.318  18.795  17.106 -0.1854 -0.2985  0.2941
40646OCT     C281292  22.752  18.894  17.183 -0.1544  0.1510 -0.0437
40647OCT     C181293   7.297   1.621   7.319 -0.3721  0.1582 -0.0909
40647OCT     C281294   7.039   1.506   7.703  0.1514  0.2326 -0.1259
40648OCT     C181295   4.227   2.040  10.582 -0.0510  0.3303 -0.4086
40648OCT     C281296   4.579   2.055  10.303 -0.3193  0.4898 -0.0878
40649OCT     C181297  12.137  19.988  15.515  0.2014  0.1929  0.1107
40649OCT     C281298  12.225  19.562  15.309 -0.2628 -0.0807 -0.1210
40650OCT     C181299   9.540  17.091  11.084 -0.2612 -0.0131 -0.2245
40650OCT     C281300   9.219  17.158  11.389 -0.0102  0.2914 -0.1536
40651OCT     C181301  10.148  22.369   7.035  0.1321 -0.1924 -0.2196
40651OCT     C281302  10.144  22.231   7.456  0.1999  0.2754  0.0548
40652OCT     C181303  16.463  10.122   7.538  0.3166  0.2716  0.0379
40652OCT     C281304  16.775  10.063   7.836  0.0506  0.2098 -0.2988
40653OCT     C181305   0.815   7.083   4.553  0.1528 -0.3922  0.0846
40653OCT     C281306   0.518   6.950   4.865  0.0957  0.4870 -0.2306
40654OCT     C181307   5.772   1.158   9.801  0.1917 -0.3153 -0.0430
40654OCT     C281308   5.893   1.264  10.225  0.0163 -0.3640  0.1977
40655OCT     C181309  18.882  18.382   8.168  0.1602 -0.1355  0.0885
40655OCT     C281310  18.487  18.529   8.176 -0.1362 -0.1146 -0.4634
40656OCT     C181311  17.293  17.021  17.341 -0.1727 -0.4259 -0.2399
40656OCT     C281312  16.960  17.112  17.612  0.1193 -0.1339  0.2404
40657OCT     C181313  11.506  17.666   2.519  0.2134  0.0409 -0.0711
40657OCT     C281314  11.229  17.275   2.497 -0.0105 -0.2696 -0.4728
40658OCT     C181315  22.843   6.789  14.580 -0.3097 -0.0128  0.3486
40658OCT     C281316  22.587   7.136  14.432  0.3767 -0.3718  0.1998
40659OCT     C181317  16.834   3.494   6.143 -0.0346 -0.0283  0.0691
40659OCT     C281318  17.226   3.703   6.067  0.3916  0.2154  0.3289
40660OCT     C181319  18.380  16.459  17.797  0.1436  0.3459 -0.2600
40660OCT     C281320  17.957  16.291  17.908  0.0156 -0.2293  0.1871
40661OCT     C181321  17.786  20.845  12.957  0.1478 -0.0690  0.3244
40661OCT     C281322  17.846  21.284  13.133 -0.2512 -0.4062  0.1637
40662OCT     C181323   2.048  12.056  19.145 -0.4245 -0.1910  0.1704
40662OCT     C281324   2.280  11.845  18.792  0.1230  0.0132 -0.0695
40663OCT     C181325   6.780   0.102   5.024 -0.2114 -0.3527 -0.3145
40663OCT     C281326   6.379   0.128   5.149 -0.1967  0.0917  0.0701
40664OCT     C181327   8.409  22.852  17.392  0.0577  0.3909 -0.0236
40664OCT     C281328   8.449  23.310  17.338  0.2664 -0.3618 -0.4595
40665OCT     C181329   9.390   8.139  15.875 -0.0094 -0.5410  0.1309
40665OCT     C281330   9.022   8.418  15.829  0.2342 -0.3244 -0.0440
40666OCT     C181331   4.988  18.430   6.656 -0.2598 -0.0620  0.0352
40666OCT     C281332   4.798  18.539   7.076 -0.0160 -0.1169 -0.0831
40667OCT     C181333   8.178  13.888  15.048 -0.1146 -0.1762  0.0546
40667OCT     C281334   8.616  13.947  15.173  0.0659  0.0690 -0.0458
40668OCT     C181335  22.541   2.965  15.773 -0.3398  0.1523  0.2461
40668OCT     C281336  22.877   3.217  15.700 -0.1626 -0.2670  0.2971
40669OCT     C181337   8.723   5.311  17.185  0.1527  0.1175  0.2994
40669OCT     C281338   8.966   5.400  16.778 -0.0888 -0.0274  0.1258
40670OCT     C181339  21.146   1.044  15.639  0.3077 -0.0782 -0.1504
40670OCT     C281340  21.188   1.324  16.056  0.2642  0.4997  0.1612
40671OCT     C181341   2.399  20.438   9.314  0.0869  0.1538  0.1285
40671OCT     C281342   2.190  20.174   9.667  0.4057 -0.1859 -0.3388
40672OCT     C181343  19.096  10.599   4.605 -0.0400 -0.3577  0.0190
40672OCT     C281344  18.637  10.485   4.452 -0.0689 -0.4136  0.3695
40673OCT     C181345  18.567   0.730   6.166  0.0040  0.1341 -0.1265
40673OCT     C281346  18.771   0.879   6.533  0.0902  0.2809 -0.1040
40674OCT     C181347  14.449  12.386   8.294 -0.0720 -0.0447  0.0848
40674OCT     C281348  14.900  12.291   8.412  0.0696 -0.1003  0.1537
40675OCT     C181349  16.090  11.114  21.896 -0.0113 -0.0143  0.1073
40675OCT     C281350  16.516  11.011  21.700 -0.0104 -0.1901  0.0226
40676OCT     C181351  23.525   0.399  12.000 -0.0827 -0.0284 -0.4438
40676OCT     C281352  23.295   0.224  11.671  0.2060  0.0606 -0.0924
40677OCT     C181353   9.647  10.602  11.301  0.4440 -0.0318  0.1352
40677OCT     C281354   9.682  10.973  11.636  0.2229  0.3834  0.3310
40678OCT     C181355  21.626   3.430   8.337 -0.1280  0.1102  0.1489
40678OCT     C281356  21.659   3.423   7.857 -0.1566 -0.1686  0.0487
40679OCT     C181357  16.491  13.481   8.824 -0.3289  0.0554 -0.1338
40679OCT     C281358  16.372  13.159   9.098 -0.1333 -0.1611 -0.3103
40680OCT     C181359   0.536  13.321   2.245  0.0914  0.0073  0.0103
40680OCT     C281360   0.801  13.408   2.602  0.3382  0.0389  0.0297
40681OCT     C181361  17.378  21.748  22.100 -0.4348 -0.0534 -0.0163
40681OCT     C281362  17.748  21.949  22.366 -0.0258 -0.1660 -0.0639
40682OCT     C181363  18.888   0.987  14.871  0.0741  0.0834 -0.2429
40682OCT     C281364  18.994   0.673  15.242  0.0816  0.0026  0.0685
40683OCT     C181365  11.751  23.731  18.215 -0.2611  0.0438  0.0345
40683OCT     C281366  11.728  23.736  17.715 -0.2487 -0.1362  0.2942
40684OCT     C181367  15.890   1.007   3.790  0.1516  0.3323  0.2941
40684OCT     C281368  15.623   1.205   3.457  0.0997 -0.0661 -0.2949
40685OCT     C181369  20.181  18.331  14.671 -0.1945  0.2746 -0.0452
40685OCT     C281370  19.864  17.982  14.699 -0.0971  0.0982  0.0036
40686OCT     C181371  18.301   4.526   8.115  0.0934 -0.2064 -0.1876
40686OCT     C281372  18.409   4.149   8.037 -0.3068  0.2429 -0.0796
40687OCT     C181373  11.780   2.578  16.470  0.2305 -0.1762  0.1899
40687OCT     C281374  11.497   2.507  16.135  0.0325  0.0775 -0.0328
40688OCT     C181375   3.769   0.798   6.528  0.0573  0.0455  0.0049
40688OCT     C281376   4.126   0.885   6.261  0.3043 -0.1454  0.3179
40689OCT     C181377   3.159   0.036  17.243 -0.0286 -0.0770 -0.1105
40689OCT     C281378   3.078  23.358  17.039  0.0990 -0.3354  0.2049
40690OCT     C181379   8.982  19.436  18.246 -0.1735  0.1413 -0.0304
40690OCT     C281380   8.864  19.160  18.549 -0.3319 -0.1280  0.0320
40691OCT     C181381  15.673   4.806   7.720  0.0437  0.1602 -0.0481
40691OCT     C281382  15.273   4.658   7.551 -0.3418  0.2213  0.2316
40692OCT     C181383  13.379   5.713   5.347 -0.1010  0.1451  0.3699
40692OCT     C281384  13.747   5.958   5.372 -0.1193 -0.0798  0.0735
40693OCT     C181385   0.667  14.172  18.286 -0.2331  0.0249  0.1157
40693OCT     C281386   0.667  13.912  18.714 -0.0167  0.1045 -0.1881
40694OCT     C181387  21.054   4.408  14.670  0.2100  0.2019 -0.0605
40694OCT     C281388  21.359   4.400  15.006 -0.0928 -0.2264  0.2492
40695OCT     C181389  18.662  14.784   2.867  0.0598  0.0367 -0.1698
40695OCT     C281390  18.507  14.503   3.261 -0.2746  0.2955 -0.2018
40696OCT     C181391  15.644   6.498  11.432  0.1459  0.0796 -0.1761
40696OCT     C281392  15.342   6.638  11.092 -0.1653 -0.2968 -0.1856
40697OCT     C181393  18.229  22.747   1.651 -0.2845  0.2382 -0.2257
40697OCT     C281394  17.737  22.795   1.648 -0.2471 -0.2172  0.0725
40698OCT     C181395  16.231   6.164   3.220 -0.0102 -0.0702  0.0573
40698OCT     C281396  16.217   6.547   3.545  0.3315  0.4284 -0.2119
40699OCT     C181397  16.861  10.010  22.478  0.3133  0.1309 -0.0775
40699OCT     C281398  17.224  10.000  22.741 -0.1587  0.2045 -0.0803
40700OCT     C181399   4.497   1.799   6.088 -0.2943 -0.2469  0.0179
40700OCT     C281400   4.134   1.825   6.428 -0.0074  0.1878 -0.0277
40701OCT     C181401   8.780   8.819   4.212 -0.1297  0.1796  0.4627
40701OCT     C281402   8.431   8.539   4.098 -0.1364  0.2569 -0.1298
40702OCT     C181403   6.848   5.472   2.061 -0.1603  0.2520  0.1112
40702OCT     C281404   7.203   5.317   2.290 -0.1454  0.0164 -0.1185
40703OCT     C181405   7.293   5.479   2.895 -0.2423 -0.3644 -0.0665
40703OCT     C281406   7.310   5.956   2.820 -0.0182 -0.0003  0.4975
40704OCT     C181407   1.342   1.270  13.690 -0.0631 -0.1322 -0.0997
40704OCT     C281408   1.305   1.756  13.704 -0.1974 -0.0510 -0.0651
40705OCT     C181409  14.690  19.827  20.832  0.2158 -0.1254  0.5907
40705OCT     C281410  15.035  19.813  21.063 -0.4103 -0.3487 -0.2692
40706OCT     C181411  23.109  15.681  21.462 -0.4330 -0.0751  0.1742
40706OCT     C281412  22.789  15.427  21.267 -0.3849  0.1397 -0.2466
40707OCT     C181413  18.282   6.209   0.172  0.1760 -0.1617 -0.2205
40707OCT     C281414  18.408   6.541   0.538 -0.3290 -0.2816  0.1457
40708OCT     C181415  15.325  18.901  17.514 -0.1231  0.1340 -0.0571
40708OCT     C281416  15.356  18.959  17.080  0.3168  0.1972 -0.1270
40709OCT     C181417   2.667  17.452   8.541 -0.0163 -0.1980  0.0701
40709OCT     C281418   2.523  17.743   8.163 -0.2377  0.0288 -0.1893
40710OCT     C181419  14.205  17.910  10.663  0.0505  0.2274 -0.0097
40710OCT     C281420  14.058  17.731  11.098 -0.1479  0.1563  0.0847
40711OCT     C181421  21.291   3.890  11.362 -0.1374 -0.1406 -0.1376
40711OCT     C281422  21.489   3.432  11.217 -0.0289 -0.1313  0.1381
40712OCT     C181423  18.400   5.274   9.946 -0.0690 -0.2481  0.5294
40712OCT     C281424  18.406   4.853   9.844 -0.3382 -0.0411  0.1039
40713OCT     C181425   0.347   1.993  19.532  0.0656  0.1705 -0.0566
40713OCT     C281426   0.103   2.292  19.291 -0.0125  0.1376  0.0467
40714OCT     C181427   9.894   6.529   0.324 -0.2718 -0.0444  0.3034
40714OCT     C281428  10.312   6.340   0.445  0.2777  0.1169 -0.3047
40715OCT     C181429  22.984  22.164   1.435 -0.0409 -0.0460  0.0571
40715OCT     C281430  22.558  22.335   1.552  0.1843 -0.1179 -0.0471
40716OCT     C181431  20.672  11.570  18.720 -0.0176 -0.0855 -0.0603
40716OCT     C281432  20.535  11.912  18.427 -0.0506  0.0025 -0.0174
40717OCT     C181433  16.399   3.431   9.469  0.0496  0.1000  0.0744
40717OCT     C281434  16.763   3.363   9.798  0.0495 -0.2525 -0.0458
40718OCT     C181435  19.074  16.188   4.558  0.1951 -0.0005  0.0470
40718OCT     C281436  18.864  15.790   4.565 -0.0293 -0.0216  0.0838
40719OCT     C181437  14.076   2.869  22.157  0.0059  0.3054 -0.1773
40719OCT     C281438  13.739   2.779  22.480 -0.4528 -0.1745 -0.1874
40720OCT     C181439  16.404  14.643  19.363  0.0689  0.1975 -0.3513
40720OCT     C281440  16.151  14.988  19.224 -0.0911  0.0918 -0.0721
40721OCT     C181441   6.805  11.021  11.324  0.0582  0.0759  0.2874
40721OCT     C281442   7.108  10.703  11.401 -0.2716 -0.1714  0.1554
40722OCT     C181443  20.474   3.051   7.098 -0.0743  0.1236 -0.0687
40722OCT     C281444  20.377   2.792   6.698  0.4627 -0.2663 -0.1115
40723OCT     C181445  20.505  21.717   3.268  0.1690  0.3208  0.1229
40723OCT     C281446  20.997  21.673   3.194  0.0806  0.0943 -0.0187
40724OCT     C181447  16.230   7.600  16.158  0.0923  0.0220 -0.3573
40724OCT     C281448  16.230   7.351  15.807 -0.3331  0.2478  0.0914
40725OCT     C181449  20.575   7.140  16.603 -0.2111 -0.2799 -0.0176
40725OCT     C281450  20.620   7.557  16.436  0.0105  0.1095  0.0808
40726OCT     C181451  12.270  13.056   4.012  0.2567  0.3759 -0.1078
40726OCT     C281452  11.837  13.085   4.243  0.0132 -0.0330  0.3925
40727OCT     C181453  17.773   9.555  23.231 -0.0210 -0.4951  0.4571
40727OCT     C281454  18.183   9.749  23.094  0.2362 -0.1750  0.0137
40728OCT     C181455  13.046   0.930  16.232  0.1771 -0.2302  0.2140
40728OCT     C281456  13.528   0.994  16.188 -0.3514 -0.1091  0.0137
40729OCT     C181457  13.387  10.436   8.395  0.0119 -0.0149 -0.0903
40729OCT     C281458  13.211  10.189   8.048 -0.0343  0.1280 -0.0923
40730OCT     C181459   5.311  18.857  22.214 -0.0472  0.0356 -0.0961
40730OCT     C281460   4.977  18.895  22.476 -0.1031  0.0384 -0.2383
40731OCT     C181461   9.794  16.075  17.191  0.0246 -0.1538 -0.2108
40731OCT     C281462   9.921  16.375  16.870 -0.3241  0.2790  0.2634
40732OCT     C181463  15.643  10.476   5.763 -0.3504  0.1021 -0.2135
40732OCT     C281464  16.011  10.252   5.563 -0.0289  0.1944  0.0061
40733OCT     C181465  12.986  17.304  19.122 -0.1073 -0.2399 -0.1019
40733OCT     C281466  12.755  16.971  19.375  0.0052 -0.0619 -0.0949
40734OCT     C181467   5.189   3.177  23.361 -0.3726 -0.4405 -0.1426
40734OCT     C281468   5.409   2.933  23.046 -0.0891 -0.3290 -0.0479
40735OCT     C181469   7.218   0.448  18.910 -0.0753  0.0079 -0.1526
40735OCT     C281470   6.971   0.627  19.247 -0.3156  0.1469 -0.0897
40736OCT     C181471  21.582  22.967  15.886 -0.1403  0.0779 -0.0531
40736OCT     C281472  21.801  22.731  16.209 -0.0853 -0.2550  0.3839
40737OCT     C181473  20.166   6.216   2.931  0.0398 -0.1148 -0.3249
40737OCT     C281474  19.912   5.849   3.063 -0.0256 -0.2599  0.2367
40738OCT     C181475   9.087   7.661  22.947 -0.2300 -0.0929  0.1897
40738OCT     C281476   9.421   7.482  23.240 -0.1850 -0.1517  0.0138
40739OCT     C181477  18.133  16.676  20.661 -0.1848 -0.2134 -0.2574
40739OCT     C281478  18.564  16.490  20.455  0.0574  0.0087 -0.3232
40740OCT     C181479   7.074  12.794  14.958  0.0742  0.0660 -0.1710
40740OCT     C281480   6.694  12.924  15.223  0.0034 -0.3015  0.0956
40741OCT     C181481   3.379   4.834   9.925  0.2753  0.1184 -0.0154
40741OCT     C281482   3.873   4.760   9.984  0.2427 -0.2771  0.0563
40742OCT     C181483  16.331   7.889   2.883 -0.3124  0.1481  0.0600
40742OCT     C281484  16.647   7.880   3.205 -0.2129 -0.1056 -0.0238
40743OCT     C181485  16.312  21.129  20.696  0.0001  0.0297 -0.2723
40743OCT     C281486  15.824  21.097  20.661 -0.0100  0.0973 -0.1294
40744OCT     C181487  11.981  12.482  23.341  0.3369  0.0356  0.0624
40744OCT     C281488  12.157  12.296  22.926 -0.2474 -0.1209  0.1117
40745OCT     C181489  18.347  15.044  17.473 -0.3468 -0.0087  0.1764
40745OCT     C281490  18.401  15.398  17.143  0.1149  0.0778 -0.0521
40746OCT     C181491  18.969   4.560  20.225 -0.4180 -0.2124  0.0900
40746OCT     C281492  18.975   4.215  20.524 -0.0891  0.0519 -0.0437
40747OCT     C181493  12.055   8.063  17.627  0.0849  0.0789 -0.0099
40747OCT     C281494  11.776   8.174  18.066  0.0088 -0.5197  0.1262
40748OCT     C181495   2.386   6.291  10.602  0.0969 -0.2308  0.1221
40748OCT     C281496   2.683   6.660  10.421 -0.1566 -0.0348  0.1657
40749OCT     C181497   7.507  10.998   5.675  0.2208  0.2559  0.0523
40749OCT     C281498   7.917  11.231   5.588 -0.1954 -0.0712  0.2460
40750OCT     C181499   3.709  18.524  11.632 -0.1355  0.2498 -0.1840
40750OCT     C281500   3.775  18.302  11.202  0.0366 -0.4227 -0.1169
40751OCT     C181501   8.383  21.771  14.317 -0.1356 -0.2229 -0.2066
40751OCT     C281502   8.449  21.805  13.837  0.0338  0.3149  0.1577
40752OCT     C181503   7.845   2.529  23.045 -0.2833 -0.5567  0.0268
40752OCT     C281504   7.973   2.645  22.587  0.1398  0.1578  0.1031
40753OCT     C181505   7.687   9.861  19.004 -0.2742 -0.3867  0.3634
40753OCT     C281506   7.830  10.259  19.015 -0.0396 -0.0843 -0.0613
40754OCT     C181507  15.657  13.730  22.501 -0.1876  0.1931  0.2932
40754OCT     C281508  15.751  14.165  22.702  0.1353 -0.0515  0.2314
40755OCT     C181509   9.886   2.489   0.264 -0.1157 -0.4001 -0.0237
40755OCT     C281510   9.600   2.609   0.598  0.4312 -0.0209  0.0247
40756OCT     C181511  23.242  21.547  13.743  0.2111 -0.0591 -0.0265
40756OCT     C281512  22.893  21.793  13.876 -0.2996 -0.2479  0.0644
40757OCT     C181513  10.904  22.898  16.550  0.1632  0.2560 -0.1726
40757OCT     C281514  10.506  22.813  16.821 -0.5092  0.4598 -0.0045
40758OCT     C181515   6.777  16.239  11.862  0.0789 -0.0271 -0.1229
40758OCT     C281516   6.719  16.701  12.029  0.0255 -0.0990 -0.0392
40759OCT     C181517   7.560   5.764  19.106  0.1544 -0.2441 -0.0752
40759OCT     C281518   7.130   5.778  19.322 -0.2356  0.1670 -0.3169
40760OCT     C181519  12.549  19.103   5.732  0.3555 -0.1391  0.0108
40760OCT     C281520  12.199  19.013   5.462 -0.1245 -0.1510  0.0803
40761OCT     C181521   2.688  15.162  23.129  0.2672  0.0551 -0.2773
40761OCT     C281522   2.313  15.002  22.896  0.0297 -0.1475 -0.0401
40762OCT     C181523   0.664   3.435  11.988  0.2119  0.0319  0.2115
40762OCT     C281524   0.712   3.157  12.312 -0.1055  0.0388 -0.4538
40763OCT     C181525   4.131  19.808  22.752  0.0057 -0.2627  0.0014
40763OCT     C281526   4.152  19.567  22.311  0.0109  0.0063  0.1506
40764OCT     C181527  17.246  20.781  16.032  0.0403  0.0999  0.2070
40764OCT     C281528  16.847  20.619  15.889  0.1786 -0.0383  0.1238
40765OCT     C181529  19.589   0.201   5.822 -0.2644  0.2526  0.3944
40765OCT     C281530  19.099   0.127   5.874  0.1016 -0.0315  0.1900
40766OCT     C181531  10.642   9.984  22.427  0.3762 -0.1175 -0.1663
40766OCT     C281532  10.927  10.323  22.332 -0.0566  0.0243  0.2622
40767OCT     C181533  10.088   6.241  23.711  0.0717 -0.1094 -0.2142
40767OCT     C281534  10.159   5.790  23.608 -0.0133  0.2054 -0.1296
40768OCT     C181535   7.005  10.144  12.510 -0.0540  0.0187 -0.2257
40768OCT     C281536   7.444   9.970  12.424  0.0065  0.1622  0.2528
40769OCT     C181537  17.572   3.198  21.623 -0.5131 -0.2213  0.1884
40769OCT     C281538  17.329   2.965  21.304  0.0679  0.1898 -0.1020
40770OCT     C181539   1.505  18.390  19.411  0.1004 -0.1928  0.1728
40770OCT     C281540   1.306  18.829  19.421  0.1054  0.0586 -0.1774
40771OCT     C181541  23.024  18.270  20.017 -0.0425 -0.2964  0.0341
40771OCT     C281542  22.975  18.735  19.914 -0.2058  0.0392  0.3175
40772OCT     C181543   3.864   2.241  12.116  0.1057  0.3461 -0.0940
40772OCT     C281544   4.195   1.958  12.020  0.5134  0.1830 -0.1149
40773OCT     C181545   3.076  12.301   2.451  0.0016  0.1407  0.1733
40773OCT     C281546   3.287  12.261   2.082 -0.1222 -0.1629  0.4576
40774OCT     C181547  10.129  14.703  12.435 -0.1734  0.3493  0.3939
40774OCT     C281548   9.973  14.793  12.879  0.3422 -0.0811  0.2164
40775OCT     C181549   6.284   5.231  17.265 -0.2798 -0.0480  0.0651
40775OCT     C281550   5.881   5.326  17.072  0.2085  0.0478  0.0482
40776OCT     C181551   5.442  19.325  20.046 -0.1722 -0.4089 -0.2006
40776OCT     C281552   5.171  19.611  19.850  0.0277 -0.0342 -0.0305
40777OCT     C181553   4.329  19.591  23.252  0.3515 -0.0617 -0.1702
40777OCT     C281554   4.535  19.514  22.800  0.0754 -0.0178 -0.0386
40778OCT     C181555   0.935   7.398  10.073 -0.2431  0.0664  0.2731
40778OCT     C281556   1.095   7.828  10.211  0.1694 -0.2583  0.0810
40779OCT     C181557  19.257  20.434   4.981 -0.1483 -0.1365 -0.0665
40779OCT     C281558  18.841  20.495   4.849  0.3127 -0.1496  0.0443
40780OCT     C181559   8.386   2.169  18.164 -0.0288  0.0436 -0.0202
40780OCT     C281560   7.963   2.149  17.844 -0.1584 -0.1480  0.1200
40781OCT     C181561  15.448  15.952   8.895  0.0952 -0.1066 -0.2816
40781OCT     C281562  15.319  16.259   9.283  0.0923 -0.3876  0.0019
40782OCT     C181563  11.738  17.064  22.715  0.1008 -0.0914  0.1262
40782OCT     C281564  11.604  17.262  23.085 -0.1765 -0.1724 -0.3388
40783OCT     C181565   2.993  11.858  22.732 -0.0294 -0.1780 -0.0464
40783OCT     C281566   2.679  12.210  22.566  0.1453 -0.2916  0.0512
40784OCT     C181567   0.254   5.101  16.551  0.1904 -0.0369  0.2059
40784OCT     C281568   0.706   5.110  16.371  0.0902 -0.1205 -0.1315
40785OCT     C181569  18.142  16.400  14.502 -0.1242  0.1091 -0.4305
40785OCT     C281570  17.734  16.584  14.749  0.0289  0.0894  0.0061
40786OCT     C181571  18.594   0.135   5.855 -0.1770  0.2937 -0.3355
40786OCT     C281572  18.444   0.180   6.251 -0.0484 -0.1730  0.3507
40787OCT     C181573  12.496  19.028  10.789  0.1334 -0.2189  0.1398
40787OCT     C281574  12.107  19.285  10.846  0.1931  0.0560  0.2925
40788OCT     C181575  14.234   0.034  15.351 -0.2617 -0.3731  0.0346
40788OCT     C281576  14.058  23.466  15.085  0.0427  0.1373 -0.3879
40789OCT     C181577  22.567  17.211  12.564 -0.0016  0.0435  0.2079
40789OCT     C281578  22.368  17.523  12.832  0.3278 -0.1345 -0.1661
40790OCT     C181579  21.307   0.097  14.339  0.2331 -0.1779 -0.0650
40790OCT     C281580  21.334   0.153  13.842  0.0886  0.1495 -0.1253
40791OCT     C181581   4.116  13.975  18.695  0.1976  0.1422 -0.4600
40791OCT     C281582   4.327  14.349  18.741  0.0856 -0.1459  0.1748
40792OCT     C181583   0.725  19.282   5.698 -0.4725  0.1339  0.0156
40792OCT     C281584   0.804  19.179   5.231  0.1300  0.0917 -0.2369
40793OCT     C181585  13.464   2.392  21.512 -0.4162 -0.0855  0.4036
40793OCT     C281586  13.558   1.991  21.308  0.0650  0.0466  0.0117
40794OCT     C181587  13.214  12.011   8.314 -0.0066  0.1959  0.0787
40794OCT     C281588  13.550  12.041   8.699 -0.0674 -0.0575  0.2206
40795OCT     C181589  17.188  16.099   4.106 -0.1000  0.0834  0.0479
40795OCT     C281590  17.357  16.481   4.264  0.2456  0.3573  0.0160
40796OCT     C181591   4.073   4.897  17.016  0.1507 -0.3024  0.2072
40796OCT     C281592   4.043   5.193  17.375  0.3228 -0.2138 -0.1566
40797OCT     C181593  11.456   7.992   3.314 -0.1020  0.1500  0.1865
40797OCT     C281594  11.688   7.861   3.714  0.1197 -0.5392  0.0131
40798OCT     C181595   2.457   7.406   8.243 -0.2072  0.1759  0.0095
40798OCT     C281596   2.697   7.560   8.678  0.1426  0.0477 -0.2103
40799OCT     C181597   3.021  12.900   8.700 -0.1046  0.2084 -0.0367
40799OCT     C281598   2.823  12.734   8.316 -0.1157  0.2187  0.3002
40800OCT     C181599  17.988  15.600  22.198  0.0160  0.2155 -0.2427
40800OCT     C281600  17.962  15.180  22.475  0.0140  0.3089 -0.2947
40801OCT     C181601  12.015  22.695  19.557 -0.1215 -0.2412 -0.4003
40801OCT     C281602  12.264  22.498  19.885 -0.2360  0.0187  0.1558
40802OCT     C181603   2.902  12.047   9.907 -0.5182  0.1034 -0.0753
40802OCT     C281604   2.960  12.425   9.588  0.0652 -0.0350 -0.0941
40803OCT     C181605  12.203  18.344  11.875 -0.0177  0.1973 -0.1800
40803OCT     C281606  11.884  18.255  12.226 -0.0156  0.0915  0.0661
40804OCT     C181607  14.331  21.386  19.654 -0.0713  0.0958 -0.1928
40804OCT     C281608  14.752  21.572  19.706 -0.0739  0.3549  0.2343
40805OCT     C181609  10.967  11.886  18.096  0.0477 -0.0994 -0.3763
40805OCT     C281610  11.099  11.793  18.528 -0.0349  0.0214  0.3846
40806OCT     C181611   6.555  10.306  22.553  0.2234  0.3887 -0.4724
40806OCT     C281612   6.523  10.245  22.093  0.1489  0.0447 -0.1153
40807OCT     C181613   6.302  12.244   6.518  0.1510 -0.0089 -0.1147
40807OCT     C281614   6.166  12.572   6.846 -0.3187  0.0995 -0.2302
40808OCT     C181615  19.636  14.402  12.535  0.0408  0.0954  0.2503
40808OCT     C281616  19.431  14.057  12.725  0.0635 -0.2284  0.2565
40809OCT     C181617   6.290  23.695  14.395 -0.2840 -0.1703 -0.1392
40809OCT     C281618   6.427  23.226  14.441  0.5877 -0.2604  0.3929
40810OCT     C181619  15.640   8.989  22.926 -0.1471  0.2073 -0.1000
40810OCT     C281620  16.014   8.853  22.730  0.1777  0.2757 -0.0399
40811OCT     C181621   6.079  12.894   8.237  0.1989  0.0173  0.1752
40811OCT     C281622   6.149  12.430   8.448  0.1278 -0.0398 -0.1639
40812OCT     C181623  17.022  18.843  20.261 -0.1025 -0.1474 -0.1426
40812OCT     C281624  16.813  18.654  19.902  0.0896  0.0261  0.3229
40813OCT     C181625  17.125  18.006   9.416 -0.1598 -0.0482 -0.0038
40813OCT     C281626  16.896  17.708   9.657  0.0447 -0.0366  0.0577
40814OCT     C181627  15.296  23.372  18.240  0.0951 -0.0911  0.0741
40814OCT     C281628  15.396  23.061  18.489  0.3091  0.0365  0.1803
40815OCT     C181629   3.799   9.897   0.095  0.2076 -0.3048  0.1910
40815OCT     C281630   4.237   9.906   0.367 -0.0108 -0.2625  0.1416
40816OCT     C181631   0.847  22.869  22.033  0.0288  0.1689  0.0373
40816OCT     C281632   1.270  23.087  21.985  0.1414 -0.3223  0.1931
40817OCT     C181633  17.293   4.544  15.452  0.0897 -0.2700  0.1713
40817OCT     C281634  17.666   4.497  15.735  0.0283  0.0386 -0.3210
40818OCT     C181635   0.941   9.794  11.188  0.1850 -0.1099  0.1523
40818OCT     C281636   1.022   9.331  11.226  0.0754 -0.0720 -0.1528
40819OCT     C181637  22.404   2.274   7.084  0.0643  0.2805 -0.2988
40819OCT     C281638  22.701   2.403   6.758  0.0549  0.2275 -0.4538
40820OCT     C181639  15.378   0.915   8.445 -0.1592 -0.0816 -0.2425
40820OCT     C281640  15.758   0.636   8.299 -0.0704 -0.0889 -0.2186
40821OCT     C181641  10.906   1.800  21.857  0.6586  0.1088 -0.2015
40821OCT     C281642  10.795   1.842  22.310  0.0278  0.1763 -0.0165
40822OCT     C181643   4.493   6.750  19.744  0.0283  0.0594 -0.1241
40822OCT     C281644   4.323   6.551  19.353  0.1099 -0.1749  0.3428
40823OCT     C181645   1.008   6.597   2.392 -0.1648  0.4669 -0.0964
40823OCT     C281646   1.234   6.257   2.554  0.0231 -0.0094  0.2267
40824OCT     C181647  23.020  22.159  20.143  0.1656 -0.0371 -0.0520
40824OCT     C281648  23.162  22.491  19.877  0.2271 -0.2927  0.0151
40825OCT     C181649  20.083  12.243  15.714  0.0079 -0.0676 -0.0004
40825OCT     C281650  20.426  12.042  15.481 -0.1487  0.0383 -0.0454
40826OCT     C181651  22.668  13.624   2.685  0.3236 -0.1166  0.4454
40826OCT     C281652  22.551  14.057   2.775 -0.0269 -0.1068  0.1817
40827OCT     C181653  17.418  15.726  18.182  0.2482  0.1763 -0.0015
40827OCT     C281654  17.433  16.184  17.972 -0.1321 -0.0826  0.0344
40828OCT     C181655  23.589   1.353   3.218  0.0094 -0.0891 -0.0755
40828OCT     C281656  23.266   1.025   3.330  0.2258 -0.1631  0.0747
40829OCT     C181657   5.925  12.601   2.855 -0.2739  0.2325  0.1995
40829OCT     C281658   6.278  12.768   3.136  0.1518  0.0026 -0.3236
40830OCT     C181659  20.350   9.129  13.339 -0.0662  0.3407  0.0727
40830OCT     C281660  20.838   9.090  13.211  0.2631 -0.1702  0.0383
40831OCT     C181661   3.230   3.442  17.030 -0.3470  0.1520  0.0142
40831OCT     C281662   3.445   3.047  16.998  0.2267  0.3541  0.0591
40832OCT     C181663  19.269  18.309   0.563 -0.0098  0.1006  0.0615
40832OCT     C281664  19.518  18.734   0.777 -0.0302 -0.1910 -0.2066
40833OCT     C181665  15.220   6.448   9.801 -0.0254 -0.0931 -0.1513
40833OCT     C281666  15.086   6.755  10.127  0.0072 -0.3514  0.1560
40834OCT     C181667  20.419  10.795  11.915  0.0476  0.0269 -0.0609
40834OCT     C281668  19.961  10.678  11.781  0.0281  0.2731 -0.3212
40835OCT     C181669   0.879  13.995   9.456 -0.1073  0.3158  0.2588
40835OCT     C281670   0.570  14.294   9.342  0.0491  0.4004  0.1314
40836OCT     C181671   4.671   4.715   2.822  0.1942  0.1643 -0.0234
40836OCT     C281672   4.687   4.229   2.730  0.1445  0.1715 -0.2575
40837OCT     C181673  22.067   9.495   8.419 -0.1078 -0.2627  0.0410
40837OCT     C281674  22.236   9.174   8.741 -0.0823 -0.1773  0.0333
40838OCT     C181675   1.830  15.278   2.855  0.3410 -0.2480  0.0115
40838OCT     C281676   1.850  15.004   3.209  0.1939  0.1941  0.1598
40839OCT     C181677  17.661   4.415  16.257  0.3261  0.0339 -0.1580
40839OCT     C281678  18.061   4.599  16.066 -0.0653 -0.0487 -0.2308
40840OCT     C181679   0.553   0.647  12.919 -0.2127 -0.1898  0.4679
40840OCT     C281680   0.987   0.858  12.950  0.2559  0.1796  0.2408
40841OCT     C181681  21.050  11.885  11.860 -0.0239  0.4281  0.0075
40841OCT     C281682  20.595  11.959  11.982 -0.3126  0.2483  0.3546
40842OCT     C181683  13.453   9.442   3.192 -0.1386 -0.4399  0.1575
40842OCT     C281684  13.315   9.035   3.275 -0.1648  0.2361  0.4013
40843OCT     C181685   9.414   8.001   7.714  0.0641 -0.0350 -0.1923
40843OCT     C281686   9.179   7.681   7.924  0.2434 -0.3917  0.0285
40844OCT     C181687   0.000   4.622   3.467 -0.1903  0.0766  0.0535
40844OCT     C281688  23.492   4.327   3.662  0.1183  0.1503  0.1700
40845OCT     C181689   3.829  22.264  15.773  0.1615 -0.0969 -0.1625
40845OCT     C281690   4.030  22.542  16.085 -0.0764  0.3779 -0.1606
40846OCT     C181691   9.039  13.127  11.369 -0.3747  0.3115 -0.2387
40846OCT     C281692   8.701  13.272  11.613 -0.1146 -0.3840 -0.5645
40847OCT     C181693   9.000   3.297   0.288  0.1611 -0.1645  0.0075
40847OCT     C281694   8.930   3.584   0.646 -0.1633  0.4423 -0.1009
40848OCT     C181695   1.926  18.350   5.896  0.0868  0.0887  0.0918
40848OCT     C281696   1.907  18.683   6.257  0.3241  0.0941 -0.1118
40849OCT     C181697   7.453   1.617  22.242  0.1717 -0.1070 -0.0641
40849OCT     C281698   7.678   1.972  22.377  0.0538  0.0820  0.2691
40850OCT     C181699  11.726  23.730   7.563 -0.2825 -0.1987 -0.3750
40850OCT     C281700  12.158   0.066   7.341  0.0238 -0.2028 -0.4506
40851OCT     C181701  10.020   8.071   0.061 -0.0457  0.1736 -0.1840
40851OCT     C281702  10.489   7.977   0.052  0.1179 -0.3398  0.2431
40852OCT     C181703   9.140   8.273  13.696  0.0907  0.0562  0.0476
40852OCT     C281704   9.223   7.786  13.861 -0.0506 -0.0035  0.2815
40853OCT     C181705  23.074  21.417   8.250  0.1507 -0.2172 -0.3365
40853OCT     C281706  23.266  21.712   7.958 -0.0842  0.1159 -0.0077
40854OCT     C181707  17.093  22.916  13.406  0.3207 -0.1187 -0.2262
40854OCT     C281708  17.524  22.948  13.513  0.1026  0.0458 -0.1097
40855OCT     C181709   8.497   2.009  12.722  0.2154  0.2795 -0.1012
40855OCT     C281710   8.625   2.414  12.579 -0.0070  0.2516  0.2043
40856OCT     C181711  15.478  19.891  10.766  0.1081 -0.1592  0.1204
40856OCT     C281712  15.676  19.506  10.644  0.1295 -0.0004  0.1043
40857OCT     C181713   3.792  15.512  14.417  0.2607  0.2088 -0.1285
40857OCT     C281714   3.512  15.416  14.822  0.2104 -0.2021 -0.1617
40858OCT     C181715   6.435   5.634   0.219 -0.0639 -0.0487  0.1383
40858OCT     C281716   6.722   5.378   0.541 -0.3175  0.4296 -0.0984
40859OCT     C181717  22.756  20.002  20.033  0.1479  0.0161 -0.0065
40859OCT     C281718  22.499  19.915  19.640  0.1758 -0.3514 -0.0101
40860OCT     C181719  13.728  17.287   8.497  0.2133  0.2040  0.1983
40860OCT     C281720  13.943  17.620   8.731  0.3515  0.4538 -0.2706
40861OCT     C181721  12.394   0.923  23.105  0.3963 -0.0712 -0.0421
40861OCT     C281722  12.423   1.287  22.891 -0.4896 -0.3722  0.1932
40862OCT     C181723  15.713  11.846  12.230 -0.1974 -0.1547  0.0874
40862OCT     C281724  15.613  11.612  11.765 -0.1238 -0.3764  0.2523
40863OCT     C181725  12.747   4.034   5.158  0.1565  0.0104  0.2430
40863OCT     C281726  12.824   4.114   5.629 -0.1852  0.2610 -0.1338
40864OCT     C181727   0.191   9.095   6.667 -0.0853 -0.3461  0.0033
40864OCT     C281728   0.578   9.129   6.949 -0.0834  0.1920 -0.1233
40865OCT     C181729  10.294  13.418  12.961  0.1585 -0.0381  0.0969
40865OCT     C281730   9.893  13.379  12.682  0.0611  0.1958  0.1076
40866OCT     C181731   8.319   4.150  15.875  0.2190 -0.0135 -0.1726
40866OCT     C281732   8.393   3.884  15.499  0.2627 -0.0065 -0.0469
40867OCT     C181733   0.792   2.181  16.533  0.0140 -0.0582 -0.0058
40867OCT     C281734   0.695   2.093  16.062  0.1808  0.1635  0.0518
40868OCT     C181735   1.663  12.277   3.573 -0.1438  0.1333 -0.0814
40868OCT     C281736   1.686  12.745   3.400  0.0525  0.2025 -0.0076
40869OCT     C181737  11.057  17.561  12.417 -0.0011 -0.0346  0.0037
40869OCT     C281738  11.141  17.996  12.597  0.1141 -0.2662  0.2875
40870OCT     C181739   4.443   0.932  21.500  0.1125 -0.3091 -0.0280
40870OCT     C281740   4.092   0.621  21.445  0.1053  0.3418 -0.1950
40871OCT     C181741  18.840  21.527  23.352 -0.3702 -0.1385  0.1379
40871OCT     C281742  18.560  21.112  23.249 -0.3964  0.1545  0.1050
40872OCT     C181743  11.442   6.901   2.709 -0.0371 -0.0002  0.1981
40872OCT     C281744  11.657   6.478   2.764  0.0155 -0.0145 -0.0055
40873OCT     C181745   3.996   8.084  18.388  0.0712 -0.2353  0.0652
40873OCT     C281746   4.142   7.714  18.661 -0.1915 -0.0791  0.4122
40874OCT     C181747   7.458   6.391  20.193  0.3036  0.0183 -0.0557
40874OCT     C281748   7.541   6.856  20.175  0.2554 -0.0703 -0.3885
40875OCT     C181749  11.148   2.805  10.254  0.4045  0.0252 -0.2723
40875OCT     C281750  11.185   2.474   9.903  0.2690 -0.0650  0.1140
40876OCT     C181751  16.339   4.638   0.791  0.2872 -0.2701  0.2426
40876OCT     C281752  16.370   4.340   0.443 -0.0262  0.1636  0.0225
40877OCT     C181753  21.247  20.691  15.448  0.2569 -0.2755 -0.0789
40877OCT     C281754  20.901  21.086  15.414  0.0018  0.1275 -0.4706
40878OCT     C181755  14.875  18.189  16.679  0.0420 -0.0143  0.1244
40878OCT     C281756  15.280  17.984  16.571 -0.1395  0.4023 -0.0364
40879OCT     C181757   5.001  15.394   3.960 -0.0069 -0.2723 -0.3436
40879OCT     C281758   5.030  14.929   3.967  0.0205  0.5823  0.1882
40880OCT     C181759   1.762   1.194   8.082 -0.3497 -0.1853  0.2035
40880OCT     C281760   1.566   1.323   7.644  0.1179  0.0138  0.2002
40881OCT     C181761   1.628  11.194  22.469 -0.4201 -0.1016  0.1675
40881OCT     C281762   1.452  11.521  22.240  0.1164 -0.1958  0.1723
40882OCT     C181763   1.146   3.492  20.492  0.2183  0.1394  0.0259
40882OCT     C281764   1.092   3.786  20.854  0.2351  0.2076 -0.1004
40883OCT     C181765  10.132  20.778   6.223 -0.0463 -0.1758  0.2277
40883OCT     C281766   9.736  20.940   5.996  0.0927  0.1807 -0.1348
40884OCT     C181767   8.769  17.404   8.301 -0.1045 -0.1041  0.2165
40884OCT     C281768   8.525  17.798   8.034 -0.3736 -0.3699 -0.3549
40885OCT     C181769  21.379  17.501   0.915 -0.0675  0.2042  0.1662
40885OCT     C281770  20.960  17.315   0.744 -0.3296 -0.0134  0.0503
40886OCT     C181771  17.097  22.598   3.227  0.5651 -0.0580 -0.1074
40886OCT     C281772  17.220  23.076   3.101 -0.0807  0.3283 -0.1115
40887OCT     C181773   7.172  14.767   3.741  0.0558 -0.2204  0.1346
40887OCT     C281774   7.022  14.909   3.309 -0.1638  0.0206 -0.0425
40888OCT     C181775   8.747   5.614  15.420 -0.0459  0.2527  0.2893
40888OCT     C281776   8.282   5.619  15.324  0.2947 -0.1344 -0.0902
40889OCT     C181777  21.674  15.883  19.399  0.0748 -0.0301 -0.2396
40889OCT     C281778  21.178  16.045  19.456  0.1821  0.0852  0.0323
40890OCT     C181779   6.999   1.766   1.573  0.3702  0.1398  0.0625
40890OCT     C281780   7.196   1.336   1.547  0.1643 -0.0392 -0.2784
40891OCT     C181781  20.744   9.202   3.987  0.1217  0.1249  0.1879
40891OCT     C281782  20.565   8.785   4.139  0.1174  0.0683 -0.2217
40892OCT     C181783  12.703   2.907   3.433  0.4673 -0.5903  0.1237
40892OCT     C281784  12.482   2.452   3.414 -0.1770  0.2240  0.1214
40893OCT     C181785  21.528   1.053  13.804 -0.2975 -0.6364 -0.1743
40893OCT     C281786  21.361   1.513  13.882 -0.1497 -0.1524 -0.0885
40894OCT     C181787   9.820  15.958   3.249  0.0627 -0.1844  0.0292
40894OCT     C281788   9.563  16.101   2.848  0.1138  0.3955  0.0413
40895OCT     C181789  10.099  15.106  15.329 -0.1540  0.1441 -0.1481
40895OCT     C281790   9.804  14.678  15.394 -0.1924  0.2715  0.0362
40896OCT     C181791  19.937  19.069  16.210  0.2160  0.0791  0.2009
40896OCT     C281792  19.987  19.490  16.040  0.1419  0.2075 -0.1839
40897OCT     C181793  21.387   6.289   4.302 -0.0034  0.0506 -0.1940
40897OCT     C281794  21.570   6.056   4.700 -0.1509 -0.0080  0.0376
40898OCT     C181795   8.831  11.684   4.047  0.1009  0.0581 -0.1395
40898OCT     C281796   9.138  12.039   4.070 -0.1491  0.4638  0.1584
40899OCT     C181797   6.027  13.918  19.278  0.0776 -0.2076 -0.2326
40899OCT     C281798   6.268  13.623  19.017  0.0752 -0.0357  0.2568
40900OCT     C181799  12.543  12.043   1.078  0.2020  0.5748 -0.0823
40900OCT     C281800  12.100  11.888   1.118 -0.1225  0.1843  0.0099
40901OCT     C181801  15.128   7.820   4.435 -0.4393 -0.2061 -0.0769
40901OCT     C281802  14.705   7.788   4.644  0.1826 -0.5979  0.2937
40902OCT     C181803  22.780   5.953  12.399  0.1548 -0.2852 -0.2189
40902OCT     C281804  22.385   5.723  12.377 -0.0831 -0.2069 -0.1298
40903OCT     C181805   3.161  20.563   3.944  0.0226 -0.3922 -0.4957
40903OCT     C281806   3.232  20.738   3.527  0.1577 -0.1735  0.2280
40904OCT     C181807   2.724  12.511  13.767 -0.1296 -0.1059 -0.1438
40904OCT     C281808   2.561  12.635  13.373  0.1435 -0.3691  0.2014
40905OCT     C181809   7.122  21.574   5.082  0.1908  0.2019 -0.1198
40905OCT     C281810   7.574  21.737   4.936  0.2849  0.2570 -0.0574
40906OCT     C181811  11.524   5.470   1.622 -0.0003  0.2795 -0.1096
40906OCT     C281812  11.346   5.304   2.055 -0.0725 -0.0688 -0.0548
40907OCT     C181813  17.094  13.540   2.346  0.2987  0.1103 -0.1788
40907OCT     C281814  17.043  13.402   2.816  0.1976  0.1826 -0.0568
40908OCT     C181815   1.851   2.588   1.560  0.1108  0.2058 -0.0339
40908OCT     C281816   2.026   3.019   1.635 -0.3287 -0.2075  0.0455
40909OCT     C181817  19.046  11.644   9.545  0.0585  0.0069 -0.1666
40909OCT     C281818  19.007  12.111   9.566  0.3241 -0.2187  0.1359
40910OCT     C181819   0.172  13.764  12.278  0.0842  0.0186 -0.3923
40910OCT     C281820   0.439  13.796  12.657 -0.0482  0.2724 -0.1967
40911OCT     C181821  18.250  13.634  23.018  0.1306  0.1766 -0.0390
40911OCT     C281822  18.455  13.470  23.419  0.0273  0.0161  0.0372
40912OCT     C181823  22.962   8.020  12.794 -0.0651 -0.1687  0.2048
40912OCT     C281824  22.578   8.122  12.500 -0.1278 -0.5392  0.2508
40913OCT     C181825  19.440   5.594  11.056  0.0197  0.1361 -0.0256
40913OCT     C281826  19.934   5.692  11.129 -0.1080  0.4831 -0.1764
40914OCT     C181827  13.934  11.495   0.695  0.0990  0.0109  0.3237
40914OCT     C281828  14.051  11.777   1.046  0.1873 -0.0054 -0.0555
40915OCT     C181829   7.049  18.633  19.566 -0.3019 -0.1079 -0.0231
40915OCT     C281830   6.728  18.680  19.928 -0.1131  0.2270  0.1687
40916OCT     C181831  20.671  17.499  13.432 -0.1177 -0.0685 -0.1270
40916OCT     C281832  20.965  17.517  13.065  0.0059  0.1771  0.2919
40917OCT     C181833  18.504  11.679   3.583  0.0569 -0.0600  0.0346
40917OCT     C281834  18.490  11.308   3.295 -0.0229  0.1982 -0.1453
40918OCT     C181835   9.687  18.299   6.323 -0.0322  0.1768 -0.3946
40918OCT     C281836   9.756  18.021   6.705  0.0131 -0.1623 -0.1094
40919OCT     C181837  14.673   0.308   5.915  0.0568 -0.8206  0.1508
40919OCT     C281838  14.516   0.641   5.626 -0.0992 -0.2477  0.2235
40920OCT     C181839  11.918  11.131  10.402 -0.3981 -0.4491  0.1707
40920OCT     C281840  12.188  10.816  10.567 -0.0047 -0.1219 -0.4130
40921OCT     C181841  12.851   9.234   9.041 -0.2061 -0.1877  0.0379
40921OCT     C281842  13.271   9.481   9.104 -0.0577 -0.0843 -0.3065
40922OCT     C181843  11.341  21.536  23.105  0.1507  0.1339 -0.0382
40922OCT     C281844  11.223  21.139  22.872 -0.3794  0.3848 -0.4359
40923OCT     C181845  22.884   2.829  14.760  0.3529 -0.0772 -0.0734
40923OCT     C281846  22.595   3.206  14.789  0.1535  0.1322  0.0312
40924OCT     C181847  15.627  11.383  17.299 -0.0175 -0.0449  0.0600
40924OCT     C281848  15.934  11.711  17.288 -0.1287  0.2863  0.0080
40925OCT     C181849   3.868  13.705  23.624  0.2046  0.0042 -0.0214
40925OCT     C281850   3.714  13.731  23.172 -0.0130 -0.0689 -0.2484
40926OCT     C181851   4.759   7.963  18.089 -0.0157 -0.0189 -0.1968
40926OCT     C281852   4.927   7.510  18.101 -0.0820 -0.1759 -0.1037
40927OCT     C181853   9.977  16.594   5.600  0.0827  0.2193  0.0912
40927OCT     C281854  10.371  16.438   5.697 -0.1525  0.0999 -0.0651
40928OCT     C181855  17.710   3.797  13.775 -0.0488 -0.1797 -0.0822
40928OCT     C281856  17.309   3.793  13.463 -0.1384 -0.0298  0.0367
40929OCT     C181857  23.279  15.130  18.531  0.0307  0.1558  0.1192
40929OCT     C281858  23.438  15.551  18.398  0.2103 -0.1481  0.0812
40930OCT     C181859   7.698   3.456  15.922  0.1954  0.1421 -0.0678
40930OCT     C281860   7.357   3.669  16.219 -0.0753 -0.1684 -0.0188
40931OCT     C181861  20.789  11.947   8.438 -0.0362 -0.1719  0.3500
40931OCT     C281862  20.593  11.796   8.039 -0.1548  0.2744  0.2506
40932OCT     C181863  23.664   6.979  14.692  0.0108 -0.1147  0.1417
40932OCT     C281864  23.526   7.459  14.660  0.0739 -0.0132  0.1366
40933OCT     C181865   2.298   1.668  17.729  0.3997  0.1086  0.2357
40933OCT     C281866   2.066   1.296  17.504 -0.1435  0.0282 -0.3002
40934OCT     C181867   1.939  19.040  17.884 -0.1160 -0.2530  0.3143
40934OCT     C281868   1.856  18.647  17.640 -0.0557 -0.1321 -0.2145
40935OCT     C181869  17.720   2.923  12.689  0.1334  0.3796 -0.0742
40935OCT     C281870  17.300   2.746  12.505  0.3041 -0.5506 -0.0956
40936OCT     C181871  23.345   8.936   7.253 -0.0738 -0.0389 -0.5075
40936OCT     C281872  23.030   8.695   7.559  0.1164  0.2558  0.1810
40937OCT     C181873  14.363  14.127   0.246  0.3299 -0.2208  0.0668
40937OCT     C281874  14.197  13.694   0.092  0.2630 -0.0056  0.0601
40938OCT     C181875  16.620   5.470   9.235 -0.5227  0.2364  0.0226
40938OCT     C281876  16.650   5.095   9.503  0.1414  0.0447 -0.0136
40939OCT     C181877  22.066  14.087   0.837  0.2815  0.3595 -0.1762
40939OCT     C281878  22.302  14.239   0.476 -0.1307 -0.1657  0.1753
40940OCT     C181879   8.449   0.991  16.979  0.2541 -0.1296 -0.0806
40940OCT     C281880   8.099   0.739  17.202 -0.1724  0.2404 -0.1817
40941OCT     C181881  15.150   1.562  20.043 -0.2169 -0.4283  0.3215
40941OCT     C281882  14.696   1.644  20.207  0.2458  0.1743  0.3263
40942OCT     C181883   5.836   7.500   9.877 -0.1492  0.0974 -0.1562
40942OCT     C281884   6.205   7.417   9.629  0.3209  0.0423  0.0729
40943OCT     C181885  21.680  11.095  15.669  0.2099 -0.0807  0.1719
40943OCT     C281886  21.222  11.194  15.746  0.1376  0.1345 -0.0664
40944OCT     C181887  20.166   3.152   0.140 -0.0188 -0.0848  0.5012
40944OCT     C281888  19.917   2.787  23.723 -0.0279 -0.2389 -0.2733
40945OCT     C181889   1.993  10.138  23.552 -0.2650 -0.1698 -0.2329
40945OCT     C281890   1.746   9.949   0.195 -0.1211 -0.0054 -0.1287
40946OCT     C181891   2.425  10.004   5.265  0.1006 -0.1823 -0.1955
40946OCT     C281892   2.438  10.448   5.409 -0.0314  0.1987 -0.1701
40947OCT     C181893   9.024  14.780  19.515 -0.2434 -0.1967  0.3587
40947OCT     C281894   8.852  15.217  19.498 -0.0329  0.0269 -0.1992
40948OCT     C181895  16.982  23.228  23.184  0.1830 -0.0450  0.3836
40948OCT     C281896  17.086  23.305  23.644  0.1516  0.1098 -0.1090
40949OCT     C181897   5.368   3.450  12.380  0.0354  0.0461 -0.0985
40949OCT     C281898   5.568   3.786  12.135  0.0691  0.0458 -0.1312
40950OCT     C181899   6.517   3.589  22.321 -0.1081 -0.3540  0.0398
40950OCT     C281900   6.051   3.704  22.255 -0.0379 -0.0376 -0.0914
40951OCT     C181901  14.418   4.333   9.171  0.0738 -0.0439 -0.1631
40951OCT     C281902  14.429   3.892   9.124 -0.3170  0.0484 -0.1453
40952OCT     C181903  17.806   1.688   4.001  0.0730 -0.0376 -0.3669
40952OCT     C281904  17.811   2.013   4.347 -0.1626 -0.0362  0.0960
40953OCT     C181905  20.011  20.233  16.745 -0.1559 -0.2785  0.2920
40953OCT     C281906  20.144  20.529  16.438  0.2263 -0.2621  0.1971
40954OCT     C181907  16.430  16.547   1.585 -0.0903 -0.1958  0.2179
40954OCT     C281908  16.500  16.240   1.203 -0.1877  0.4172  0.2209
40955OCT     C181909  23.467   0.115  22.368 -0.1303  0.3546 -0.1028
40955OCT     C281910  23.502   0.450  21.990  0.0304  0.0173  0.0113
40956OCT     C181911  20.274  10.264  15.179 -0.3532  0.2970 -0.2241
40956OCT     C281912  20.160   9.792  15.304  0.0047 -0.0065 -0.3068
40957OCT     C181913   9.812   6.914  22.766  0.2776 -0.4013  0.2177
40957OCT     C281914   9.568   7.300  22.823 -0.2971  0.4368 -0.2761
40958OCT     C181915  15.555   8.580   9.295 -0.0812  0.2568 -0.0455
40958OCT     C281916  15.668   8.292   8.886  0.2400 -0.0116 -0.0052
40959OCT     C181917  16.123  13.820   9.459  0.0677  0.2636  0.2227
40959OCT     C281918  16.501  13.554   9.375 -0.4999  0.0959 -0.1006
40960OCT     C181919  22.845  23.593  22.751  0.0072 -0.1369 -0.3265
40960OCT     C281920  23.077  23.199  22.585  0.1284  0.3242 -0.0244
40961OCT     C181921  12.451  14.895  23.112  0.5405  0.0494 -0.0903
40961OCT     C281922  12.619  14.764  22.680 -0.1195 -0.0161 -0.0964
40962OCT     C181923   8.642  15.593   9.078  0.1710 -0.2409  0.3732
40962OCT     C281924   8.985  15.391   8.973  0.0642  0.1886 -0.3791
40963OCT     C181925  13.250   3.802   1.001 -0.1518 -0.3894 -0.4829
40963OCT     C281926  12.972   3.755   0.617  0.2362  0.0570 -0.0637
40964OCT     C181927  16.817  17.671   2.464 -0.3202  0.2440 -0.1511
40964OCT     C281928  16.585  18.044   2.572 -0.1368  0.1763  0.1645
40965OCT     C181929   0.814   7.061  16.131  0.0402  0.4512 -0.2988
40965OCT     C281930   0.737   7.430  15.855  0.0675  0.1162 -0.0483
40966OCT     C181931  20.444   2.455  14.978  0.2880 -0.0590 -0.0224
40966OCT     C281932  20.516   2.016  15.029 -0.0078 -0.0452  0.1125
40967OCT     C181933  16.691  23.518  19.860 -0.1846  0.3651 -0.1068
40967OCT     C281934  17.029  23.455  20.210  0.1212  0.0404 -0.6416
40968OCT     C181935  16.933  10.791   4.515 -0.2084  0.0786  0.5014
40968OCT     C281936  16.836  11.162   4.766  0.1175 -0.0400  0.1906
40969OCT     C181937  21.757  22.462   1.684 -0.1665  0.2287 -0.3330
40969OCT     C281938  22.144  22.760   1.633  0.0353 -0.0463  0.0348
40970OCT     C181939  16.616   5.064   8.462  0.0345 -0.0429  0.0399
40970OCT     C281940  16.751   5.224   8.033  0.1249 -0.0243 -0.0945
40971OCT     C181941   3.291   2.915   1.466  0.0736 -0.3127 -0.1551
40971OCT     C281942   3.068   3.204   1.246  0.0196  0.0005 -0.0996
40972OCT     C181943  21.536   5.706  11.561 -0.2223 -0.2239  0.0161
40972OCT     C281944  21.883   5.587  11.276  0.1970  0.3674 -0.1058
40973OCT     C181945   1.684  16.391   6.887 -0.1237  0.2360  0.1881
40973OCT     C281946   1.245  16.233   6.882 -0.0650 -0.0746  0.0847
40974OCT     C181947  11.379  14.772   4.683  0.1987  0.1596  0.2235
40974OCT     C281948  11.234  14.251   4.711  0.2053 -0.2327  0.0676
40975OCT     C181949   9.091  15.542   4.488  0.1102 -0.0426  0.0708
40975OCT     C281950   9.474  15.257   4.413 -0.0905  0.0696  0.2824
40976OCT     C181951  11.533   2.815  20.733  0.1619 -0.0064 -0.0870
40976OCT     C281952  11.370   3.273  20.772 -0.1327 -0.1531 -0.2524
40977OCT     C181953  23.050  13.856  11.779  0.4205 -0.2322  0.3565
40977OCT     C281954  23.038  14.257  11.430 -0.2606  0.0091 -0.3091
40978OCT     C181955  15.358  23.453  12.111 -0.3807  0.2068 -0.0624
40978OCT     C281956  15.790  23.520  12.377  0.0176  0.1012 -0.0699
40979OCT     C181957  14.647  10.242   3.525  0.2181 -0.2816 -0.1713
40979OCT     C281958  14.824  10.401   3.163 -0.1746 -0.1780 -0.0215
40980OCT     C181959  22.163  21.955  10.017 -0.1274  0.2731  0.0747
40980OCT     C281960  21.986  22.109  10.449  0.3237 -0.0723  0.1788
40981OCT     C181961   0.609   6.619   4.074  0.0321  0.2499 -0.1157
40981OCT     C281962   0.262   6.652   3.780 -0.2605 -0.1965  0.0758
40982OCT     C181963  19.511  16.447  12.308 -0.3502 -0.2732  0.3843
40982OCT     C281964  19.771  16.027  12.292  0.0430 -0.0242 -0.1188
40983OCT     C181965   9.346  15.451  11.309  0.1020 -0.2180  0.0836
40983OCT     C281966   9.232  15.771  11.014 -0.0327  0.0909 -0.1728
40984OCT     C181967  21.189  22.190  14.646  0.0332 -0.2031 -0.0614
40984OCT     C281968  21.307  21.790  14.527 -0.2241  0.0013 -0.1966
40985OCT     C181969  17.666  21.679  14.608  0.2215  0.2521 -0.0675
40985OCT     C281970  17.858  22.100  14.731 -0.0200  0.3877 -0.4087
40986OCT     C181971  21.811  15.119   7.595  0.1013 -0.1959 -0.3254
40986OCT     C281972  21.642  15.131   7.129  0.0879  0.1636  0.1000
40987OCT     C181973  16.799  11.428   5.313  0.1537 -0.0842  0.2778
40987OCT     C281974  17.186  11.523   5.096  0.0858  0.0421  0.3794
40988OCT     C181975  15.336   2.407   6.641 -0.2675 -0.3860 -0.1731
40988OCT     C281976  15.502   2.365   6.197  0.4427 -0.0690  0.2428
40989OCT     C181977   6.696  15.877  20.048  0.1961 -0.0663 -0.4185
40989OCT     C281978   7.138  16.000  19.913  0.0101 -0.3084  0.0231
40990OCT     C181979  21.647   6.248  13.940 -0.1633  0.3730  0.1761
40990OCT     C281980  21.489   6.209  14.389  0.4414 -0.1094  0.1480
40991OCT     C181981   7.304   2.410  13.195  0.2541  0.2514 -0.0253
40991OCT     C281982   6.815   2.335  13.150 -0.1786  0.1056 -0.0172
40992OCT     C181983  20.362  21.277  21.275 -0.4046  0.0288  0.5916
40992OCT     C281984  20.659  21.054  21.601  0.0622  0.3114 -0.5723
40993OCT     C181985  17.453   7.666  19.939  0.1710  0.0965  0.5691
40993OCT     C281986  17.628   7.716  19.490 -0.0171 -0.2561 -0.0887
40994OCT     C181987  22.012  11.551  10.001  0.2914  0.3121 -0.2756
40994OCT     C281988  22.315  11.554   9.617 -0.0880 -0.0461  0.2098
40995OCT     C181989   6.399  18.858  21.588 -0.2846  0.2227 -0.2834
40995OCT     C281990   6.072  18.965  21.295  0.0724  0.0728 -0.1770
40996OCT     C181991  22.875  15.661  12.673 -0.0529  0.2810  0.1224
40996OCT     C281992  22.494  15.447  12.628  0.1661 -0.2074  0.1049
40997OCT     C181993  11.672  16.665   2.327  0.2911  0.1723 -0.1084
40997OCT     C281994  11.975  16.620   1.942  0.0030 -0.0442  0.0953
40998OCT     C181995   5.863   0.955  19.986  0.1299 -0.2468  0.3760
40998OCT     C281996   5.385   0.928  20.114 -0.1381  0.2862 -0.0539
40999OCT     C181997  16.884  13.379  19.524 -0.3204 -0.1515 -0.2713
40999OCT     C281998  16.874  13.212  19.109 -0.1138 -0.1410  0.3912
41000OCT     C181999  20.253   2.558   9.603 -0.0971 -0.1675  0.3519
41000OCT     C282000  20.184   2.524  10.092  0.0982 -0.2978 -0.1855
41001OCT     C182001  11.536   5.683  16.139 -0.2891 -0.1433 -0.3672
41001OCT     C282002  11.507   5.462  16.546 -0.0224 -0.1955  0.0143
41002OCT     C182003  11.518   4.385  21.134 -0.0073  0.4082 -0.1006
41002OCT     C282004  11.751   4.609  20.745 -0.1482 -0.0126 -0.1083
41003OCT     C182005   8.303   1.222  11.181  0.1656 -0.2145 -0.0998
41003OCT     C282006   7.911   1.237  11.431 -0.0930 -0.0365  0.0925
41004OCT     C182007   8.869   6.176   5.098 -0.3389 -0.0444 -0.1638
41004OCT     C282008   8.773   6.076   5.520 -0.2113  0.2678 -0.1357
41005OCT     C182009  15.480  15.254   2.962  0.0087  0.0902  0.2630
41005OCT     C282010  15.761  15.031   3.329  0.0454 -0.2805 -0.0531
41006OCT     C182011   1.639  15.989  22.462 -0.3765  0.2326 -0.1928
41006OCT     C282012   1.699  15.827  22.046 -0.0797 -0.0561 -0.3012
41007OCT     C182013   0.605   5.806  18.066  0.1526 -0.0499  0.4574
41007OCT     C282014   0.806   5.674  17.684  0.1751  0.1001 -0.0089
41008OCT     C182015  10.532   0.728  23.504 -0.0135 -0.1429 -0.3128
41008OCT     C282016  10.310   0.848  23.107  0.2284 -0.0364  0.0285
41009OCT     C182017  16.807  12.097   0.317 -0.3247  0.1624  0.0257
41009OCT     C282018  17.104  11.927  23.722 -0.2828 -0.0936 -0.0026
41010OCT     C182019  18.776   2.127  11.773 -0.2819  0.1186 -0.2529
41010OCT     C282020  18.799   2.314  11.380 -0.1199  0.1116 -0.2002
41011OCT     C182021   7.880  20.594  15.029 -0.2891 -0.0137  0.1302
41011OCT     C282022   7.405  20.685  14.934  0.1019 -0.2414 -0.3305
41012OCT     C182023   8.027  22.829  11.291 -0.1532 -0.3506  0.2471
41012OCT     C282024   7.716  23.020  11.599 -0.1867 -0.2670  0.1476
41013OCT     C182025   3.941   0.075  15.440 -0.1702 -0.1522 -0.0686
41013OCT     C282026   3.757   0.395  15.733 -0.1157 -0.3536 -0.2817
41014OCT     C182027   7.485   6.257  12.189  0.0000 -0.2948  0.1384
41014OCT     C282028   7.126   5.941  12.056 -0.1806 -0.4921 -0.1957
41015OCT     C182029   6.687   0.477   3.217 -0.2273  0.0072 -0.0760
41015OCT     C282030   6.935   0.034   3.336 -0.0333  0.1042  0.0280
41016OCT     C182031  11.777   9.828   3.013  0.0265  0.0027  0.7024
41016OCT     C282032  11.478   9.613   2.738  0.1377 -0.4529  0.1367
41017OCT     C182033  14.276   4.225   7.014  0.2337  0.1615  0.2735
41017OCT     C282034  14.627   3.867   7.156  0.2320 -0.2490  0.2085
41018OCT     C182035   7.447   5.126  16.627 -0.1642  0.0840  0.3538
41018OCT     C282036   7.854   5.058  16.915 -0.0087 -0.3990  0.0965
41019OCT     C182037  13.472   6.955  14.862 -0.3048 -0.0338 -0.0760
41019OCT     C282038  13.069   7.125  15.072  0.2175 -0.3487  0.3127
41020OCT     C182039  11.923   8.108   4.708 -0.2459 -0.1205  0.1601
41020OCT     C282040  11.691   7.732   4.662  0.0682  0.2644 -0.0807
41021OCT     C182041  18.320   0.994   9.784  0.0980 -0.2637 -0.0555
41021OCT     C282042  18.529   1.179   9.436 -0.0379  0.0216 -0.0106
41022OCT     C182043   8.721   7.517  14.792  0.0485  0.0772  0.1253
41022OCT     C282044   9.073   7.716  14.971  0.2471  0.2054 -0.4460
41023OCT     C182045   6.153  17.773  19.863 -0.0072  0.1886  0.0274
41023OCT     C282046   5.945  17.736  20.250  0.0103 -0.2936  0.0261
41024OCT     C182047  18.064   7.252   6.260 -0.0683 -0.2739  0.1366
41024OCT     C282048  17.767   7.280   5.948  0.0288 -0.0852  0.0402
41025OCT     C182049   4.934  11.403  16.425 -0.0998 -0.0104  0.1124
41025OCT     C282050   4.656  11.750  16.281  0.0437  0.1819  0.1962
41026OCT     C182051   8.792  18.346  20.655 -0.0465  0.3416  0.1277
41026OCT     C282052   8.359  18.514  20.765  0.0356  0.2741 -0.1681
41027OCT     C182053   0.951  13.279   6.330 -0.0365  0.2037  0.0807
41027OCT     C282054   1.102  13.637   6.611 -0.0426  0.2931 -0.4164
41028OCT     C182055  14.929  14.441  14.756 -0.0874 -0.0043 -0.1880
41028OCT     C282056  15.350  14.381  14.502 -0.0861 -0.0581  0.3965
41029OCT     C182057   9.227   8.566   6.319  0.0806  0.1005 -0.3249
41029OCT     C282058   9.494   8.375   6.660  0.0694 -0.1804  0.2464
41030OCT     C182059  14.777   5.431  21.712 -0.2899  0.3136  0.0149
41030OCT     C282060  14.373   5.259  21.887  0.0624  0.0501 -0.1099
41031OCT     C182061   6.233  21.920   0.635 -0.4065  0.5089 -0.0571
41031OCT     C282062   6.468  22.272   0.747 -0.4963  0.2265 -0.1936
41032OCT     C182063  15.248   1.702   3.551 -0.0947 -0.1043  0.1355
41032OCT     C282064  15.193   1.249   3.627 -0.0821  0.1449  0.0351
41033OCT     C182065  18.839   3.609   5.561 -0.1369 -0.5226  0.2013
41033OCT     C282066  18.612   3.693   5.930 -0.0473  0.0086 -0.0602
41034OCT     C182067  19.139  15.309  10.551  0.2222 -0.7030 -0.1945
41034OCT     C282068  19.004  15.342  10.991 -0.2114 -0.1568  0.1423
41035OCT     C182069   9.468  18.856   5.517 -0.2784  0.5090 -0.0623
41035OCT     C282070   9.913  18.922   5.329  0.3243 -0.0010  0.1177
41036OCT     C182071  11.974  23.199  19.581 -0.0648 -0.1664 -0.0482
41036OCT     C282072  12.391  23.014  19.726  0.0043  0.2996  0.0342
41037OCT     C182073   4.833  11.079  21.770  0.3758 -0.1099  0.2527
41037OCT     C282074   4.751  11.223  22.257 -0.1619 -0.2235 -0.2061
41038OCT     C182075  17.661  12.459  11.997 -0.2644 -0.3198 -0.0387
41038OCT     C282076  17.834  12.090  11.855 -0.0831  0.2624 -0.1156
41039OCT     C182077   6.897   0.107  12.741  0.1234  0.0525 -0.1603
41039OCT     C282078   6.708  23.513  13.008 -0.3271  0.0708 -0.1476
41040OCT     C182079  21.134   9.737  13.346 -0.1536  0.2364  0.1628
41040OCT     C282080  20.730   9.505  13.452  0.3569 -0.2372 -0.0319
41041OCT     C182081  21.739  12.322   6.577  0.2395  0.2377 -0.4344
41041OCT     C282082  21.904  12.091   6.160 -0.0968 -0.1357 -0.2165
41042OCT     C182083  12.893  16.484  11.302 -0.1602 -0.0276  0.2443
41042OCT     C282084  12.504  16.277  11.325  0.0689  0.2680 -0.1919
41043OCT     C182085   7.723  14.259  14.318 -0.0412  0.1788  0.2182
41043OCT     C282086   7.704  14.556  14.651 -0.0798 -0.0311 -0.3861
41044OCT     C182087   8.317  16.644  20.619 -0.2768  0.0680  0.2163
41044OCT     C282088   8.278  17.070  20.401  0.2581 -0.4454 -0.3568
41045OCT     C182089  19.117  17.518  16.595 -0.0041  0.0015 -0.0509
41045OCT     C282090  19.287  17.890  16.524  0.0686 -0.2667  0.2694
41046OCT     C182091  21.678  14.702  21.419  0.0808 -0.0914 -0.3217
41046OCT     C282092  22.021  14.787  21.670 -0.1829  0.3279 -0.1492
41047OCT     C182093  17.068   0.824   7.232  0.0782  0.0912  0.0563
41047OCT     C282094  16.862   1.126   7.492 -0.1601 -0.1630 -0.4615
41048OCT     C182095  13.738  18.782   2.097  0.2419  0.2741  0.2590
41048OCT     C282096  13.583  19.210   2.205 -0.3965  0.0020  0.1508
41049OCT     C182097  15.705  13.772  21.933 -0.4261  0.2600 -0.2995
41049OCT     C282098  15.882  13.669  21.481  0.1446  0.3656 -0.2101
41050OCT     C182099  11.312   3.826   1.024  0.0022  0.1581 -0.1460
41050OCT     C282100  11.441   3.586   1.406 -0.2076  0.1742  0.2147
41051OCT     C182101   4.792  12.758  20.664  0.2153  0.3881  0.1187
41051OCT     C282102   4.807  12.854  21.125  0.4000  0.0332  0.0698
41052OCT     C182103   9.088  21.392  14.881  0.0907 -0.0550 -0.0084
41052OCT     C282104   8.668  21.314  14.648  0.2786  0.0065  0.0054
41053OCT     C182105  10.137  10.325   7.431 -0.1672  0.0405  0.2876
41053OCT     C282106   9.894  10.037   7.152  0.0080 -0.2272 -0.0609
41054OCT     C182107  15.644   9.438  15.239 -0.0325 -0.0584  0.0733
41054OCT     C282108  15.511   9.190  14.906 -0.0303  0.1917  0.1331
41055OCT     C182109   5.869   4.319   6.763  0.3489  0.1722  0.1306
41055OCT     C282110   5.637   4.466   7.154 -0.1714 -0.2021  0.4909
41056OCT     C182111   7.254  20.843   6.438 -0.0146 -0.0367 -0.5286
41056OCT     C282112   6.897  21.211   6.363 -0.1217 -0.3060  0.3894
41057OCT     C182113   2.343   2.791  21.083  0.2487 -0.0073 -0.0577
41057OCT     C282114   2.413   3.228  21.068 -0.1589  0.0929 -0.1507
41058OCT     C182115  11.217   1.101  15.855  0.2024  0.1736  0.7431
41058OCT     C282116  11.405   0.734  16.073 -0.3812  0.1214 -0.0307
41059OCT     C182117  18.624  12.032  12.978 -0.1176 -0.0398  0.0232
41059OCT     C282118  18.617  12.482  13.229 -0.5752  0.3086  0.0560
41060OCT     C182119   4.905   7.334   5.835 -0.0935  0.1368 -0.2036
41060OCT     C282120   4.846   7.561   6.253  0.2554  0.1386  0.1687
41061OCT     C182121  17.646  23.737  14.365 -0.0145 -0.0090 -0.2625
41061OCT     C282122  17.805   0.303  14.111  0.0391 -0.3284 -0.2876
41062OCT     C182123   4.656  14.057  18.469 -0.0371 -0.0331  0.1570
41062OCT     C282124   5.089  14.066  18.704 -0.3231 -0.0882  0.1817
41063OCT     C182125  21.631  18.160  11.444  0.1119 -0.1690 -0.0813
41063OCT     C282126  21.839  17.768  11.419 -0.0177  0.0823 -0.0605
41064OCT     C182127   3.988   1.202   7.884 -0.1574  0.0569  0.3739
41064OCT     C282128   4.088   1.657   7.961 -0.1402 -0.0426  0.1694
41065OCT     C182129   5.999  15.902   1.551 -0.2587 -0.1641  0.2852
41065OCT     C282130   6.165  16.222   1.230  0.4140 -0.1111 -0.3425
41066OCT     C182131   5.249   2.355  17.916 -0.1952  0.2394  0.0372
41066OCT     C282132   5.235   2.507  17.498  0.5920 -0.2598  0.3948
41067OCT     C182133   2.543  10.686   9.010 -0.5663  0.2174 -0.1210
41067OCT     C282134   2.170  10.942   9.168 -0.0009 -0.1360  0.2448
41068OCT     C182135  18.089   8.214   6.496 -0.0403  0.1717 -0.1646
41068OCT     C282136  18.003   8.032   6.923  0.0178 -0.1847 -0.3450
41069OCT     C182137   5.992  21.042   9.340  0.0833 -0.1735  0.1989
41069OCT     C282138   6.293  20.807   9.633 -0.0968 -0.0544 -0.0366
41070OCT     C182139  20.007  19.232  13.931  0.2391  0.0737  0.0103
41070OCT     C282140  20.483  19.243  13.789 -0.0551  0.0127  0.3791
41071OCT     C182141  17.187   7.995  20.850  0.4653  0.0967 -0.4140
41071OCT     C282142  17.353   7.571  21.023 -0.0675  0.4800 -0.1888
41072OCT     C182143   6.426   0.476  20.470  0.0777 -0.0604  0.3174
41072OCT     C282144   6.137   0.091  20.421  0.0404 -0.1523 -0.3964
41073OCT     C182145  22.431   1.164  12.517 -0.0001  0.0212 -0.0163
41073OCT     C282146  21.970   1.179  12.708  0.0653  0.2911  0.0893
41074OCT     C182147  10.221  12.824  16.556 -0.0054  0.2923  0.1644
41074OCT     C282148  10.045  12.428  16.420 -0.1859 -0.1085 -0.0418
41075OCT     C182149   5.679   8.729   5.922  0.1479 -0.1876  0.2466
41075OCT     C282150   5.416   8.351   6.093 -0.2677 -0.1030 -0.0061
41076OCT     C182151   3.979   9.267  20.018  0.0270 -0.0647  0.1789
41076OCT     C282152   4.418   9.155  20.011  0.0778  0.2382  0.1273
41077OCT     C182153  17.143  10.777  13.615 -0.1700 -0.0952  0.1117
41077OCT     C282154  17.175  11.182  13.778  0.1100 -0.3486 -0.0134
41078OCT     C182155  17.965  11.800  22.590  0.0959 -0.0389 -0.0802
41078OCT     C282156  17.496  11.674  22.685  0.1276 -0.0629  0.4042
41079OCT     C182157   6.791  18.409  19.161  0.0592 -0.0725  0.2694
41079OCT     C282158   6.543  18.529  19.462  0.1774  0.1519 -0.0044
41080OCT     C182159  10.675  16.113   4.097  0.1236  0.3032 -0.2083
41080OCT     C282160  10.377  16.419   4.173 -0.1124 -0.1423 -0.3139
41081OCT     C182161  17.673  16.982  21.371  0.0899 -0.0175 -0.1503
41081OCT     C282162  17.745  16.584  21.554 -0.0585  0.0025  0.0243
41082OCT     C182163   6.449  13.578  12.041 -0.3298  0.1725  0.0323
41082OCT     C282164   6.862  13.601  12.274 -0.1793  0.0412 -0.3306
41083OCT     C182165   1.546  16.971  22.087 -0.1234 -0.0178  0.1712
41083OCT     C282166   1.716  17.308  21.836 -0.2762 -0.4124 -0.1282
41084OCT     C182167   9.873  14.353  14.664 -0.1183 -0.0754  0.1219
41084OCT     C282168   9.865  13.957  14.939 -0.1961  0.0772 -0.0029
41085OCT     C182169  15.224   9.696   1.001  0.0505 -0.1218  0.3315
41085OCT     C282170  15.539   9.508   1.238  0.3066  0.1445  0.2004
41086OCT     C182171  10.911  15.330  17.083 -0.0928 -0.0001 -0.0549
41086OCT     C282172  11.102  14.886  17.053  0.2320  0.2333 -0.3332
41087OCT     C182173   6.731   2.605  22.164 -0.3143  0.2300  0.0646
41087OCT     C282174   7.114   2.834  22.030  0.1567 -0.3175  0.2932
41088OCT     C182175   6.380   2.616  18.042 -0.1197  0.0070 -0.0063
41088OCT     C282176   6.480   2.577  17.590  0.1535  0.0333 -0.2259
41089OCT     C182177   0.822  15.262  15.317 -0.0695 -0.0177  0.2287
41089OCT     C282178   0.780  15.532  15.749 -0.1582  0.4183  0.2805
41090OCT     C182179   7.292   4.810  10.050 -0.0283 -0.0538  0.0461
41090OCT     C282180   7.705   5.081  10.096  0.0782 -0.0894 -0.1727
41091OCT     C182181  15.188  18.414   3.448  0.1290  0.0098  0.3340
41091OCT     C282182  15.363  18.153   3.714 -0.1825  0.1076 -0.2433
41092OCT     C182183   9.438  22.533  21.761  0.3126  0.0270  0.0845
41092OCT     C282184   9.532  22.956  21.968 -0.0211  0.3165  0.2964
41093OCT     C182185   2.153  22.419  17.044  0.1373  0.1488 -0.2863
41093OCT     C282186   2.024  21.951  17.055  0.3769 -0.1445  0.0717
41094OCT     C182187   5.416   6.409   6.499 -0.0916  0.0879 -0.1549
41094OCT     C282188   5.616   5.970   6.589 -0.0222  0.0041 -0.0151
41095OCT     C182189  20.084  16.036   6.728  0.2126 -0.0090 -0.0024
41095OCT     C282190  19.775  16.291   6.487  0.2933  0.0571  0.0072
41096OCT     C182191  14.789   8.499   6.825  0.1849 -0.0644  0.1550
41096OCT     C282192  14.412   8.795   6.744  0.1470  0.1371  0.4452
41097OCT     C182193   4.889   1.635   7.881 -0.2386 -0.1130 -0.3102
41097OCT     C282194   4.509   1.668   7.671  0.5487 -0.0315  0.0041
41098OCT     C182195  23.087  12.183  13.370  0.1575 -0.0452 -0.3973
41098OCT     C282196  22.683  12.285  13.339  0.0114 -0.1888  0.0752
41099OCT     C182197  22.450  12.176  22.275 -0.0806  0.1683 -0.0110
41099OCT     C282198  22.224  11.855  22.110 -0.0852 -0.0345  0.0380
41100OCT     C182199  15.349   5.844  13.628 -0.0280  0.1190 -0.4415
41100OCT     C282200  15.335   5.519  13.282 -0.0492 -0.3081 -0.1482
41101OCT     C182201  20.391  22.606   7.002 -0.5827 -0.3174  0.1158
41101OCT     C282202  20.464  23.070   7.066 -0.0164 -0.4890  0.0362
41102OCT     C182203  16.984  20.419  11.799 -0.2232  0.1393  0.0335
41102OCT     C282204  17.168  20.076  12.089  0.2231  0.1266  0.2577
41103OCT     C182205   0.077  18.884   5.192 -0.1110 -0.0019  0.0238
41103OCT     C282206   0.313  19.192   5.398 -0.2238  0.0094 -0.2416
41104OCT     C182207  15.293   6.378   8.020  0.2972 -0.1834  0.1928
41104OCT     C282208  15.212   6.865   8.082  0.2131  0.1698 -0.2113
41105OCT     C182209  11.042   5.708  14.849  0.1131  0.0115 -0.2593
41105OCT     C282210  11.081   5.581  15.316 -0.2055  0.3185  0.1926
41106OCT     C182211  15.830  12.732  15.928  0.4089  0.0537  0.0493
41106OCT     C282212  15.885  13.061  16.188 -0.0022  0.2973  0.0896
41107OCT     C182213   8.270   4.460  17.594  0.1620  0.2431 -0.1421
41107OCT     C282214   8.045   4.707  17.283 -0.0224 -0.0700 -0.0355
41108OCT     C182215  10.171   3.740  21.985  0.2093 -0.1636  0.1105
41108OCT     C282216  10.492   3.682  21.631  0.0309 -0.0228 -0.0949
41109OCT     C182217  14.558   3.131  21.629 -0.0248 -0.0816 -0.0453
41109OCT     C282218  14.137   3.237  21.818  0.1257  0.0860 -0.3051
41110OCT     C182219   4.761  17.061   3.095 -0.2383  0.0499  0.0663
41110OCT     C282220   4.363  16.790   3.099  0.3730 -0.1409 -0.5251
41111OCT     C182221   8.886  20.419   6.914 -0.1391  0.1277 -0.0346
41111OCT     C282222   8.778  20.642   7.295 -0.2210 -0.1308 -0.0393
41112OCT     C182223   4.371  12.355   3.683  0.0190  0.0526  0.2383
41112OCT     C282224   4.805  12.518   3.514 -0.0555 -0.0530 -0.0931
41113OCT     C182225   1.132  16.671   5.061  0.1114 -0.0901 -0.1446
41113OCT     C282226   0.850  16.905   5.321  0.3178 -0.1356 -0.0665
41114OCT     C182227  11.065  20.783  13.641 -0.2280  0.1535 -0.2969
41114OCT     C282228  11.359  20.842  14.056 -0.1965  0.0744 -0.0873
41115OCT     C182229   8.468  17.304   9.923  0.1198 -0.2806  0.7022
41115OCT     C282230   8.635  17.602  10.240  0.1686  0.2221  0.0136
41116OCT     C182231   1.797  11.252   7.399  0.0374  0.0263 -0.3897
41116OCT     C282232   2.018  11.409   7.046 -0.1164  0.2560  0.3028
41117OCT     C182233  23.045  16.949   5.425 -0.0736  0.0781 -0.0601
41117OCT     C282234  22.870  16.582   5.638  0.0823 -0.2636  0.0328
41118OCT     C182235  23.583   5.440   0.285  0.2832  0.0351 -0.2023
41118OCT     C282236  23.255   5.687   0.437  0.3442  0.0928 -0.0512
41119OCT     C182237   0.929   5.202  19.843  0.0867 -0.1360  0.1901
41119OCT     C282238   0.640   5.356  20.142 -0.0218 -0.2826 -0.0628
41120OCT     C182239  10.793   7.548  11.590 -0.1836  0.0930  0.3526
41120OCT     C282240  10.698   7.962  11.619 -0.1474  0.0197 -0.3987
41121OCT     C182241  12.937   8.889  18.495 -0.0279 -0.0273  0.1153
41121OCT     C282242  12.938   9.327  18.513  0.2797 -0.1731 -0.1666
41122OCT     C182243  18.124  14.637  14.514 -0.1489 -0.3727 -0.3468
41122OCT     C282244  17.905  14.286  14.708  0.2320 -0.1315 -0.5065
41123OCT     C182245  20.488   7.882   9.108  0.0322  0.1039  0.3149
41123OCT     C282246  20.165   8.060   9.374 -0.0441 -0.1363 -0.1615
41124OCT     C182247   9.047  21.267  17.912  0.1700  0.3013  0.0771
41124OCT     C282248   9.199  21.639  18.099  0.1935  0.0956  0.3457
41125OCT     C182249  16.700  14.938  16.795 -0.0538  0.0117  0.1176
41125OCT     C282250  16.978  14.971  16.429  0.3243  0.3006 -0.1183
41126OCT     C182251   2.554  14.559   9.950  0.0814  0.0712  0.2055
41126OCT     C282252   2.851  14.194   9.852 -0.0534  0.5670 -0.1540
41127OCT     C182253  13.591   9.885   5.262 -0.2902 -0.4809  0.0136
41127OCT     C282254  13.440   9.429   5.321  0.2708 -0.0125 -0.1374
41128OCT     C182255  11.482   3.287  11.747  0.3097  0.0345  0.3028
41128OCT     C282256  11.692   2.844  11.698  0.1593  0.1759  0.1934
41129OCT     C182257  16.758   4.868  10.372  0.0094 -0.2226 -0.3782
41129OCT     C282258  17.219   4.758  10.449 -0.0916  0.2794 -0.3618
41130OCT     C182259  18.134   2.707   1.858 -0.0896 -0.1632 -0.1213
41130OCT     C282260  17.846   3.009   2.046 -0.0799  0.0736 -0.2478
41131OCT     C182261   9.690   4.133  22.671  0.0059 -0.2595  0.2397
41131OCT     C282262   9.626   3.761  22.354  0.4808 -0.3824  0.0752
41132OCT     C182263   0.375  16.350   5.519 -0.1887 -0.1977 -0.0608
41132OCT     C282264   0.199  15.996   5.302 -0.0365 -0.1589 -0.0796
41133OCT     C182265  11.841   7.583   3.310  0.2222  0.0246 -0.1734
41133OCT     C282266  11.898   7.574   2.838 -0.5133  0.0961 -0.1940
41134OCT     C182267  14.405   1.017   9.547  0.0500 -0.1881 -0.0593
41134OCT     C282268  14.157   1.479   9.414 -0.0012 -0.1103 -0.3104
41135OCT     C182269  12.642   8.714  10.889 -0.0030 -0.2554 -0.2953
41135OCT     C282270  12.244   8.415  10.761 -0.0511  0.2412 -0.0567
41136OCT     C182271   1.901   1.227  13.358 -0.2241  0.1634  0.1667
41136OCT     C282272   2.051   1.620  13.127  0.2385 -0.1859 -0.3224
41137OCT     C182273  20.786  23.464  17.003 -0.0961  0.2307  0.0597
41137OCT     C282274  20.759  23.654  17.432 -0.0110 -0.1710 -0.0236
41138OCT     C182275  17.534  19.794   7.090 -0.2772 -0.2913 -0.1323
41138OCT     C282276  17.350  19.777   6.681 -0.0778  0.0891  0.1090
41139OCT     C182277  12.133  19.149  11.888 -0.0344  0.5436 -0.0261
41139OCT     C282278  11.903  18.722  12.065  0.1283  0.0723 -0.1566
41140OCT     C182279   0.355  21.840   2.940 -0.2904 -0.2310 -0.0397
41140OCT     C282280   0.073  21.527   3.178 -0.0576  0.4958  0.3132
41141OCT     C182281  15.165  21.300  22.878  0.4044 -0.2820 -0.1895
41141OCT     C282282  15.201  20.856  22.879  0.1074  0.2290 -0.3653
41142OCT     C182283   8.780  21.902  22.187 -0.3475  0.1004 -0.2677
41142OCT     C282284   9.015  21.883  22.583 -0.0606  0.0472 -0.0199
41143OCT     C182285  20.859  10.062  11.297  0.2148  0.2450 -0.2922
41143OCT     C282286  21.345   9.944  11.271 -0.2976 -0.0784  0.1600
41144OCT     C182287  20.005  17.742   3.975  0.1086  0.1673 -0.1391
41144OCT     C282288  19.855  18.076   4.222  0.2059  0.0502 -0.1745
41145OCT     C182289  11.103  13.184  21.256  0.0217  0.1162  0.0571
41145OCT     C282290  11.001  13.334  20.868  0.1383 -0.1776 -0.0016
41146OCT     C182291   7.765   2.430   1.355  0.0510 -0.0192  0.0161
41146OCT     C282292   7.258   2.532   1.279  0.1092  0.2475 -0.0428
41147OCT     C182293   1.616   3.264  20.823 -0.2311 -0.3605 -0.0401
41147OCT     C282294   2.025   3.058  20.799 -0.1375  0.2422 -0.3074
41148OCT     C182295  11.719   9.597  19.902 -0.0903 -0.1322  0.2551
41148OCT     C282296  11.873   9.971  20.077  0.0271  0.0683 -0.4552
41149OCT     C182297  23.261  13.272   2.056  0.2029 -0.0604  0.2282
41149OCT     C282298  22.984  13.093   1.719  0.3740  0.0110  0.0342
41150OCT     C182299  18.370   0.996  14.970 -0.0645  0.0748 -0.0994
41150OCT     C282300  18.189   0.987  15.395  0.0013  0.0291  0.0405
41151OCT     C182301   5.645  23.692  20.535  0.2645  0.2864  0.1688
41151OCT     C282302   5.335  23.332  20.633  0.1772  0.1271 -0.3755
41152OCT     C182303  23.182   6.465   8.755  0.2822  0.0060  0.4110
41152OCT     C282304  23.227   6.928   8.898  0.0725  0.1950 -0.1692
41153OCT     C182305   8.908  19.897   7.117 -0.1382  0.1189  0.1237
41153OCT     C282306   9.171  19.991   6.778 -0.0917  0.2388 -0.3718
41154OCT     C182307  16.410   8.016  16.276  0.1234  0.0892  0.0836
41154OCT     C282308  16.427   7.716  16.616 -0.3204 -0.1605 -0.0334
41155OCT     C182309  23.222  14.969   1.341 -0.1713 -0.2098 -0.0454
41155OCT     C282310  23.114  15.039   0.899  0.2285 -0.2135 -0.2749
41156OCT     C182311   0.031   6.197  20.135 -0.4766  0.0062 -0.0530
41156OCT     C282312   0.349   6.038  20.442 -0.0435  0.2351  0.0080
41157OCT     C182313  14.113   5.367   3.876 -0.0826 -0.3060 -0.1002
41157OCT     C282314  13.679   5.549   3.770  0.3146  0.2330  0.0745
41158OCT     C182315  16.789  23.222   1.961  0.0362  0.3815  0.1450
41158OCT     C282316  16.763  22.783   1.946  0.2268 -0.5046  0.3838
41159OCT     C182317  21.452  17.884  17.900  0.1209 -0.0932 -0.1891
41159OCT     C282318  21.728  17.532  17.688 -0.0939 -0.2407  0.1893
41160OCT     C182319   4.023   3.928   1.407 -0.3114  0.2356  0.1119
41160OCT     C282320   3.757   3.678   1.722 -0.1456 -0.2510  0.0486
41161OCT     C182321  22.786   8.536   3.470 -0.0684  0.2634  0.0025
41161OCT     C282322  22.567   8.170   3.231 -0.3359  0.2949 -0.0830
41162OCT     C182323   6.465   2.809   5.059  0.2257  0.2972  0.1457
41162OCT     C282324   6.240   3.034   5.364 -0.3680 -0.0373  0.2405
41163OCT     C182325  22.498   7.300   7.702 -0.0776  0.2198 -0.0090
41163OCT     C282326  22.421   6.872   7.831 -0.0542 -0.0212  0.4711
41164OCT     C182327  15.348  19.433  12.509  0.1696 -0.0086  0.1693
41164OCT     C282328  15.718  19.652  12.720 -0.0698 -0.2274  0.0288
41165OCT     C182329  20.484   3.021   3.599  0.1731 -0.1048 -0.0276
41165OCT     C282330  20.810   2.717   3.701  0.0702  0.3539 -0.1995
41166OCT     C182331  18.822   1.353  10.646  0.0985 -0.0056  0.2683
41166OCT     C282332  18.526   1.004  10.569  0.2009  0.0471 -0.1343
41167OCT     C182333  19.242   5.172  15.516  0.1572  0.1529  0.0343
41167OCT     C282334  18.857   5.229  15.281 -0.1331  0.0754  0.2339
41168OCT     C182335  20.285   7.860   9.866  0.4643 -0.0314  0.0920
41168OCT     C282336  20.430   8.190  10.125  0.0271  0.1390 -0.3414
41169OCT     C182337   5.226  17.074   8.270 -0.1188  0.3697  0.0630
41169OCT     C282338   4.822  16.778   8.382  0.1512  0.2279  0.0685
41170OCT     C182339   0.249  20.587   9.366  0.1889  0.0270 -0.4822
41170OCT     C282340  23.566  20.642   9.227  0.0123  0.0538  0.1242
41171OCT     C182341  12.150   7.742   1.096  0.0823 -0.1763  0.2924
41171OCT     C282342  12.336   7.465   1.472  0.2255 -0.4186  0.3979
41172OCT     C182343   3.467  23.229  21.863 -0.1872  0.2874  0.1187
41172OCT     C282344   3.225  23.562  22.040 -0.0146  0.0300 -0.1691
41173OCT     C182345   0.050   8.221  16.663 -0.0888 -0.1420  0.2554
41173OCT     C282346  23.384   8.129  16.558  0.4658 -0.1301  0.1423
41174OCT     C182347  19.881   1.820  13.102 -0.0090 -0.2793 -0.1402
41174OCT     C282348  20.233   1.700  12.863  0.0803  0.3152 -0.0501
41175OCT     C182349   8.644  21.157  15.673 -0.3701  0.0090  0.2438
41175OCT     C282350   8.732  20.713  15.581 -0.1360 -0.1214  0.0547
41176OCT     C182351  14.346   0.035  21.836 -0.0321  0.2332 -0.1120
41176OCT     C282352  14.384  23.328  21.643 -0.0246 -0.1448 -0.0458
41177OCT     C182353  20.983  10.577   0.144 -0.3539 -0.2280  0.0168
41177OCT     C282354  20.619  10.457   0.425 -0.0700  0.0218  0.0907
41178OCT     C182355   8.754   4.174  11.582  0.1213 -0.1757  0.2501
41178OCT     C282356   8.679   3.696  11.529 -0.2534 -0.1825  0.1049
41179OCT     C182357  16.705  23.518  15.483 -0.3847  0.1621 -0.0321
41179OCT     C282358  17.022  23.181  15.422  0.1514  0.1499  0.2776
41180OCT     C182359   8.448   3.540   0.033 -0.0359  0.2515  0.1236
41180OCT     C282360   8.382   3.209  23.532  0.0105  0.1278  0.2109
41181OCT     C182361  21.653   6.618  21.860  0.0382  0.3598  0.0456
41181OCT     C282362  21.658   6.337  22.248 -0.1594 -0.0151 -0.0552
41182OCT     C182363  17.163   9.200  20.067 -0.0596  0.1231  0.4699
41182OCT     C282364  16.960   9.398  19.644  0.0685 -0.0536 -0.1302
41183OCT     C182365  11.650   1.889   2.239  0.2028  0.1037 -0.0331
41183OCT     C282366  11.392   1.534   2.453 -0.0683 -0.0902  0.1899
41184OCT     C182367  11.735  16.211  21.727  0.1079 -0.0018  0.2423
41184OCT     C282368  11.558  15.793  21.873  0.1566 -0.3127 -0.0607
41185OCT     C182369  18.640   1.221   0.608  0.0554 -0.1037 -0.2534
41185OCT     C282370  18.793   0.820   0.839 -0.0771  0.1329  0.1681
41186OCT     C182371  14.773  22.690  11.756  0.1382  0.0362 -0.1824
41186OCT     C282372  14.451  22.980  11.575 -0.1848 -0.1913 -0.1908
41187OCT     C182373  11.484  17.574   1.756 -0.3511  0.0604  0.0826
41187OCT     C282374  11.285  17.886   2.042 -0.0439  0.1692  0.0796
41188OCT     C182375   3.205   2.147  17.519  0.2164  0.0664  0.0528
41188OCT     C282376   3.625   2.373  17.521  0.3172 -0.1602 -0.0073
41189OCT     C182377  23.590   9.158   3.844 -0.1086 -0.0937  0.1066
41189OCT     C282378  23.267   9.336   3.511  0.1953 -0.2745  0.2587
41190OCT     C182379  22.088  16.809  13.200 -0.0251  0.2850 -0.0251
41190OCT     C282380  22.127  17.088  12.856  0.1862  0.1301  0.1656
41191OCT     C182381  21.814  15.884   4.938  0.1394 -0.0529  0.1669
41191OCT     C282382  21.363  15.973   5.053 -0.0435 -0.1641  0.1733
41192OCT     C182383  13.998   5.205   6.041  0.2264  0.1694 -0.2658
41192OCT     C282384  13.923   5.696   6.129  0.1891  0.2795 -0.2540
41193OCT     C182385   6.641  23.313  22.336  0.0023  0.0099 -0.1108
41193OCT     C282386   6.311  23.661  22.280 -0.2108  0.4200  0.2459
41194OCT     C182387  23.533  13.065  12.841  0.1226  0.0642  0.0848
41194OCT     C282388   0.215  12.909  12.898 -0.3575 -0.1034 -0.0924
41195OCT     C182389  18.213   2.067  22.634  0.0105 -0.0219 -0.0041
41195OCT     C282390  18.226   2.365  22.304  0.1455 -0.1502  0.0995
41196OCT     C182391   3.642  13.250  12.376 -0.0387 -0.1852 -0.0809
41196OCT     C282392   3.534  13.505  12.824  0.1995 -0.0895 -0.2678
41197OCT     C182393   0.152   9.336   3.406  0.0700 -0.1244 -0.1045
41197OCT     C282394   0.520   9.228   3.114  0.2825  0.1217  0.2450
41198OCT     C182395  20.928   0.224   7.403  0.2089  0.1213 -0.4144
41198OCT     C282396  20.593  23.606   7.264 -0.1178 -0.6003 -0.0743
41199OCT     C182397  16.743  17.532  21.801  0.2085  0.4188 -0.1210
41199OCT     C282398  17.109  17.316  21.567  0.0930 -0.0619 -0.2166
41200OCT     C182399   4.610   4.181  21.086  0.4027 -0.3476 -0.3850
41200OCT     C282400   4.218   3.870  21.110  0.1244  0.4256  0.2475
41201OCT     C182401  10.658  13.964  13.581  0.1845  0.0794 -0.0726
41201OCT     C282402  10.285  13.878  13.272 -0.0453 -0.1168 -0.1458
41202OCT     C182403  14.509  14.385  18.615 -0.3269 -0.4456  0.4487
41202OCT     C282404  14.808  14.728  18.511 -0.2156 -0.0843  0.0753
41203OCT     C182405   5.296   5.103   7.852  0.0247  0.0401 -0.3967
41203OCT     C282406   4.980   5.179   8.220 -0.0537  0.0337 -0.1677
41204OCT     C182407  10.851  15.989   0.535  0.2126 -0.2293  0.1576
41204OCT     C282408  10.984  15.878   0.160  0.0582  0.0237  0.0106
41205OCT     C182409  16.324   4.909  15.529 -0.2040 -0.3615  0.0383
41205OCT     C282410  15.916   5.034  15.533 -0.0384 -0.0451 -0.1449
41206OCT     C182411   6.401   6.016  11.231  0.0627  0.0864 -0.1204
41206OCT     C282412   6.167   5.701  11.437 -0.0238 -0.1818 -0.4476
41207OCT     C182413  10.681   5.161   8.130 -0.2253 -0.1788  0.4850
41207OCT     C282414  10.945   5.551   8.151  0.1352  0.1994 -0.2517
41208OCT     C182415  19.443   6.366   8.724  0.0460  0.4364 -0.0490
41208OCT     C282416  19.384   6.227   9.176  0.0835 -0.2488  0.0391
41209OCT     C182417  12.802  17.100   2.045 -0.0893  0.1369  0.0917
41209OCT     C282418  12.979  16.755   1.770  0.0755 -0.0444  0.2922
41210OCT     C182419  21.228  14.114   8.619 -0.0168 -0.2356 -0.0654
41210OCT     C282420  21.104  14.485   8.931  0.2710 -0.0512  0.4129
41211OCT     C182421   1.351  22.719  21.628 -0.0981  0.1833 -0.0823
41211OCT     C282422   1.778  22.794  21.436  0.0522 -0.1205 -0.3855
41212OCT     C182423  21.468  13.397  20.668 -0.0586  0.3590  0.0166
41212OCT     C282424  21.383  13.816  20.847 -0.2409  0.0632  0.0145
41213OCT     C182425   5.442  21.673   5.415  0.4874  0.3628  0.0669
41213OCT     C282426   5.705  21.399   5.661 -0.0137  0.0281 -0.0640
41214OCT     C182427  15.702  15.945  10.009  0.0429  0.1730 -0.2472
41214OCT     C282428  15.447  15.949   9.644  0.1409 -0.2340  0.2276
41215OCT     C182429  19.782   7.312   7.238 -0.0953  0.0154  0.1815
41215OCT     C282430  19.736   7.123   6.850  0.1348  0.2836 -0.5525
41216OCT     C182431   4.229   2.015   7.042  0.0175  0.0607  0.1800
41216OCT     C282432   4.647   1.864   7.073 -0.2312  0.1608  0.2643
41217OCT     C182433   8.704  23.005  14.392  0.4249  0.1311  0.0206
41217OCT     C282434   8.359  22.705  14.422 -0.0305  0.1954 -0.1538
41218OCT     C182435  22.499  11.796  11.184  0.0501 -0.2861 -0.1504
41218OCT     C282436  22.411  11.425  10.879  0.2086 -0.1803 -0.0979
41219OCT     C182437  13.234   7.290   7.807  0.0832  0.2618  0.0738
41219OCT     C282438  13.321   6.796   7.718 -0.0379  0.1427  0.3024
41220OCT     C182439  11.941   7.625  21.667  0.0922  0.0072  0.2229
41220OCT     C282440  11.952   7.733  22.137 -0.1171 -0.1059  0.1527
41221OCT     C182441  13.358  12.419   8.956  0.0622  0.1870  0.1575
41221OCT     C282442  13.278  11.964   9.172 -0.3148 -0.3827 -0.1190
41222OCT     C182443   2.652   2.404  21.210 -0.1251  0.1319  0.1986
41222OCT     C282444   2.590   2.130  21.563 -0.1193  0.0354  0.1215
41223OCT     C182445  12.300  16.953   6.602  0.1587  0.2239  0.3229
41223OCT     C282446  12.481  16.657   6.270  0.0967  0.2114 -0.0283
41224OCT     C182447  14.496   4.204   8.561  0.1384  0.3032  0.1128
41224OCT     C282448  14.277   3.789   8.557  0.3072 -0.2401 -0.2989
41225OCT     C182449   9.353  17.209   5.662 -0.0279  0.1626  0.1641
41225OCT     C282450   9.681  17.541   5.757 -0.3332  0.2085 -0.6857
41226OCT     C182451  20.377   0.073  23.398 -0.2151  0.2481  0.1273
41226OCT     C282452  20.776  23.555  23.249  0.1739  0.1182  0.1018
41227OCT     C182453   0.808   7.839  19.246  0.1554  0.1061 -0.2227
41227OCT     C282454   1.178   7.590  19.177 -0.0473 -0.0940 -0.1686
41228OCT     C182455  16.708   3.608   0.942  0.2639 -0.0049  0.1502
41228OCT     C282456  16.892   4.005   1.127  0.0357  0.0664 -0.1652
41229OCT     C182457  16.854   8.135   3.834  0.2830  0.1280  0.0998
41229OCT     C282458  17.033   7.745   3.641 -0.1648 -0.1479 -0.3261
41230OCT     C182459   4.536  13.682  12.762 -0.0045 -0.1103 -0.0808
41230OCT     C282460   4.913  13.940  12.894  0.0561  0.4015  0.0599
41231OCT     C182461  10.980   2.779  19.689 -0.0856  0.0458  0.3050
41231OCT     C282462  10.862   3.236  19.517  0.1639 -0.5166  0.0775
41232OCT     C182463  22.335  11.520  10.367 -0.1684  0.1254 -0.5395
41232OCT     C282464  22.293  11.886  10.170  0.1500 -0.0867  0.1364
41233OCT     C182465   3.525  10.594   9.205 -0.0939 -0.0495 -0.2073
41233OCT     C282466   3.058  10.681   9.281  0.2428 -0.3921 -0.0033
41234OCT     C182467  14.649  19.779   6.520  0.3401 -0.0824 -0.1916
41234OCT     C282468  14.613  19.999   6.109 -0.0634 -0.0432 -0.1620
41235OCT     C182469   3.734  23.686   8.845  0.1143 -0.0793  0.2302
41235OCT     C282470   3.442  23.357   9.111 -0.1146 -0.0898 -0.1569
41236OCT     C182471   8.869   2.357   8.477  0.1086 -0.0667 -0.0798
41236OCT     C282472   8.568   2.400   8.068 -0.1232  0.0294  0.1947
41237OCT     C182473  15.294   3.674  17.414  0.5813 -0.2662 -0.0473
41237OCT     C282474  15.114   3.627  17.832 -0.2821  0.1259 -0.0525
41238OCT     C182475  20.100   0.795   9.820  0.0548  0.1085 -0.1501
41238OCT     C282476  20.320   0.563  10.135 -0.3293  0.0133  0.3078
41239OCT     C182477   4.304  13.823   9.472  0.0847  0.1800 -0.0215
41239OCT     C282478   4.775  13.661   9.530  0.4573  0.0163  0.3029
41240OCT     C182479  22.537   1.831  22.096  0.0128 -0.0669 -0.0865
41240OCT     C282480  22.828   1.786  21.732 -0.1289  0.0696 -0.2804
41241OCT     C182481  19.764  22.664   4.246  0.0913  0.5673 -0.0812
41241OCT     C282482  19.969  22.960   3.955  0.0935 -0.0573 -0.1118
41242OCT     C182483  14.624  11.476  21.000 -0.0557  0.2380 -0.2746
41242OCT     C282484  14.626  11.777  20.640  0.3387  0.3152  0.2206
41243OCT     C182485  23.141  16.413  20.581  0.1410 -0.0382 -0.2098
41243OCT     C282486  23.396  16.370  20.965  0.0521  0.0736 -0.0018
41244OCT     C182487  12.261   4.060   3.963 -0.1394 -0.2199  0.0020
41244OCT     C282488  11.848   3.878   3.841 -0.0772  0.4087 -0.0530
41245OCT     C182489  16.755  20.487  10.969 -0.3118  0.3349  0.1224
41245OCT     C282490  16.321  20.616  10.838  0.1585 -0.4352  0.0429
41246OCT     C182491   0.465  19.162  16.884  0.0423 -0.0619  0.1427
41246OCT     C282492   0.364  18.801  17.171 -0.0741  0.1728 -0.2154
41247OCT     C182493   1.400  22.130   2.440 -0.0772  0.2354  0.0619
41247OCT     C282494   1.095  21.765   2.564 -0.1683 -0.0393 -0.0996
41248OCT     C182495   5.989  10.645  17.088 -0.1783  0.0870  0.0968
41248OCT     C282496   6.175  10.372  16.760 -0.1827 -0.0909 -0.1898
41249OCT     C182497   0.830  19.513  12.605  0.1610 -0.3426  0.0732
41249OCT     C282498   0.812  19.134  12.342  0.1265  0.2178  0.0238
41250OCT     C182499   0.560   9.480   2.674  0.0721  0.1800  0.3506
41250OCT     C282500   0.483   9.867   2.983 -0.2652 -0.2173 -0.1533
41251OCT     C182501   1.941  18.593   3.429 -0.2990 -0.4165 -0.0959
41251OCT     C282502   2.294  18.925   3.518  0.2314  0.3094 -0.2794
41252OCT     C182503  11.621  22.339   3.325 -0.3172 -0.0197  0.3272
41252OCT     C282504  11.167  22.372   3.235 -0.3228 -0.2801 -0.0083
41253OCT     C182505   9.815  14.428  15.810 -0.0354 -0.2043  0.0166
41253OCT     C282506   9.511  14.118  15.814  0.0659 -0.0858  0.0289
41254OCT     C182507   3.756  12.803  14.036 -0.0728  0.0339 -0.1042
41254OCT     C282508   4.023  12.364  13.936  0.3920 -0.3643 -0.1293
41255OCT     C182509  10.920   9.193  12.740 -0.0852 -0.2085  0.0143
41255OCT     C282510  10.567   9.311  13.002 -0.0908  0.0358  0.1197
41256OCT     C182511   4.447   7.281  22.231  0.0169  0.1655 -0.1388
41256OCT     C282512   4.828   7.340  22.074  0.1819 -0.0772  0.2778
41257OCT     C182513  23.087   3.705  15.900  0.1668  0.1155  0.5188
41257OCT     C282514  22.940   3.740  16.377 -0.1714 -0.1151  0.0296
41258OCT     C182515   6.772   1.045  21.091  0.1095  0.0417  0.1581
41258OCT     C282516   7.168   0.960  20.846 -0.1299  0.2281  0.2030
41259OCT     C182517   3.568   3.832   2.761 -0.0152  0.0354 -0.0315
41259OCT     C282518   3.916   3.653   2.527 -0.3652  0.1273  0.1032
41260OCT     C182519  16.098   2.074  18.827 -0.0714 -0.1152 -0.1252
41260OCT     C282520  15.642   1.986  18.986 -0.0110 -0.0940 -0.1588
41261OCT     C182521   5.900  15.016  23.130 -0.0835 -0.0472  0.0245
41261OCT     C282522   6.040  15.413  23.265  0.0565  0.1721  0.1397
41262OCT     C182523   2.716   5.801  19.512  0.2622  0.4774  0.3979
41262OCT     C282524   3.033   5.497  19.705  0.1002 -0.4389  0.2512
41263OCT     C182525   3.347   3.249  20.218  0.0407  0.0798 -0.2368
41263OCT     C282526   3.624   2.891  20.398  0.1253 -0.1545  0.1684
41264OCT     C182527   4.772   3.028   2.139 -0.4235  0.2407  0.0993
41264OCT     C282528   5.014   2.718   1.956 -0.4273 -0.1115  0.0537
41265OCT     C182529  15.870  13.142  10.058 -0.2754 -0.0088 -0.1506
41265OCT     C282530  15.676  12.842  10.326 -0.5739 -0.2522 -0.0469
41266OCT     C182531   7.214  13.244   8.936  0.2106  0.0987  0.0244
41266OCT     C282532   7.055  12.793   8.965 -0.1356 -0.1022  0.1097
41267OCT     C182533   4.540  20.192  13.940  0.0241 -0.3231 -0.1008
41267OCT     C282534   4.876  20.002  13.717 -0.0442  0.1759  0.0211
41268OCT     C182535  13.902  22.495  15.320  0.0736  0.0278 -0.3011
41268OCT     C282536  14.030  22.749  15.714 -0.4224 -0.3310  0.3066
41269OCT     C182537  18.828   1.538  11.107  0.0544  0.3695  0.1633
41269OCT     C282538  18.554   1.368  11.459  0.2171  0.2052  0.3409
41270OCT     C182539   2.808  17.337   3.264  0.2833  0.1247 -0.2246
41270OCT     C282540   2.694  16.857   3.133 -0.3883  0.2511 -0.0479
41271OCT     C182541   2.169  13.560  12.800 -0.0148 -0.1826  0.0959
41271OCT     C282542   2.095  13.918  13.029 -0.2217  0.1561 -0.3435
41272OCT     C182543   7.431  19.393   3.898 -0.1806 -0.1912 -0.2467
41272OCT     C282544   7.559  19.000   4.203  0.0128 -0.1376 -0.1323
41273OCT     C182545  12.603   1.715  18.059 -0.0928  0.0529  0.1793
41273OCT     C282546  12.983   1.514  18.000 -0.3601  0.1276 -0.0576
41274OCT     C182547   1.341  16.897  17.554  0.1357  0.1340 -0.2990
41274OCT     C282548   1.047  16.849  17.086  0.0613  0.2582  0.3858
41275OCT     C182549   2.291   0.144  13.691 -0.2159  0.0002  0.2304
41275OCT     C282550   2.742   0.298  13.703 -0.3619 -0.1496 -0.2243
41276OCT     C182551   5.750  20.603  18.091 -0.2601 -0.1223  0.1086
41276OCT     C282552   5.536  20.980  18.151 -0.0126 -0.0134  0.0947
41277OCT     C182553  11.208  10.682   7.648  0.1665 -0.0789  0.5911
41277OCT     C282554  10.862  11.002   7.699 -0.1153  0.2171  0.1023
41278OCT     C182555  14.122   9.408   4.564 -0.2422 -0.2415 -0.3668
41278OCT     C282556  13.683   9.318   4.685 -0.2559  0.1177 -0.0514
41279OCT     C182557   4.327  11.649   6.574  0.1479 -0.2072 -0.0234
41279OCT     C282558   4.557  12.029   6.663  0.1222 -0.0607  0.1613
41280OCT     C182559  12.228   0.636   9.581 -0.1054  0.0545  0.0523
41280OCT     C282560  12.597   0.776   9.344  0.1041  0.2088  0.1802
41281OCT     C182561  18.316  19.110  20.024  0.2234  0.3527 -0.1825
41281OCT     C282562  18.179  19.577  20.071  0.2081 -0.0679  0.1623
41282OCT     C182563  14.346  12.223  23.123  0.1657 -0.2837 -0.0452
41282OCT     C282564  14.062  12.442  23.442 -0.2220 -0.1995  0.2773
41283OCT     C182565  22.794   5.701   7.585  0.0292  0.0378 -0.0042
41283OCT     C282566  22.786   5.361   7.874  0.1065  0.0519 -0.4591
41284OCT     C182567  23.702  18.007  21.981  0.0250  0.1250  0.2458
41284OCT     C282568   0.063  18.446  21.870  0.1158 -0.0197  0.0889
41285OCT     C182569  20.238  17.189  19.939 -0.0783 -0.1352  0.1339
41285OCT     C282570  20.353  17.646  20.075  0.1622 -0.1864 -0.0616
41286OCT     C182571  10.050  15.154  17.167 -0.2419 -0.2190 -0.3718
41286OCT     C282572   9.831  15.092  17.524  0.0027 -0.1048  0.1591
41287OCT     C182573  19.222   1.655  14.565  0.1381  0.1380  0.1176
41287OCT     C282574  19.212   1.473  14.116 -0.0461 -0.3634  0.1971
41288OCT     C182575  14.468   1.351  16.035  0.5588  0.0760 -0.2269
41288OCT     C282576  14.376   1.422  15.598  0.0985 -0.0748  0.2758
41289OCT     C182577   3.800  23.430  21.399 -0.0684 -0.1026 -0.1485
41289OCT     C282578   3.808  23.106  21.150  0.1362  0.3284 -0.0082
41290OCT     C182579   5.150  14.872   2.194  0.0999  0.1772  0.3848
41290OCT     C282580   5.391  15.062   1.839 -0.0583  0.1704  0.0516
41291OCT     C182581  15.523  19.619  14.726  0.2724 -0.0548  0.0584
41291OCT     C282582  15.334  19.779  15.013 -0.2830  0.0228 -0.2522
41292OCT     C182583  17.595  21.001  10.479  0.2171 -0.2545  0.1744
41292OCT     C282584  17.128  21.014  10.474  0.0616 -0.1411  0.4076
41293OCT     C182585  20.730  10.961   4.832  0.1578  0.1043  0.1442
41293OCT     C282586  20.977  11.319   4.921 -0.3927  0.4774  0.3081
41294OCT     C182587   4.878  23.710   7.797 -0.4378  0.1559 -0.1198
41294OCT     C282588   4.528  23.498   7.599 -0.2356 -0.1397 -0.1203
41295OCT     C182589  12.096  23.185  14.124 -0.1757 -0.1206 -0.3432
41295OCT     C282590  11.746  23.478  14.104  0.0715  0.1303  0.0493
41296OCT     C182591  14.829  19.724  18.446  0.4018  0.0068 -0.1710
41296OCT     C282592  15.202  19.934  18.260 -0.0532  0.0502  0.2957
41297OCT     C182593  15.821   8.877  19.925  0.0715  0.2064 -0.0835
41297OCT     C282594  16.285   8.823  19.997  0.0191 -0.1165 -0.0355
41298OCT     C182595  15.893  20.775   9.445 -0.1649  0.3630  0.0023
41298OCT     C282596  15.464  20.872   9.604 -0.0354  0.0644  0.0201
41299OCT     C182597   7.309   4.122   2.456  0.3994 -0.0058 -0.1736
41299OCT     C282598   7.633   4.441   2.591 -0.1359 -0.0565  0.5192
41300OCT     C182599   7.101   7.433  12.314  0.1376 -0.1292 -0.1497
41300OCT     C282600   7.119   7.922  12.351  0.0816 -0.2546 -0.1078
41301OCT     C182601   1.198  17.912   5.505  0.3760 -0.1697  0.0360
41301OCT     C282602   1.569  18.174   5.624  0.2512  0.3485  0.1100
41302OCT     C182603   3.801   7.319   8.669  0.1357  0.0151 -0.0871
41302OCT     C282604   3.413   7.099   8.461 -0.4406 -0.0903  0.4228
41303OCT     C182605  23.254   8.722   8.443  0.0549 -0.0599 -0.1400
41303OCT     C282606  23.711   8.877   8.578  0.1162  0.2953 -0.0999
41304OCT     C182607   9.585   7.237  13.197  0.0586  0.2496 -0.2394
41304OCT     C282608   9.960   7.566  13.226  0.1988  0.0243 -0.1350
41305OCT     C182609  15.786   6.199  19.801  0.3563  0.0707 -0.0086
41305OCT     C282610  16.076   6.502  19.692 -0.1743 -0.1352 -0.3048
41306OCT     C182611  23.199  22.353  18.354 -0.4051  0.3291 -0.0542
41306OCT     C282612  23.659  22.244  18.396 -0.1016  0.0663  0.0293
41307OCT     C182613   6.856  17.603  15.227 -0.2542  0.2866  0.2375
41307OCT     C282614   6.986  17.617  15.643  0.1341  0.2660  0.2659
41308OCT     C182615  20.162   5.624  11.583 -0.0787 -0.0597  0.0678
41308OCT     C282616  20.375   6.015  11.412  0.1501 -0.0546 -0.1393
41309OCT     C182617   2.632  19.655  14.619  0.2724 -0.1492  0.2330
41309OCT     C282618   2.363  19.812  14.267  0.1858  0.2523 -0.3036
41310OCT     C182619  16.423   5.418   4.868  0.1128  0.1329 -0.0916
41310OCT     C282620  16.407   5.721   4.524 -0.1011 -0.1441 -0.1861
41311OCT     C182621  20.495   0.026   9.242  0.2471 -0.1971 -0.2442
41311OCT     C282622  20.466  23.260   9.113  0.0999 -0.0395 -0.1252
41312OCT     C182623   7.517  19.175  18.016 -0.0900 -0.3377 -0.2150
41312OCT     C282624   7.295  18.966  17.668  0.0271 -0.1992 -0.1202
41313OCT     C182625  10.345  13.067   6.032  0.0490  0.0350 -0.1791
41313OCT     C282626  10.097  12.979   5.651  0.4639 -0.1213 -0.0070
41314OCT     C182627   5.057  14.725   0.338 -0.2122  0.0707  0.1376
41314OCT     C282628   5.353  15.076   0.328 -0.0936 -0.3582 -0.0639
41315OCT     C182629  17.790  16.465   3.059  0.3478 -0.0499 -0.0850
41315OCT     C282630  18.116  16.077   3.118  0.4847 -0.1074  0.0434
41316OCT     C182631  10.354  13.239   0.639  0.2639 -0.2188  0.0210
41316OCT     C282632  10.037  13.467   0.962  0.0056 -0.3129  0.3178
41317OCT     C182633   9.990  19.345  21.137  0.1086 -0.1682  0.0399
41317OCT     C282634  10.423  19.266  21.301  0.0936  0.0031  0.2491
41318OCT     C182635  11.774   7.652  23.449 -0.0016  0.2413  0.1489
41318OCT     C282636  11.720   7.631  22.997  0.2507  0.1182  0.3108
41319OCT     C182637  15.661  10.447  13.803  0.0060 -0.3482 -0.1814
41319OCT     C282638  16.060  10.686  13.754 -0.3431 -0.0666 -0.0673
41320OCT     C182639  12.281  23.713  20.887 -0.2222  0.1645  0.1715
41320OCT     C282640  12.323   0.012  21.304 -0.3133 -0.0686 -0.0365
41321OCT     C182641   8.162  17.033  22.869 -0.3449 -0.2787 -0.1645
41321OCT     C282642   7.750  16.849  22.801  0.2803 -0.0180 -0.2720
41322OCT     C182643   3.397  13.683  10.335 -0.1493 -0.1243  0.1325
41322OCT     C282644   3.788  13.814  10.096 -0.1039  0.3647 -0.1156
41323OCT     C182645  18.707  11.339   6.057 -0.1545  0.0087  0.0515
41323OCT     C282646  18.695  10.862   5.988  0.3591  0.0071 -0.2546
41324OCT     C182647  23.728   3.922   5.329  0.4609 -0.4286  0.3291
41324OCT     C282648  23.488   4.046   5.729  0.0968 -0.0222 -0.1934
41325OCT     C182649   4.107   7.752  15.258  0.1609 -0.2571  0.0162
41325OCT     C282650   3.903   8.124  15.336  0.1082  0.2856 -0.1499
41326OCT     C182651   9.067  22.460  18.544 -0.1522  0.0298  0.0766
41326OCT     C282652   8.798  22.022  18.630  0.0200 -0.2737 -0.1307
41327OCT     C182653   7.911  12.710  22.239  0.0662  0.2278 -0.2737
41327OCT     C282654   8.012  12.571  22.631 -0.4456 -0.1431 -0.2843
41328OCT     C182655  15.159  12.982  22.469  0.1312  0.0830 -0.0516
41328OCT     C282656  14.988  13.316  22.725 -0.1067  0.3051 -0.0446
41329OCT     C182657   1.143  16.950  23.603 -0.3274  0.0249 -0.4163
41329OCT     C282658   0.807  16.720   0.116  0.1733  0.2126 -0.0674
41330OCT     C182659  18.521   6.132  20.310  0.0225  0.1246  0.3306
41330OCT     C282660  18.676   6.183  19.868  0.2469  0.0317 -0.0771
41331OCT     C182661  12.218   9.998   1.454 -0.3453 -0.3490 -0.1598
41331OCT     C282662  12.352  10.448   1.624 -0.0186  0.1893 -0.0413
41332OCT     C182663  14.825  21.758   2.545  0.3076  0.2434  0.3622
41332OCT     C282664  14.569  22.021   2.264 -0.3360 -0.1732  0.1406
41333OCT     C182665  11.593  14.670  18.790  0.5795  0.1611 -0.1268
41333OCT     C282666  11.619  15.118  18.965 -0.0482 -0.4111  0.3163
41334OCT     C182667  14.679  15.331  16.985 -0.1401  0.3733 -0.1344
41334OCT     C282668  14.761  15.760  16.840 -0.0517 -0.5115  0.2393
41335OCT     C182669  15.479  19.961  19.306  0.1639  0.0832 -0.0774
41335OCT     C282670  15.169  19.996  19.686 -0.0725  0.1375  0.1157
41336OCT     C182671   8.604  14.782   1.665  0.0891  0.0068 -0.1374
41336OCT     C282672   8.230  14.443   1.698 -0.2630 -0.4899  0.3415
41337OCT     C182673  18.568   6.882  15.962  0.2622  0.0393 -0.1225
41337OCT     C282674  18.491   7.362  15.862 -0.0267  0.2674  0.1339
41338OCT     C182675  20.631  14.118   2.690 -0.3055 -0.3683 -0.1644
41338OCT     C282676  20.808  13.822   2.377  0.0893  0.3572 -0.0625
41339OCT     C182677  20.512   5.460  21.528 -0.0626 -0.0073  0.2802
41339OCT     C282678  20.236   5.713  21.578  0.0128 -0.1229 -0.0260
41340OCT     C182679  11.185   5.577  22.999  0.1055  0.2209  0.0154
41340OCT     C282680  10.985   5.407  23.407  0.0071 -0.1112 -0.1697
41341OCT     C182681   7.781   0.912  11.952 -0.3177 -0.2750 -0.1481
41341OCT     C282682   7.704   1.165  12.365 -0.1932 -0.0104 -0.0985
41342OCT     C182683   0.445  11.705   5.463 -0.3388 -0.2524 -0.5155
41342OCT     C282684   0.871  11.656   5.610 -0.2937  0.5041 -0.4139
41343OCT     C182685   2.984   6.513  12.882 -0.1052 -0.2523 -0.1283
41343OCT     C282686   2.981   6.500  13.365 -0.0307 -0.0019 -0.1686
41344OCT     C182687  16.579   3.915   0.482 -0.1316 -0.1253 -0.3113
41344OCT     C282688  16.431   4.140   0.894  0.0486 -0.5472 -0.2003
41345OCT     C182689  22.941   2.413  21.090 -0.0193 -0.0583 -0.3252
41345OCT     C282690  22.584   2.703  20.880  0.0872  0.1440  0.1084
41346OCT     C182691  16.484  20.116  18.829 -0.1212 -0.0156  0.1366
41346OCT     C282692  16.558  20.444  18.433 -0.0241 -0.0928 -0.1402
41347OCT     C182693  19.064   6.841   8.279 -0.2405 -0.3200 -0.2512
41347OCT     C282694  19.292   7.219   8.197  0.0465  0.4058 -0.2518
41348OCT     C182695  16.277  12.784  10.796  0.5135  0.1895  0.0690
41348OCT     C282696  16.395  12.766  11.227  0.1041  0.1686  0.1419
41349OCT     C182697  21.616  15.237   0.935  0.1285  0.1472  0.2829
41349OCT     C282698  21.114  15.209   0.942  0.0594  0.1477  0.3345
41350OCT     C182699  18.307   9.839  23.640  0.0362  0.0582  0.0464
41350OCT     C282700  18.693   9.761  23.371  0.0484  0.2430 -0.1926
41351OCT     C182701  21.619   5.166  15.965  0.3573  0.0803 -0.0122
41351OCT     C282702  21.950   5.092  15.605  0.3931  0.0956 -0.1654
41352OCT     C182703  12.391   8.415  20.202 -0.1784  0.1722  0.1978
41352OCT     C282704  12.626   8.612  20.549  0.2965 -0.1053  0.0353
41353OCT     C182705  17.741  18.571  16.848  0.0746 -0.4454 -0.0028
41353OCT     C282706  18.185  18.488  16.603  0.0832  0.1762  0.3471
41354OCT     C182707   7.013   1.389  22.384 -0.1138 -0.3318 -0.1224
41354OCT     C282708   6.742   1.350  22.024  0.0843  0.1573 -0.0910
41355OCT     C182709   5.912  22.775  15.237  0.0418  0.1010  0.1373
41355OCT     C282710   5.814  22.356  15.114  0.2240  0.2753 -0.1253
41356OCT     C182711  21.707  16.341   0.497 -0.2081 -0.0437 -0.0696
41356OCT     C282712  21.984  16.737   0.563 -0.0297 -0.0105  0.2929
41357OCT     C182713  20.098  18.016   2.164 -0.1715 -0.3208 -0.1238
41357OCT     C282714  19.664  18.064   1.921 -0.1918  0.1385 -0.3137
41358OCT     C182715  18.239  19.561  21.835 -0.1114  0.2229  0.1400
41358OCT     C282716  18.345  19.656  22.301 -0.0964  0.0662 -0.1483
41359OCT     C182717   0.027  22.531  10.427 -0.1835 -0.2526  0.0267
41359OCT     C282718   0.042  22.514  10.854  0.1748  0.3089 -0.1516
41360OCT     C182719  15.509  23.055  14.961  0.2013  0.3690  0.2609
41360OCT     C282720  15.851  23.370  14.933  0.0963  0.1979  0.1451
41361OCT     C182721   1.676   0.218   9.215 -0.0396 -0.2880  0.2643
41361OCT     C282722   1.533   0.616   9.299  0.0547  0.1138 -0.3533
41362OCT     C182723  22.663   4.858  17.764 -0.0460  0.0681  0.0965
41362OCT     C282724  22.791   4.874  18.189  0.2752  0.4734 -0.0970
41363OCT     C182725  17.636   7.797  16.699 -0.0539 -0.0553 -0.0451
41363OCT     C282726  17.416   8.169  16.557  0.0821 -0.0767  0.1021
41364OCT     C182727   5.185   4.740   7.203 -0.0999  0.5016  0.1627
41364OCT     C282728   4.949   4.963   6.795 -0.1955 -0.1784 -0.0996
41365OCT     C182729   7.296   2.924  20.791 -0.2496  0.2679  0.0535
41365OCT     C282730   7.710   3.100  20.953 -0.1166 -0.0605 -0.0881
41366OCT     C182731   9.555  15.504  14.301 -0.1596  0.1695  0.2122
41366OCT     C282732   9.744  15.153  14.519  0.5000 -0.3697 -0.0140
41367OCT     C182733  10.725   8.753  15.301  0.3796  0.3388  0.1758
41367OCT     C282734  11.006   8.613  15.634 -0.1269 -0.2844  0.0963
41368OCT     C182735  14.636   7.267  23.262  0.1987 -0.1624 -0.1976
41368OCT     C282736  14.909   7.086  23.654 -0.1452  0.2416  0.0848
41369OCT     C182737   9.519  20.190   4.146 -0.0015  0.1157  0.4991
41369OCT     C282738   9.165  19.886   4.337 -0.0783 -0.0019  0.0129
41370OCT     C182739  11.502  18.206   9.243 -0.1535  0.0705 -0.3132
41370OCT     C282740  11.076  18.281   9.034 -0.1528 -0.5007 -0.0160
41371OCT     C182741   9.095  18.982  16.852  0.0304  0.1620  0.0041
41371OCT     C282742   8.789  19.122  16.543 -0.1685  0.4494  0.0995
41372OCT     C182743  17.250   9.787  22.111  0.0501 -0.0530 -0.1508
41372OCT     C282744  17.433   9.866  21.680 -0.1099  0.3957  0.0479
41373OCT     C182745   2.989  18.354  21.536 -0.0072 -0.0565  0.0171
41373OCT     C282746   2.749  18.478  21.917 -0.2470 -0.4692  0.2606
41374OCT     C182747  17.303   5.503   7.019  0.0554 -0.0421  0.0160
41374OCT     C282748  16.844   5.592   7.208  0.1364 -0.3158 -0.0514
41375OCT     C182749  21.789  16.050   9.607 -0.2691  0.2158 -0.3795
41375OCT     C282750  21.552  15.990   9.199  0.0486  0.1943  0.1025
41376OCT     C182751   2.677  16.733  10.576  0.0327 -0.0104  0.0422
41376OCT     C282752   2.883  16.964  10.187  0.0179  0.0009  0.0588
41377OCT     C182753   8.983  14.572   2.455  0.0728  0.0599  0.1571
41377OCT     C282754   8.977  14.233   2.801 -0.0938 -0.2919  0.4752
41378OCT     C182755   1.715   5.106   3.476 -0.0726  0.2676  0.1976
41378OCT     C282756   1.583   4.914   3.072  0.3847  0.2222  0.0504
41379OCT     C182757  13.884   2.315   5.662 -0.4246  0.2644  0.0016
41379OCT     C282758  13.951   2.784   5.705 -0.0039 -0.0311 -0.1116
41380OCT     C182759  15.202   8.896   3.451 -0.0326  0.0188  0.1723
41380OCT     C282760  14.793   9.001   3.361 -0.3279 -0.6044 -0.1853
41381OCT     C182761  16.081   8.530  21.465  0.2600  0.2175  0.0434
41381OCT     C282762  16.155   8.834  21.771  0.2839  0.2328  0.1203
41382OCT     C182763   8.224   0.709   7.124  0.1893 -0.0632 -0.0075
41382OCT     C282764   8.109   0.342   7.332 -0.1298  0.0635 -0.0608
41383OCT     C182765  11.508  19.960  17.830  0.3698 -0.0676  0.3584
41383OCT     C282766  11.185  19.729  18.062  0.2652 -0.0847 -0.0973
41384OCT     C182767   6.778  18.866   2.955  0.1473 -0.1333 -0.2220
41384OCT     C282768   7.086  18.541   2.829  0.1564  0.0578  0.0383
41385OCT     C182769  18.835   7.420   9.999  0.0569 -0.0983 -0.3308
41385OCT     C282770  18.540   7.621  10.352 -0.1906  0.3730 -0.1437
41386OCT     C182771  12.734  11.082  22.628 -0.1612  0.1985 -0.2933
41386OCT     C282772  12.952  11.285  22.291  0.1625 -0.1038 -0.1487
41387OCT     C182773  15.500  11.750  13.053 -0.0361  0.1896  0.1319
41387OCT     C282774  15.881  11.645  13.248 -0.0266 -0.0282  0.0015
41388OCT     C182775  17.529   8.868  22.053 -0.1570 -0.0601 -0.1373
41388OCT     C282776  17.638   8.805  22.522  0.1860  0.0820 -0.2735
41389OCT     C182777  16.266   9.840  16.130  0.3540 -0.3921 -0.1707
41389OCT     C282778  16.189   9.657  15.710 -0.0697 -0.1689 -0.1651
41390OCT     C182779  20.610   7.491   9.876 -0.2461  0.3200 -0.1180
41390OCT     C282780  20.755   7.834  10.113  0.2979  0.1624  0.0050
41391OCT     C182781   9.484  15.776   7.686 -0.4226 -0.2694  0.0557
41391OCT     C282782   9.531  15.538   7.307 -0.2218 -0.0638 -0.0295
41392OCT     C182783   3.003   2.436  10.756 -0.4166 -0.0421  0.1516
41392OCT     C282784   3.101   2.702  11.158 -0.0285  0.0354  0.0120
41393OCT     C182785  22.991   6.351   5.528 -0.3333  0.1674  0.2653
41393OCT     C282786  22.755   6.808   5.608 -0.0188 -0.4071  0.0728
41394OCT     C182787  10.085   2.391  22.216 -0.5319 -0.0901 -0.0719
41394OCT     C282788  10.218   2.802  22.300 -0.0783  0.0754 -0.3015
41395OCT     C182789  21.108   1.509   0.993 -0.1082 -0.3420 -0.0179
41395OCT     C282790  20.707   1.217   0.858 -0.3459 -0.1277  0.1851
41396OCT     C182791   1.689   2.152  23.282  0.0897 -0.2385  0.1611
41396OCT     C282792   1.804   2.450  23.542 -0.3410 -0.3419  0.2021
41397OCT     C182793  15.435   5.424  19.131 -0.2420  0.0411  0.2381
41397OCT     C282794  15.408   5.683  18.744  0.3074 -0.1560 -0.0846
41398OCT     C182795   8.908   2.289  20.330  0.1989 -0.0738 -0.1271
41398OCT     C282796   8.587   2.582  20.287  0.2619 -0.2727 -0.0326
41399OCT     C182797  10.168  16.030  13.073  0.0731 -0.1233  0.3596
41399OCT     C282798  10.245  16.370  12.755 -0.0111  0.0063 -0.2457
41400OCT     C182799  22.248   0.031  14.591 -0.1750  0.3973  0.1846
41400OCT     C282800  22.247  23.358  14.775 -0.0734  0.0520  0.1965
41401OCT     C182801  14.521   4.521   3.625 -0.0432  0.3108  0.2606
41401OCT     C282802  14.593   4.524   3.185 -0.2827  0.0729  0.0556
41402OCT     C182803   2.544   1.501  20.204 -0.0301  0.2074 -0.0794
41402OCT     C282804   2.779   1.883  20.363 -0.2449 -0.4525 -0.0518
41403OCT     C182805   9.222   9.143   8.660  0.1455  0.2447  0.0491
41403OCT     C282806   8.903   9.349   9.098 -0.1418 -0.1182  0.2131
41404OCT     C182807   3.058   5.998  16.761  0.0891 -0.1353  0.0613
41404OCT     C282808   2.999   5.780  16.389  0.1522 -0.1234  0.1456
41405OCT     C182809  12.529   6.853  22.944 -0.1446 -0.1666 -0.1849
41405OCT     C282810  12.613   7.199  23.234 -0.1786 -0.1796 -0.0427
41406OCT     C182811   3.031   8.672  20.382 -0.1122  0.1626 -0.2611
41406OCT     C282812   3.071   8.273  20.732 -0.1092 -0.1108 -0.0269
41407OCT     C182813   0.701  18.825   5.989  0.0444  0.0042 -0.2716
41407OCT     C282814   0.322  19.048   5.941  0.4703  0.5680  0.1714
41408OCT     C182815  11.721  15.028   4.957 -0.0064 -0.0827 -0.0073
41408OCT     C282816  12.031  15.366   4.740  0.0019 -0.0337 -0.2641
41409OCT     C182817  11.965  16.098  18.202  0.0579  0.1186  0.3988
41409OCT     C282818  11.848  15.653  18.206 -0.4957  0.2702  0.6389
41410OCT     C182819  19.886   5.953  15.914 -0.0688  0.2875 -0.2344
41410OCT     C282820  20.062   6.278  15.591 -0.1689 -0.3668 -0.2869
41411OCT     C182821   0.562   0.386  22.270  0.2132 -0.2471 -0.5038
41411OCT     C282822   0.191   0.224  21.995 -0.5503 -0.1735  0.2560
41412OCT     C182823   0.802  13.559   8.053  0.3142 -0.3289  0.0420
41412OCT     C282824   1.146  13.605   8.404 -0.0728 -0.0313  0.0622
41413OCT     C182825   7.085  12.869  14.040  0.3799  0.5430 -0.1547
41413OCT     C282826   7.358  12.487  14.138  0.3167  0.2158 -0.1315
41414OCT     C182827  12.637  12.735  19.169 -0.0642  0.1215 -0.1569
41414OCT     C282828  12.937  12.350  19.094  0.2228  0.2978  0.2423
41415OCT     C182829  20.686  16.945   0.574 -0.1586 -0.1213 -0.0358
41415OCT     C282830  20.958  16.546   0.600  0.0103  0.4111 -0.0146
41416OCT     C182831   0.523   6.937  15.735 -0.5073 -0.2367  0.2379
41416OCT     C282832   0.300   6.818  16.081 -0.1208 -0.1765  0.0137
41417OCT     C182833  17.292  18.279  13.885  0.3234 -0.1466  0.1377
41417OCT     C282834  17.642  18.335  13.619  0.0675 -0.0330  0.2831
41418OCT     C182835  15.647  12.978   3.124  0.0338  0.2477  0.3902
41418OCT     C282836  15.179  13.114   3.129 -0.4118 -0.3257 -0.1065
41419OCT     C182837   1.272  13.617  12.301 -0.0970  0.0505  0.5578
41419OCT     C282838   1.705  13.473  12.214 -0.1814 -0.3838  0.1059
41420OCT     C182839  18.831  15.630   2.039 -0.3893 -0.0401 -0.2511
41420OCT     C282840  18.617  15.490   2.416  0.2274  0.0701 -0.3111
41421OCT     C182841  21.228   8.625  23.332  0.1259 -0.0015  0.0283
41421OCT     C282842  20.907   8.378  23.043 -0.1362 -0.0342 -0.0014
41422OCT     C182843  15.346   7.648  19.839 -0.2302  0.2064  0.1490
41422OCT     C282844  15.753   7.841  19.799 -0.0698  0.2174 -0.2298
41423OCT     C182845  23.460  14.827  22.027 -0.2024  0.1581  0.0775
41423OCT     C282846  23.250  15.171  21.803 -0.1227  0.2074  0.1876
41424OCT     C182847   6.585   6.303   9.091  0.2524 -0.2360  0.0476
41424OCT     C282848   6.429   6.470   9.475 -0.1266  0.1574 -0.1963
41425OCT     C182849  14.191   0.917   1.541 -0.0636 -0.1481 -0.2638
41425OCT     C282850  14.592   1.061   1.441  0.0305  0.0786  0.0066
41426OCT     C182851   3.341  23.367  14.794 -0.1680 -0.1184  0.2645
41426OCT     C282852   3.158  23.069  15.064  0.0468  0.3203  0.3942
41427OCT     C182853  22.350  20.756   0.737  0.0237  0.2839  0.1476
41427OCT     C282854  22.538  20.720   0.313 -0.3707  0.2404  0.0523
41428OCT     C182855  23.344  17.335   1.859  0.4576 -0.1682 -0.1975
41428OCT     C282856  23.739  17.601   2.005 -0.0364  0.2286  0.0829
41429OCT     C182857  15.514  16.156  16.898 -0.2057  0.2170  0.1811
41429OCT     C282858  15.767  16.428  17.106 -0.1795 -0.0841  0.0808
41430OCT     C182859  21.700  23.054   9.735  0.0797 -0.1006 -0.3547
41430OCT     C282860  21.517  23.401   9.528  0.1540  0.0535  0.5785
41431OCT     C182861   8.555  18.372  21.562  0.1006  0.2020  0.1947
41431OCT     C282862   8.581  18.184  21.111  0.0512  0.0072 -0.6264
41432OCT     C182863  16.609  19.437  11.881  0.2001  0.0034 -0.0316
41432OCT     C282864  16.373  19.792  12.167 -0.0327 -0.1169 -0.1037
41433OCT     C182865   3.791  20.097  23.715 -0.2450 -0.2915  0.0970
41433OCT     C282866   3.608  20.416  23.527 -0.3251 -0.0084  0.0657
41434OCT     C182867  19.849   7.246  18.717 -0.0680 -0.1626  0.2094
41434OCT     C282868  19.961   6.986  19.070 -0.2463 -0.2039 -0.1199
41435OCT     C182869  17.150  18.039   2.905  0.2617 -0.1564 -0.2836
41435OCT     C282870  17.485  17.840   3.189  0.0544  0.2689  0.2295
41436OCT     C182871  21.978  13.362   9.363  0.0016 -0.0693 -0.0745
41436OCT     C282872  21.922  13.783   9.582 -0.3541 -0.1610  0.0347
41437OCT     C182873   2.029   8.337   1.930 -0.0966  0.0178 -0.1979
41437OCT     C282874   2.340   8.655   1.719  0.2921 -0.0156 -0.0954
41438OCT     C182875   2.022  22.392  20.558 -0.2164 -0.0187 -0.0027
41438OCT     C282876   1.813  22.004  20.354  0.2173  0.2866 -0.0840
41439OCT     C182877  23.348   6.250  20.406  0.2210  0.1693  0.0488
41439OCT     C282878  23.041   5.927  20.418  0.2818 -0.0814  0.1535
41440OCT     C182879   1.052  15.666  13.326  0.2288 -0.1440  0.0025
41440OCT     C282880   0.787  16.051  13.341  0.3028 -0.2039  0.1723
41441OCT     C182881   5.836  14.290  19.750 -0.0006  0.4528 -0.2342
41441OCT     C282882   6.301  14.364  19.972 -0.1600  0.0474  0.1361
41442OCT     C182883   1.328  21.018   8.076 -0.1295  0.1504  0.0819
41442OCT     C282884   1.741  21.036   7.932  0.0405  0.3322  0.2106
41443OCT     C182885   2.094  14.352  21.542  0.1725  0.0460  0.1713
41443OCT     C282886   2.397  14.000  21.453  0.0659  0.0087 -0.2619
41444OCT     C182887  10.504  16.566  10.205  0.0829 -0.3698 -0.0979
41444OCT     C282888  10.641  16.872   9.884  0.2170 -0.2754  0.2621
41445OCT     C182889   1.036  15.570   2.426 -0.0276  0.0069 -0.0095
41445OCT     C282890   0.800  15.791   2.812  0.0515  0.2067 -0.4369
41446OCT     C182891  23.584  19.133   5.568 -0.0440 -0.0307 -0.1504
41446OCT     C282892  23.582  18.920   6.010 -0.0581 -0.3227 -0.1572
41447OCT     C182893   5.982   6.423   8.602 -0.4980  0.3151 -0.1316
41447OCT     C282894   5.906   6.757   8.243  0.0064  0.0554 -0.2766
41448OCT     C182895  14.069  11.166  21.771 -0.0594  0.0242 -0.0997
41448OCT     C282896  14.051  11.263  22.253 -0.1891 -0.3608 -0.0975
41449OCT     C182897  15.090   8.714  20.556 -0.2374  0.0077  0.0939
41449OCT     C282898  15.472   8.817  20.253  0.0054  0.1875  0.1171
41450OCT     C182899   3.496  10.294  21.525  0.2322 -0.2145  0.0372
41450OCT     C282900   3.213  10.237  21.162 -0.0673 -0.1935  0.4919
41451OCT     C182901   0.608  16.181   8.713  0.2075  0.3639 -0.0319
41451OCT     C282902   0.289  16.374   8.416  0.0867 -0.4455 -0.1104
41452OCT     C182903  16.644  12.539  23.416  0.1553 -0.1391 -0.1502
41452OCT     C282904  16.478  12.544  22.935 -0.0754 -0.1379  0.2931
41453OCT     C182905  11.479   8.999   6.838  0.2716  0.1156  0.0133
41453OCT     C282906  11.857   9.203   6.915  0.0939 -0.3015  0.3174
41454OCT     C182907  10.416  23.553  13.249  0.1688  0.3597 -0.4371
41454OCT     C282908   9.979  23.413  13.213  0.2001  0.0594  0.0658
41455OCT     C182909   9.139   1.387   7.910  0.0461 -0.0308  0.1970
41455OCT     C282910   9.188   1.327   8.402  0.1726 -0.1636 -0.2192
41456OCT     C182911  14.833  12.136  14.304 -0.1166 -0.0649  0.0207
41456OCT     C282912  14.511  11.857  14.100  0.0995 -0.2027 -0.4784
41457OCT     C182913  10.709   4.876   4.913 -0.2619 -0.0854  0.2055
41457OCT     C282914  10.622   5.200   4.650 -0.2169 -0.0152 -0.1231
41458OCT     C182915  17.024  13.355   3.369 -0.0562  0.2471 -0.2149
41458OCT     C282916  16.989  13.742   3.584  0.2651  0.3172  0.4286
41459OCT     C182917   1.724   4.307  14.935 -0.0537 -0.2363 -0.1437
41459OCT     C282918   1.281   4.117  14.914 -0.1008  0.1506  0.5500
41460OCT     C182919   5.382  13.346  11.390  0.3405  0.1173 -0.1427
41460OCT     C282920   5.660  13.623  11.198 -0.4169  0.0089  0.2417
41461OCT     C182921  15.595   3.396  10.518  0.0616  0.3983 -0.1360
41461OCT     C282922  15.405   2.990  10.603 -0.0736 -0.0211  0.0420
41462OCT     C182923   6.913  18.072  14.943  0.1255  0.4641 -0.2010
41462OCT     C282924   6.976  18.495  14.760 -0.4893  0.0710 -0.0689
41463OCT     C182925   7.537   1.243  13.290  0.0831  0.2088 -0.3165
41463OCT     C282926   7.235   0.876  13.326  0.3043 -0.1060 -0.3207
41464OCT     C182927  17.163  12.292   6.084  0.4087  0.1571  0.0921
41464OCT     C282928  17.542  12.161   5.855 -0.0744 -0.2383 -0.0388
41465OCT     C182929  13.314   9.129  14.579  0.0059  0.1776 -0.2841
41465OCT     C282930  13.712   9.263  14.776 -0.1377 -0.3585  0.3074
41466OCT     C182931  18.387   0.809   0.620 -0.3542  0.0188  0.1863
41466OCT     C282932  18.053   1.197   0.541 -0.0025 -0.1468  0.2033
41467OCT     C182933   6.353  22.813  23.019  0.2947 -0.0020  0.0477
41467OCT     C282934   6.703  23.048  22.801 -0.0091 -0.1120 -0.0985
41468OCT     C182935  20.215  17.641  12.383  0.2734  0.0945 -0.3275
41468OCT     C282936  19.903  17.327  12.582  0.2837  0.1033  0.2133
41469OCT     C182937  14.849   5.239   1.368  0.1897 -0.0994 -0.1298
41469OCT     C282938  14.458   5.298   1.199  0.0690 -0.0842  0.2310
41470OCT     C182939  19.975   4.630  11.398  0.2276 -0.3369  0.0393
41470OCT     C282940  19.859   4.899  11.740  0.0580 -0.1394 -0.1183
41471OCT     C182941   4.702  17.118  10.738  0.3601  0.2708 -0.1256
41471OCT     C282942   4.307  17.362  10.803  0.2318  0.3325  0.2175
41472OCT     C182943  17.073   1.836  12.573 -0.1109 -0.1533 -0.1327
41472OCT     C282944  17.515   1.715  12.544  0.3437 -0.1171 -0.1102
41473OCT     C182945   1.156  22.995  10.023 -0.1596  0.1770  0.1906
41473OCT     C282946   1.253  23.259   9.634 -0.2749 -0.2893  0.4164
41474OCT     C182947   5.775  22.298  12.678 -0.2844 -0.4005  0.0770
41474OCT     C282948   6.145  22.553  12.881  0.1598  0.0204  0.1973
41475OCT     C182949   2.652  17.542  20.955 -0.4810 -0.3640 -0.1056
41475OCT     C282950   2.881  17.492  20.558 -0.3772 -0.3598 -0.0273
41476OCT     C182951  16.860   6.051   9.610 -0.0267  0.1623 -0.3119
41476OCT     C282952  16.631   6.084   9.174 -0.0897 -0.0873 -0.3853
41477OCT     C182953  10.639  11.681  19.293  0.1271  0.2340 -0.0425
41477OCT     C282954  10.587  11.238  19.166 -0.2077 -0.0578  0.1521
41478OCT     C182955  21.427  16.850  10.755  0.1180  0.0258  0.0180
41478OCT     C282956  21.844  16.884  10.902 -0.1495  0.1017 -0.2807
41479OCT     C182957  11.669  12.715   7.639 -0.0173 -0.0627  0.0324
41479OCT     C282958  12.035  12.435   7.622 -0.0895 -0.2581  0.1739
41480OCT     C182959  12.722   0.790  11.527 -0.3987 -0.2051 -0.3887
41480OCT     C282960  13.044   0.626  11.821  0.2427 -0.0056  0.2428
41481OCT     C182961  22.003   0.752   3.270  0.2159  0.0645 -0.1718
41481OCT     C282962  21.609   0.947   3.274 -0.1628 -0.0800 -0.3491
41482OCT     C182963  19.465  12.339  13.943 -0.0699 -0.0304 -0.0659
41482OCT     C282964  19.899  12.282  13.790 -0.1291 -0.4773  0.4067
41483OCT     C182965   4.912  15.262  18.740  0.0752  0.0194 -0.2234
41483OCT     C282966   4.534  14.994  18.612  0.5093  0.2754  0.3558
41484OCT     C182967   6.177   5.443  20.786  0.2607  0.2520  0.2277
41484OCT     C282968   6.240   5.609  20.349  0.1818  0.0509  0.4275
41485OCT     C182969  21.111  17.059  23.395  0.0738 -0.3467  0.1868
41485OCT     C282970  20.720  17.099  23.652 -0.1177 -0.1433  0.0612
41486OCT     C182971  23.344  17.314   0.221 -0.4104 -0.1864 -0.0518
41486OCT     C282972  23.119  17.269   0.596  0.3315  0.3249 -0.0520
41487OCT     C182973   8.207  19.674  17.408 -0.1432 -0.1834 -0.3046
41487OCT     C282974   8.444  19.248  17.530  0.0801  0.0951 -0.0470
41488OCT     C182975  11.619  15.534  17.212  0.6566 -0.1745  0.1957
41488OCT     C282976  11.277  15.761  17.385  0.1879 -0.0989 -0.2321
41489OCT     C182977   6.048   0.323   2.333  0.0662 -0.0328 -0.1235
41489OCT     C282978   6.252   0.124   1.942  0.0019 -0.0667  0.0525
41490OCT     C182979   6.872  11.677   2.293 -0.1867  0.1095 -0.0891
41490OCT     C282980   6.700  11.990   2.547 -0.2332 -0.4358  0.2800
41491OCT     C182981  12.135  22.228  13.394  0.0357 -0.0090 -0.1312
41491OCT     C282982  12.173  21.799  13.623  0.2560  0.1398  0.3024
41492OCT     C182983  11.356  18.337  20.673  0.0671  0.1824 -0.3887
41492OCT     C282984  11.576  18.653  20.949  0.0700 -0.1191 -0.0495
41493OCT     C182985  20.711  14.564  21.447  0.1048  0.0831  0.0065
41493OCT     C282986  20.848  14.510  21.026 -0.2627  0.2150 -0.2052
41494OCT     C182987   8.052   1.357   0.093  0.0393 -0.0228  0.2202
41494OCT     C282988   7.802   1.277   0.504  0.1331 -0.2816  0.1885
41495OCT     C182989  15.365   7.583   0.891 -0.1116 -0.1642 -0.4139
41495OCT     C282990  15.528   7.186   1.019 -0.0136 -0.1232 -0.1129
41496OCT     C182991  12.644  18.215  19.058 -0.1348 -0.1065 -0.0868
41496OCT     C282992  12.505  18.005  18.691  0.0114 -0.0603  0.2094
41497OCT     C182993  17.881   2.404  17.952  0.1108 -0.1657  0.1337
41497OCT     C282994  18.221   2.331  17.684 -0.2618  0.2431  0.0175
41498OCT     C182995  20.176  11.525  22.227  0.0535  0.0578 -0.3886
41498OCT     C282996  20.040  11.138  22.475 -0.3019 -0.1075 -0.2752
41499OCT     C182997   4.244   5.870   0.069  0.1481 -0.2420 -0.0967
41499OCT     C282998   4.591   5.956  23.465 -0.2663 -0.2131  0.0726
41500OCT     C182999  21.605  14.958  10.171 -0.1139 -0.0448  0.0154
41500OCT     C283000  21.877  14.597  10.147 -0.2762  0.0988 -0.1488
41501OCT     C183001   1.914   8.966  12.223 -0.2205  0.2357 -0.1698
41501OCT     C283002   2.229   8.858  11.928  0.3637 -0.1893  0.0031
41502OCT     C183003  20.235  17.435   8.639 -0.0769  0.0767  0.2788
41502OCT     C283004  20.681  17.453   8.802 -0.3945  0.1036  0.0869
41503OCT     C183005  17.777  18.284   7.761 -0.0953  0.1194  0.1892
41503OCT     C283006  18.187  18.396   7.597 -0.0802  0.0748 -0.0245
41504OCT     C183007   7.754  18.544  18.834  0.1010 -0.3407 -0.0397
41504OCT     C283008   7.277  18.348  18.857 -0.0217 -0.3973  0.0819
41505OCT     C183009  13.222  23.241   5.220  0.1583  0.0916 -0.3802
41505OCT     C283010  13.145  23.198   5.664  0.3905  0.0575  0.4542
41506OCT     C183011  19.885  12.234  15.225  0.3543  0.2401 -0.1478
41506OCT     C283012  19.496  12.351  15.085  0.3824 -0.1193 -0.1629
41507OCT     C183013   6.939   6.374   4.021  0.4010  0.0494  0.1676
41507OCT     C283014   6.532   6.243   4.061  0.2823  0.2388  0.0214
41508OCT     C183015  16.473  11.524  23.514  0.2615 -0.2641  0.4298
41508OCT     C283016  16.010  11.624  23.634 -0.1941 -0.2391 -0.2240
41509OCT     C183017   0.945  18.495   0.993  0.0310  0.1731 -0.1206
41509OCT     C283018   1.102  18.194   0.792 -0.0344 -0.1444 -0.0406
41510OCT     C183019  10.532  13.225  14.900  0.1797  0.2777  0.1608
41510OCT     C283020  10.778  12.854  14.819 -0.1813  0.2132  0.0370
41511OCT     C183021  15.883  22.370  20.675  0.1464 -0.2166 -0.0067
41511OCT     C283022  16.242  22.339  20.371  0.0752 -0.2975 -0.0611
41512OCT     C183023   7.485  23.608   7.240  0.0140 -0.2454 -0.1751
41512OCT     C283024   7.322   0.007   7.690  0.0351 -0.0503 -0.1010
41513OCT     C183025   8.581   8.026  15.788 -0.0001  0.1660 -0.5260
41513OCT     C283026   8.453   7.564  15.865 -0.1521 -0.1041 -0.1308
41514OCT     C183027  14.676  19.331  11.951  0.0712 -0.2735 -0.1101
41514OCT     C283028  14.917  19.214  12.342 -0.3155 -0.3893 -0.0628
41515OCT     C183029   5.708  13.182   1.289  0.1560  0.0423 -0.1591
41515OCT     C283030   5.844  12.860   1.599 -0.2984 -0.0512 -0.2775
41516OCT     C183031   2.779  16.800  12.264  0.0136 -0.1540  0.3826
41516OCT     C283032   2.563  16.377  12.310  0.2280 -0.0901  0.0980
41517OCT     C183033  11.995   9.976  19.622 -0.2481 -0.0885  0.0253
41517OCT     C283034  11.800  10.102  19.207  0.0814 -0.0093  0.0770
41518OCT     C183035   8.057   7.388  14.177 -0.1286 -0.0911  0.2630
41518OCT     C283036   7.764   7.373  13.838  0.0392 -0.1906  0.1496
41519OCT     C183037  18.036  14.583   3.500 -0.0119  0.0283 -0.1547
41519OCT     C283038  17.749  14.218   3.555 -0.0494  0.0919 -0.1718
41520OCT     C183039  14.363  16.416  20.418  0.4348 -0.0120 -0.0861
41520OCT     C283040  14.441  16.059  20.665 -0.3475 -0.0997 -0.2609
41521OCT     C183041  20.887  21.549  10.414  0.0684 -0.2827 -0.1678
41521OCT     C283042  21.362  21.569  10.309 -0.2974 -0.2853  0.1458
41522OCT     C183043  16.089   3.340  12.233  0.0298  0.0324  0.0575
41522OCT     C283044  16.035   3.046  12.599 -0.1819 -0.0713  0.0224
41523OCT     C183045  22.676   0.747  19.169 -0.0303 -0.0138 -0.0331
41523OCT     C283046  22.966   0.469  19.248  0.0109 -0.2979  0.0127
41524OCT     C183047  19.367  19.875   4.855 -0.2164  0.2434 -0.0357
41524OCT     C283048  19.178  19.689   4.463 -0.2400 -0.3345 -0.4566
41525OCT     C183049   0.227  22.346  13.452 -0.1409 -0.1923 -0.1601
41525OCT     C283050   0.101  22.055  13.866 -0.1315 -0.1079  0.3379
41526OCT     C183051  16.646   1.986  20.421 -0.1314 -0.0618  0.2896
41526OCT     C283052  17.013   2.216  20.605 -0.0721 -0.2560  0.0855
41527OCT     C183053  20.945  23.144   9.061 -0.2614  0.1115 -0.2196
41527OCT     C283054  20.952  23.508   9.361 -0.1627  0.1543 -0.1077
41528OCT     C183055  18.109   6.519   9.928  0.0604 -0.0298  0.0051
41528OCT     C283056  18.218   6.944  10.208  0.0965 -0.0570  0.0416
41529OCT     C183057  13.531  15.237  13.763 -0.1397  0.1298  0.1998
41529OCT     C283058  13.737  14.863  13.648  0.0082 -0.0431 -0.2984
41530OCT     C183059  11.226  19.794   0.262 -0.4026  0.1220 -0.2257
41530OCT     C283060  11.020  19.396   0.081  0.0240 -0.0203 -0.1538
41531OCT     C183061   4.088  15.579   5.927 -0.3123 -0.2961  0.3185
41531OCT     C283062   4.109  15.170   6.070  0.1090  0.0111  0.0012
41532OCT     C183063  22.099  12.025  10.831 -0.2918  0.0095  0.1363
41532OCT     C283064  21.926  11.668  11.068  0.0258  0.1928  0.0696
41533OCT     C183065  21.422  20.267  21.161  0.2345 -0.0896  0.3857
41533OCT     C283066  21.087  20.546  21.133 -0.2426  0.1409 -0.3960
41534OCT     C183067   3.689   5.161  16.151  0.3236 -0.1798  0.1687
41534OCT     C283068   3.725   5.558  16.417  0.0420  0.3454 -0.0153
41535OCT     C183069   0.096   9.174  14.170  0.0035 -0.0607 -0.0746
41535OCT     C283070   0.037   8.710  14.306  0.1578 -0.0281  0.2466
41536OCT     C183071   3.384   1.845  11.394  0.2226  0.0393  0.3600
41536OCT     C283072   3.238   2.127  11.083 -0.4105  0.1964  0.2917
41537OCT     C183073   1.801  10.917  17.130  0.0812 -0.2021  0.0311
41537OCT     C283074   1.520  10.551  17.150  0.0342  0.3775  0.0101
41538OCT     C183075  14.462  14.905  12.567 -0.1192 -0.0542  0.1747
41538OCT     C283076  14.056  14.867  12.282 -0.0803  0.0900 -0.3521
41539OCT     C183077  22.333  23.102  20.180  0.5461  0.0461  0.3004
41539OCT     C283078  22.164  23.523  19.984 -0.5501  0.0898 -0.1043
41540OCT     C183079  14.076  21.881   4.967  0.2206 -0.1054  0.1387
41540OCT     C283080  14.257  21.968   5.353  0.1336  0.1373  0.0657
41541OCT     C183081   0.508   6.177   5.559 -0.1004  0.0824 -0.2187
41541OCT     C283082   0.799   6.424   5.860 -0.0527 -0.2044  0.0513
41542OCT     C183083  21.810  15.162   4.961 -0.0504  0.1743 -0.1859
41542OCT     C283084  22.128  14.881   4.837  0.1450 -0.0417  0.1922
41543OCT     C183085  10.600   6.948  12.831  0.2464 -0.0077  0.0338
41543OCT     C283086  10.888   7.234  13.039 -0.0910 -0.4130  0.1531
41544OCT     C183087   5.895  19.815   8.190  0.4364 -0.2079  0.0216
41544OCT     C283088   5.535  20.182   8.104  0.1673  0.1506  0.1090
41545OCT     C183089  17.092  16.585   0.971 -0.0598 -0.0441  0.0147
41545OCT     C283090  17.425  16.310   0.814  0.0888  0.1831  0.2741
41546OCT     C183091   5.121   6.606   0.408 -0.2365  0.0490 -0.1370
41546OCT     C283092   5.313   6.806   0.804 -0.3744  0.2020 -0.1453
41547OCT     C183093  19.711   0.674  10.396 -0.0021  0.1898  0.3418
41547OCT     C283094  20.108   0.887  10.389  0.1538 -0.1084  0.0797
41548OCT     C183095  15.885  10.251  12.126 -0.3356  0.2417  0.2895
41548OCT     C283096  15.660  10.034  11.773  0.1688 -0.1649  0.1718
41549OCT     C183097  16.179   0.400  14.524  0.1405  0.0700 -0.4979
41549OCT     C283098  16.464   0.791  14.468  0.1485  0.1996 -0.2044
41550OCT     C183099   9.137  19.742  14.907 -0.1602  0.2696  0.1179
41550OCT     C283100   9.386  19.421  14.690 -0.3443  0.3842 -0.2153
41551OCT     C183101   6.758  18.074  21.990  0.2338 -0.1964  0.2498
41551OCT     C283102   6.540  17.797  22.275 -0.1947  0.0598  0.1723
41552OCT     C183103   9.439   1.755  16.638 -0.1031  0.1592 -0.0174
41552OCT     C283104   9.922   1.857  16.732  0.0012 -0.1972 -0.3966
41553OCT     C183105  15.287   9.677  11.740  0.3697  0.2996 -0.2146
41553OCT     C283106  15.292   9.855  12.212 -0.0207 -0.1119 -0.0988
41554OCT     C183107  11.049  22.225   0.269  0.0456  0.2761 -0.1987
41554OCT     C283108  10.960  22.684   0.186  0.1793  0.0684 -0.3859
41555OCT     C183109  10.953   3.924  15.625 -0.4456 -0.0369 -0.0773
41555OCT     C283110  10.834   4.209  15.366 -0.0038 -0.2245  0.3032
41556OCT     C183111   3.881   5.721   1.287  0.0997 -0.0054 -0.4558
41556OCT     C283112   3.946   5.727   0.861 -0.1353 -0.2280  0.0353
41557OCT     C183113  13.844  16.485  10.487  0.0674  0.1013  0.0319
41557OCT     C283114  13.471  16.156  10.599  0.2714  0.0257 -0.1373
41558OCT     C183115   2.456  22.297  12.233  0.2536 -0.1794  0.0431
41558OCT     C283116   2.668  22.629  12.489  0.0471 -0.0198 -0.3036
41559OCT     C183117  14.809  12.120  13.004  0.3073  0.0763  0.3518
41559OCT     C283118  15.244  12.174  12.937 -0.0849 -0.0575  0.2524
41560OCT     C183119   3.460  18.687  21.085 -0.0946 -0.1108  0.1415
41560OCT     C283120   3.187  18.859  21.399 -0.3150  0.1420  0.0232
41561OCT     C183121   3.264   3.943   5.931 -0.2495 -0.1349  0.1563
41561OCT     C283122   2.925   3.850   5.637 -0.1162 -0.0647 -0.1905
41562OCT     C183123  14.972  12.603  14.570 -0.0823  0.3159  0.0614
41562OCT     C283124  14.656  12.746  14.230  0.1453  0.0333 -0.1402
41563OCT     C183125  21.832  15.165  21.348 -0.2639 -0.0338  0.1575
41563OCT     C283126  21.876  15.187  20.863 -0.0659  0.1341 -0.1901
41564OCT     C183127  21.441  13.658  14.128  0.0559  0.0593 -0.2016
41564OCT     C283128  21.730  14.025  14.329  0.5941 -0.0732  0.3290
41565OCT     C183129  22.348  11.463  19.558 -0.0742  0.1803  0.1914
41565OCT     C283130  22.673  11.137  19.353  0.1864 -0.1419 -0.3224
41566OCT     C183131   3.356  17.425   0.485  0.0172  0.3199 -0.4454
41566OCT     C283132   3.444  16.996   0.808 -0.1951 -0.1190 -0.0869
41567OCT     C183133  16.765   1.201  23.055  0.0805 -0.0214 -0.1301
41567OCT     C283134  17.085   0.890  23.193 -0.0303  0.0098  0.0583
41568OCT     C183135  10.995   8.600   2.866 -0.2489 -0.0994 -0.0945
41568OCT     C283136  11.366   8.740   2.571 -0.1490  0.2820 -0.2323
41569OCT     C183137  12.978  10.192  17.534 -0.0514  0.2614  0.1327
41569OCT     C283138  13.264  10.523  17.629  0.0143  0.5317  0.2088
41570OCT     C183139  20.847   7.601  17.031  0.1692  0.2676  0.1426
41570OCT     C283140  21.016   7.408  16.635  0.1082  0.0559 -0.1052
41571OCT     C183141  23.054  14.997  16.956  0.2984  0.3267 -0.1905
41571OCT     C283142  22.941  14.735  16.623  0.2438  0.2065 -0.1070
41572OCT     C183143  17.123   0.579   3.656  0.0858  0.1013 -0.2929
41572OCT     C283144  16.714   0.526   3.845  0.0064 -0.1286 -0.2412
41573OCT     C183145   1.865  18.505   5.197  0.0498  0.1387 -0.1582
41573OCT     C283146   2.146  18.747   4.906 -0.3505 -0.0591 -0.0784
41574OCT     C183147  23.494   4.229   8.141  0.0743 -0.0336  0.3228
41574OCT     C283148  23.426   4.157   7.685 -0.0504  0.2677  0.3561
41575OCT     C183149   5.740   7.730  19.842 -0.1425 -0.0495 -0.1300
41575OCT     C283150   6.167   7.775  19.951  0.0994 -0.1796  0.0381
41576OCT     C183151  18.875  11.224   5.522  0.1264 -0.1542  0.1520
41576OCT     C283152  19.097  10.841   5.643  0.0559 -0.0716 -0.4557
41577OCT     C183153  21.753  20.058   4.010 -0.5590 -0.1299  0.3398
41577OCT     C283154  21.899  19.684   4.312  0.2623 -0.0734  0.0203
41578OCT     C183155  14.367  17.344   3.217 -0.1315 -0.1126 -0.2276
41578OCT     C283156  14.504  16.963   2.944  0.0083  0.1882  0.0388
41579OCT     C183157   9.118  18.126  13.329 -0.0624 -0.1029 -0.0464
41579OCT     C283158   9.460  18.113  13.565  0.1666 -0.0035  0.0035
41580OCT     C183159  14.711   8.571  12.097 -0.1201  0.3083  0.3622
41580OCT     C283160  14.341   8.574  11.801  0.1291  0.1850 -0.1383
41581OCT     C183161   3.180  19.048  13.402  0.1613  0.0342  0.1450
41581OCT     C283162   3.408  19.230  13.712  0.0845 -0.1423  0.0476
41582OCT     C183163   0.457  19.792  12.430  0.0152  0.1640 -0.1648
41582OCT     C283164   0.316  19.418  12.258 -0.1016  0.1651 -0.1555
41583OCT     C183165   3.337  15.781  22.093  0.0685 -0.2620  0.0618
41583OCT     C283166   3.755  15.978  22.099  0.0722 -0.0834  0.3709
41584OCT     C183167   2.929   2.891  10.518 -0.2220  0.2969  0.1071
41584OCT     C283168   3.346   2.844  10.530 -0.0618 -0.1001  0.1800
41585OCT     C183169   6.539   9.224  12.337 -0.0485 -0.1165  0.1579
41585OCT     C283170   6.567   8.897  12.566 -0.0155  0.2523 -0.1542
41586OCT     C183171  20.830  13.686   5.177  0.1953  0.2909  0.1496
41586OCT     C283172  21.239  13.500   5.249  0.2379 -0.2795  0.0506
41587OCT     C183173  17.231  14.104   1.012 -0.0124 -0.0230 -0.3280
41587OCT     C283174  17.686  14.125   1.216  0.3588  0.1287 -0.0232
41588OCT     C183175  21.753   8.799  18.363 -0.0882  0.2597 -0.0159
41588OCT     C283176  22.000   9.144  18.520  0.0107 -0.3382 -0.1346
41589OCT     C183177   3.047   0.232  18.588 -0.1113 -0.6030  0.2710
41589OCT     C283178   2.797   0.323  19.016 -0.0209 -0.0010 -0.1309
41590OCT     C183179  20.760  15.502  18.112 -0.1867 -0.1977  0.0882
41590OCT     C283180  21.129  15.715  18.377 -0.0412 -0.3724 -0.2151
41591OCT     C183181   9.347  22.980  21.346 -0.0003 -0.3119 -0.0585
41591OCT     C283182   9.800  22.836  21.151  0.0878 -0.0555 -0.0583
41592OCT     C183183  17.372  15.423  13.788 -0.0445  0.0095 -0.4101
41592OCT     C283184  17.627  15.811  13.649 -0.0514  0.3263 -0.1109
41593OCT     C183185   3.698  19.523   7.773 -0.0037  0.2774 -0.1595
41593OCT     C283186   3.515  19.474   8.209 -0.0423  0.3961 -0.1569
41594OCT     C183187  16.562  10.921  18.590 -0.0037  0.0936  0.1138
41594OCT     C283188  16.775  11.166  18.946  0.2518  0.0970 -0.1726
41595OCT     C183189  10.830  23.700  22.092 -0.1771  0.1092  0.0454
41595OCT     C283190  10.878   0.325  22.310  0.0172 -0.2279 -0.1534
41596OCT     C183191  12.716   7.339  14.812  0.0391 -0.1345  0.1486
41596OCT     C283192  13.153   7.562  14.798  0.1988 -0.0311  0.0296
41597OCT     C183193  16.782   1.759  15.561  0.0323 -0.0176 -0.1434
41597OCT     C283194  16.444   1.454  15.409 -0.0258  0.0134 -0.2340
41598OCT     C183195  19.741  21.747  16.837 -0.0687 -0.1129  0.1522
41598OCT     C283196  19.308  21.682  16.898  0.3251 -0.1151 -0.3884
41599OCT     C183197   6.331   3.629   0.673 -0.0563 -0.1603 -0.1497
41599OCT     C283198   5.981   3.942   0.582 -0.2395  0.3021 -0.0798
41600OCT     C183199  13.249   7.789   9.845 -0.0736 -0.2235 -0.3248
41600OCT     C283200  12.820   7.759   9.821 -0.1112  0.0935 -0.2503
41601OCT     C183201  13.918  20.553   5.909 -0.0334  0.4070  0.0572
41601OCT     C283202  14.265  20.302   6.011  0.0058  0.0998  0.0570
41602OCT     C183203   8.439   1.158  13.112  0.2740 -0.0380  0.0468
41602OCT     C283204   8.645   0.824  12.867 -0.3200  0.1245 -0.0269
41603OCT     C183205  16.437   3.888   7.529 -0.1327  0.1371 -0.3009
41603OCT     C283206  16.412   4.098   7.086 -0.0702  0.1979  0.0992
41604OCT     C183207   6.263  10.527  21.586  0.2587  0.3002  0.2600
41604OCT     C283208   6.059  10.894  21.447 -0.0485 -0.1890 -0.1287
41605OCT     C183209  23.406   5.229   4.530  0.0595 -0.0134  0.2877
41605OCT     C283210  23.645   5.159   4.919 -0.2437  0.1812 -0.1678
41606OCT     C183211  16.889   2.663  14.937 -0.0375  0.0053  0.1641
41606OCT     C283212  16.920   2.956  15.291  0.2478  0.1957 -0.4073
41607OCT     C183213   4.002  14.267  16.803 -0.1618  0.0933 -0.3598
41607OCT     C283214   4.268  13.946  16.602  0.0094 -0.0631 -0.0405
41608OCT     C183215  10.711   3.333   3.990 -0.0856 -0.1941  0.0637
41608OCT     C283216  11.053   3.226   3.714  0.0272  0.1633  0.0779
41609OCT     C183217  21.410  20.103  13.962  0.3804  0.0452  0.1095
41609OCT     C283218  21.240  19.695  14.017 -0.0011  0.3714 -0.1483
41610OCT     C183219   8.477  13.282  10.704 -0.0148 -0.1714 -0.0501
41610OCT     C283220   8.789  13.445  11.028 -0.0708 -0.4096 -0.1021
41611OCT     C183221  11.343   2.166  22.693  0.3522  0.1780 -0.0517
41611OCT     C283222  11.488   2.605  22.577  0.1565 -0.2504 -0.2104
41612OCT     C183223   5.317   0.767   4.763  0.0861 -0.1637 -0.1732
41612OCT     C283224   5.104   0.417   4.555  0.0026 -0.2155 -0.2024
41613OCT     C183225   7.245   8.980   2.116 -0.3276 -0.2173 -0.1343
41613OCT     C283226   6.860   9.190   2.373  0.0538 -0.1141 -0.0838
41614OCT     C183227  14.810  20.234   9.890  0.0280 -0.0509  0.0580
41614OCT     C283228  14.405  20.112   9.774 -0.0778  0.3091 -0.1286
41615OCT     C183229  17.621  10.227   8.234 -0.1515 -0.0953 -0.2298
41615OCT     C283230  17.601   9.819   8.133  0.1624 -0.3710 -0.1479
41616OCT     C183231   7.609  23.620  18.244 -0.0876  0.1232 -0.1721
41616OCT     C283232   7.707  23.210  17.956 -0.2958 -0.2291 -0.5760
41617OCT     C183233  10.595   3.317   3.430 -0.1459 -0.1171  0.0893
41617OCT     C283234  10.294   3.607   3.202  0.3998 -0.1273  0.1234
41618OCT     C183235   8.493  18.724   6.964  0.0304 -0.1583  0.1096
41618OCT     C283236   8.733  19.069   6.804  0.0813 -0.1372 -0.3941
41619OCT     C183237  17.710   1.546   6.052  0.1664  0.1602  0.1481
41619OCT     C283238  17.663   1.209   6.386 -0.2469 -0.0199  0.0285
41620OCT     C183239  21.614  19.901  12.438 -0.0770 -0.3654  0.0967
41620OCT     C283240  21.994  19.801  12.756  0.0743  0.2031  0.0064
41621OCT     C183241  13.758   4.149   6.960 -0.4592  0.2244  0.0722
41621OCT     C283242  14.023   3.931   6.509  0.2171 -0.0678  0.0907
41622OCT     C183243  20.589  20.654  18.735 -0.2186 -0.0986 -0.0495
41622OCT     C283244  21.021  20.782  18.548  0.0602  0.1986 -0.1836
41623OCT     C183245   4.175   9.339  12.487  0.0327  0.1119  0.1260
41623OCT     C283246   4.342   8.964  12.703  0.0055 -0.1371 -0.0833
41624OCT     C183247   9.335   3.269  20.215 -0.1168  0.1125 -0.0468
41624OCT     C283248   9.090   3.650  20.083  0.1144  0.0876  0.2061
41625OCT     C183249   1.938  13.363   4.076 -0.0941 -0.3477 -0.0767
41625OCT     C283250   1.699  13.456   3.696 -0.2820 -0.1943  0.2447
41626OCT     C183251  10.586   5.402   0.570 -0.0831 -0.2908  0.0736
41626OCT     C283252  10.318   5.200   0.809  0.1266  0.1037 -0.0143
41627OCT     C183253   7.316  18.389   3.596 -0.2610  0.0586 -0.1025
41627OCT     C283254   7.054  18.038   3.749  0.1562 -0.1747 -0.1281
41628OCT     C183255  17.301  23.467  18.425  0.0804 -0.1592 -0.3659
41628OCT     C283256  17.153   0.063  18.147 -0.1668  0.3994  0.1702
41629OCT     C183257  16.259   1.975   0.246 -0.0482 -0.1585 -0.2977
41629OCT     C283258  16.326   2.187   0.638  0.1770  0.0944  0.1595
41630OCT     C183259  22.412  20.268   2.823  0.0861 -0.1869  0.0647
41630OCT     C283260  22.194  20.372   3.229  0.0120  0.1391 -0.2741
41631OCT     C183261   5.954  18.852   6.784  0.0731 -0.0399 -0.0988
41631OCT     C283262   5.640  19.041   7.054 -0.0840 -0.2114  0.4187
41632OCT     C183263  11.573  20.058   5.278 -0.0583  0.1327 -0.0322
41632OCT     C283264  11.423  20.493   5.267  0.0420 -0.1818  0.2831
41633OCT     C183265  21.402   6.310   7.887 -0.0376  0.1076 -0.0091
41633OCT     C283266  21.390   6.311   7.452 -0.0796  0.1037 -0.0740
41634OCT     C183267  19.916   1.243  12.949  0.0622 -0.3136  0.4309
41634OCT     C283268  19.928   0.916  12.580 -0.4113  0.0234  0.0914
41635OCT     C183269   2.935  19.907  17.496 -0.0038 -0.0193 -0.0945
41635OCT     C283270   2.563  19.766  17.173  0.2873  0.0350 -0.2515
41636OCT     C183271   3.989  16.592   8.688  0.0087 -0.0317  0.0184
41636OCT     C283272   4.214  16.824   8.458  0.0900 -0.0327 -0.0215
41637OCT     C183273  22.666   7.889   5.023  0.1745 -0.4844 -0.0166
41637OCT     C283274  23.168   7.746   5.017 -0.2591 -0.3611  0.0080
41638OCT     C183275  18.076   0.021  13.149 -0.2539  0.0117 -0.3913
41638OCT     C283276  17.819   0.397  13.222 -0.1322  0.1508  0.1706
41639OCT     C183277  12.329  16.335  17.955  0.1606 -0.0199  0.2106
41639OCT     C283278  12.167  16.570  18.306  0.0155 -0.2196  0.1824
41640OCT     C183279   6.476   7.872   7.917  0.2654 -0.1360 -0.1485
41640OCT     C283280   6.110   7.994   7.562  0.1524 -0.2759  0.0616
41641OCT     C183281   5.113   7.267  23.375  0.1183 -0.1113 -0.0106
41641OCT     C283282   5.379   7.389  22.979 -0.2085  0.0214  0.1620
41642OCT     C183283  22.744  19.734  11.127  0.1063  0.1751 -0.1065
41642OCT     C283284  22.528  20.172  11.075  0.0730 -0.0014 -0.0024
41643OCT     C183285  14.389   2.186  13.665 -0.1272  0.0167 -0.0262
41643OCT     C283286  14.267   1.830  13.831 -0.1511 -0.0042  0.1161
41644OCT     C183287  19.294  21.019  17.526  0.3736  0.2469 -0.0991
41644OCT     C283288  19.146  21.419  17.340  0.2143 -0.0630 -0.2791
41645OCT     C183289  15.763  13.042  13.626  0.0949 -0.1297  0.1441
41645OCT     C283290  15.426  13.340  13.719  0.2293  0.2544 -0.0384
41646OCT     C183291  20.075   2.385  12.101  0.0347 -0.6016  0.0829
41646OCT     C283292  20.327   2.614  12.425 -0.0556  0.1696 -0.1336
41647OCT     C183293   4.391  12.593   8.704 -0.2128 -0.1899  0.0904
41647OCT     C283294   4.286  12.985   8.473  0.0174  0.1732  0.1623
41648OCT     C183295  13.354   3.118   2.610  0.0930 -0.1095 -0.0755
41648OCT     C283296  13.507   2.988   3.032 -0.0676  0.0898  0.0423
41649OCT     C183297   0.857   3.283   7.232  0.3922 -0.1472 -0.0452
41649OCT     C283298   1.127   3.545   7.514 -0.0589 -0.1866  0.0170
41650OCT     C183299  16.725   3.119   6.404  0.1794  0.1215 -0.0011
41650OCT     C283300  16.872   3.267   6.817  0.0041 -0.0153 -0.1544
41651OCT     C183301   3.673   7.872  20.431  0.0141  0.0619  0.1322
41651OCT     C283302   3.588   7.687  20.042  0.3351 -0.0977  0.0481
41652OCT     C183303  11.803  17.152  11.981  0.1460 -0.2695 -0.1367
41652OCT     C283304  11.741  17.337  12.409 -0.1741  0.0383 -0.0124
41653OCT     C183305  16.798  21.099  22.932 -0.2211  0.1580 -0.2055
41653OCT     C283306  16.629  21.518  22.901  0.1630 -0.4865 -0.1476
41654OCT     C183307  12.846   2.938  15.058 -0.0928  0.0847  0.3720
41654OCT     C283308  12.870   3.257  14.711  0.1301 -0.2995 -0.2187
41655OCT     C183309  14.625  17.537  17.347  0.5318 -0.0000 -0.0982
41655OCT     C283310  14.992  17.357  17.591 -0.0062 -0.2741 -0.4772
41656OCT     C183311   4.433   9.629   4.209  0.2396 -0.0835  0.4620
41656OCT     C283312   4.118   9.322   4.260  0.5570 -0.0535 -0.1807
41657OCT     C183313   9.160   1.428   5.786 -0.1293  0.2172  0.0480
41657OCT     C283314   8.724   1.411   5.596  0.1478 -0.0751 -0.2542
41658OCT     C183315  16.967  14.634  12.850  0.1334 -0.0326 -0.1635
41658OCT     C283316  17.138  15.082  12.771  0.3196 -0.2277  0.0483
41659OCT     C183317   8.185   3.808  11.468 -0.0448  0.5198  0.2166
41659OCT     C283318   7.872   3.726  11.779  0.3685 -0.0172  0.2598
41660OCT     C183319   4.350   1.404   2.871  0.0413 -0.1377 -0.3675
41660OCT     C283320   4.627   1.026   2.965 -0.0756 -0.0467  0.0353
41661OCT     C183321  16.783   4.099   2.709  0.4354 -0.0930 -0.2633
41661OCT     C283322  16.632   4.487   2.423 -0.0109 -0.1166 -0.1514
41662OCT     C183323  18.076   3.365  11.481 -0.4004 -0.3720  0.1109
41662OCT     C283324  18.027   3.821  11.567  0.1295  0.0476  0.1220
41663OCT     C183325  12.928  13.818  13.156 -0.0495  0.1407  0.3678
41663OCT     C283326  13.244  14.184  13.142 -0.1948  0.4120 -0.3188
41664OCT     C183327  13.400   4.045  13.216 -0.5569  0.1326  0.0439
41664OCT     C283328  13.293   4.447  13.122  0.0796  0.0221  0.1823
41665OCT     C183329   6.580   2.168  18.046 -0.1291 -0.0473  0.0489
41665OCT     C283330   6.222   2.140  17.760  0.1299 -0.2046  0.0207
41666OCT     C183331   3.734  23.415  19.854 -0.0980  0.0670  0.1532
41666OCT     C283332   3.810  22.983  19.593  0.0089  0.2597 -0.3010
41667OCT     C183333   4.437  12.541  13.439  0.0546 -0.0717  0.2054
41667OCT     C283334   4.539  12.976  13.600  0.0423 -0.0047 -0.3750
41668OCT     C183335   4.727  10.323  15.099  0.0565 -0.2589  0.1189
41668OCT     C283336   5.013  10.676  15.011 -0.0799  0.0240 -0.0560
41669OCT     C183337  17.836  19.332  18.075  0.0654 -0.1585  0.4174
41669OCT     C283338  17.673  19.238  17.616 -0.0500 -0.3306  0.1846
41670OCT     C183339   5.446  15.557  19.432  0.3033  0.2059  0.2328
41670OCT     C283340   5.134  15.844  19.431  0.1835  0.0524 -0.1227
41671OCT     C183341  17.622  19.269  15.954  0.1237  0.0041 -0.0740
41671OCT     C283342  17.718  19.605  15.685 -0.1144  0.2105 -0.1971
41672OCT     C183343  16.732   2.919   7.160  0.1485 -0.3719 -0.1842
41672OCT     C283344  16.636   2.676   7.567 -0.4182  0.0111 -0.3244
41673OCT     C183345  17.807  16.531   6.363 -0.0598  0.0405  0.2318
41673OCT     C283346  17.826  16.979   6.104  0.3216  0.1366 -0.0165
41674OCT     C183347   3.445  12.446   8.884  0.0298  0.2450 -0.0453
41674OCT     C283348   3.483  12.210   8.539 -0.4408 -0.3512  0.3343
41675OCT     C183349   6.190  15.679   8.896  0.0222 -0.3031  0.1078
41675OCT     C283350   6.441  15.605   8.515 -0.0134 -0.3539 -0.4461
41676OCT     C183351  11.390   3.454   7.333 -0.0497  0.1512 -0.0677
41676OCT     C283352  11.661   3.803   7.263 -0.1283 -0.2262  0.0623
41677OCT     C183353   5.323  11.794  17.556 -0.1961 -0.1316 -0.1447
41677OCT     C283354   5.484  11.777  18.015  0.2182 -0.1475 -0.0165
41678OCT     C183355  17.912  10.714  16.257 -0.0950  0.0265 -0.1850
41678OCT     C283356  17.686  10.332  16.062  0.3865 -0.0495 -0.2019
41679OCT     C183357  12.894   7.519  10.941  0.1407 -0.1066  0.2673
41679OCT     C283358  12.901   7.697  11.413 -0.2853 -0.2812 -0.0113
41680OCT     C183359   0.196   4.833   2.132  0.1071 -0.2224 -0.2749
41680OCT     C283360  23.712   5.190   2.313 -0.1062 -0.3185  0.0746
41681OCT     C183361  15.933   4.781   5.881 -0.3098  0.3323 -0.1716
41681OCT     C283362  16.098   5.154   6.113 -0.2678 -0.6867 -0.0529
41682OCT     C183363  12.647   9.254   6.828 -0.0802  0.0546  0.1109
41682OCT     C283364  12.265   9.304   6.560  0.1974 -0.2966  0.5778
41683OCT     C183365   9.502  21.754  12.158 -0.1119  0.0740  0.1719
41683OCT     C283366   9.650  21.706  12.598  0.2369 -0.2468 -0.2989
41684OCT     C183367  20.179  20.724  15.926  0.0289 -0.1165  0.0255
41684OCT     C283368  19.989  20.289  15.937 -0.0445  0.3360  0.0198
41685OCT     C183369  22.968  19.410  11.532  0.0515 -0.0798 -0.0905
41685OCT     C283370  23.413  19.418  11.371 -0.1474 -0.1673  0.0766
41686OCT     C183371   7.182  23.020   2.196 -0.0527  0.0422  0.2412
41686OCT     C283372   7.269  23.275   2.585  0.1290 -0.1445 -0.5208
41687OCT     C183373   9.901  15.749  21.966 -0.0753 -0.1964 -0.1010
41687OCT     C283374   9.874  16.213  22.017  0.3861  0.0105  0.1268
41688OCT     C183375  21.049  12.032  23.558  0.1479 -0.0331  0.0446
41688OCT     C283376  20.693  12.131   0.097  0.2312 -0.0393 -0.0230
41689OCT     C183377   2.235  13.871   4.336  0.0471  0.1106  0.0940
41689OCT     C283378   2.535  13.711   4.044  0.4722 -0.1371  0.2677
41690OCT     C183379   5.525  22.991  23.183 -0.1634  0.1195 -0.2131
41690OCT     C283380   5.114  23.176  23.372  0.0948  0.2292  0.2373
41691OCT     C183381  18.406  19.782   3.789  0.3515  0.1335 -0.0074
41691OCT     C283382  18.355  19.413   4.069  0.0783  0.2759 -0.1573
41692OCT     C183383  12.508  17.532  18.340 -0.1720 -0.0732 -0.0335
41692OCT     C283384  12.688  17.450  18.753  0.0246 -0.2113 -0.0780
41693OCT     C183385  19.468   6.731   2.923  0.0342 -0.0375  0.0148
41693OCT     C283386  19.324   7.173   3.018  0.3989 -0.0821  0.3319
41694OCT     C183387   3.846  23.352  19.089  0.2647  0.3034 -0.0701
41694OCT     C283388   4.117  22.986  18.980  0.0509 -0.0336 -0.2749
41695OCT     C183389   5.671  17.575  23.148 -0.0511  0.0609  0.1417
41695OCT     C283390   5.869  17.542  23.601 -0.2570 -0.0653 -0.0432
41696OCT     C183391   5.587   9.680   8.560  0.1266 -0.2865 -0.0277
41696OCT     C283392   5.655   9.543   8.973  0.2289  0.3735 -0.1499
41697OCT     C183393  11.445  20.154  14.809  0.2335 -0.2055  0.0482
41697OCT     C283394  11.581  20.342  14.384 -0.0865  0.1400  0.4509
41698OCT     C183395  20.698  19.958   7.400 -0.0268 -0.4379  0.1202
41698OCT     C283396  20.330  19.875   7.678 -0.0028 -0.0746 -0.2148
41699OCT     C183397  16.716  16.350   4.664 -0.1101 -0.1153 -0.1010
41699OCT     C283398  17.126  16.181   4.652 -0.1778  0.2753 -0.0099
41700OCT     C183399  19.345   0.684   3.463 -0.2372 -0.1670 -0.4578
41700OCT     C283400  19.392   0.257   3.203 -0.0000  0.0636  0.1744
41701OCT     C183401   1.554   9.114  11.226  0.3218  0.2697  0.0039
41701OCT     C283402   1.341   8.893  10.816  0.3009 -0.0058 -0.0456
41702OCT     C183403  17.041   6.238  10.101  0.0981 -0.1002  0.2040
41702OCT     C283404  16.600   6.314  10.015 -0.0910  0.2195 -0.0651
41703OCT     C183405   7.006   4.734  23.338  0.0417 -0.0247  0.0754
41703OCT     C283406   6.731   5.179  23.404  0.0726  0.2938 -0.2012
41704OCT     C183407   8.482  20.460  13.747 -0.2751  0.0324 -0.3866
41704OCT     C283408   8.576  20.536  13.320  0.1226 -0.1890  0.2122
41705OCT     C183409  21.919  22.952  13.397  0.1291  0.0473 -0.1101
41705OCT     C283410  21.894  23.049  13.828 -0.0434  0.1145 -0.2869
41706OCT     C183411  14.147  18.239   5.557 -0.0350 -0.1779  0.0377
41706OCT     C283412  13.726  18.057   5.665 -0.2576  0.0426  0.2621
41707OCT     C183413  17.369   2.364   9.821 -0.3983  0.0387 -0.0966
41707OCT     C283414  17.783   2.269  10.116  0.2663 -0.2014  0.2514
41708OCT     C183415   3.805   9.014  12.658 -0.3199  0.2855  0.3196
41708OCT     C283416   3.919   8.786  13.084 -0.1229  0.2827 -0.1431
41709OCT     C183417  12.111  16.727  18.822  0.2457  0.0508 -0.1341
41709OCT     C283418  12.297  17.114  19.041 -0.0004 -0.0359 -0.0893
41710OCT     C183419   8.831   1.900  19.856  0.2740  0.2219  0.1980
41710OCT     C283420   9.152   1.673  19.623  0.1048  0.0674  0.1360
41711OCT     C183421  21.282  19.477  13.343 -0.3462  0.1195  0.3444
41711OCT     C283422  21.094  19.304  12.967 -0.3826  0.1088 -0.2319
41712OCT     C183423   1.728  15.685   0.277  0.2664 -0.0552 -0.3333
41712OCT     C283424   1.461  15.903   0.655 -0.2836  0.0289 -0.1740
41713OCT     C183425   9.984  14.577   4.333 -0.1242  0.3619  0.0468
41713OCT     C283426  10.028  14.117   4.511  0.1931 -0.1526  0.1710
41714OCT     C183427   2.495  17.210  17.966 -0.0600  0.4622 -0.3505
41714OCT     C283428   2.425  16.975  17.538  0.1198 -0.1215 -0.0306
41715OCT     C183429   9.313   7.331  14.029 -0.0224  0.1500  0.2158
41715OCT     C283430   9.570   7.526  13.688 -0.1651  0.3538 -0.2904
41716OCT     C183431  16.720  10.923   8.418 -0.0122 -0.2256 -0.1524
41716OCT     C283432  16.725  10.569   8.694 -0.4192 -0.0747 -0.3998
41717OCT     C183433  19.167   3.890   1.955 -0.4706 -0.0535 -0.0082
41717OCT     C283434  19.012   3.489   1.827  0.1169  0.2037 -0.1961
41718OCT     C183435  13.078  19.217  18.388  0.1941  0.1205  0.1358
41718OCT     C283436  13.428  19.036  18.151  0.0948 -0.0757 -0.0053
41719OCT     C183437   1.739  23.442   5.220  0.0953 -0.4153 -0.0548
41719OCT     C283438   1.509   0.015   4.945 -0.0930 -0.5666  0.1911
41720OCT     C183439   3.582  18.521  13.688  0.0821  0.4075  0.0212
41720OCT     C283440   3.578  18.165  13.455  0.0175 -0.0218 -0.2005
41721OCT     C183441   3.614  16.037  23.306  0.1791 -0.0784 -0.2557
41721OCT     C283442   3.125  16.103  23.129  0.0822  0.1985 -0.1573
41722OCT     C183443  22.588  13.606  16.023  0.2160 -0.2216 -0.1574
41722OCT     C283444  22.399  13.944  16.341 -0.1139 -0.0999  0.1634
41723OCT     C183445   1.431  12.282  23.334  0.2165  0.1850  0.2721
41723OCT     C283446   1.659  12.446  22.931  0.1385  0.4048 -0.2628
41724OCT     C183447   6.276   2.418  16.932  0.1887  0.1829 -0.2697
41724OCT     C283448   6.092   2.655  17.287 -0.3473  0.0950  0.0645
41725OCT     C183449  18.015  17.542  12.603  0.2284  0.4873  0.1225
41725OCT     C283450  18.133  17.495  13.023  0.2729 -0.3057  0.0701
41726OCT     C183451   1.328  10.471  21.179 -0.0544  0.1255 -0.1034
41726OCT     C283452   1.724  10.146  21.136  0.0931 -0.2209  0.0835
41727OCT     C183453   5.921   9.216  12.216 -0.1533 -0.0575  0.3409
41727OCT     C283454   5.664   9.255  11.796 -0.1251 -0.2546  0.2606
41728OCT     C183455   5.686   1.986   1.725 -0.2795 -0.0941  0.0488
41728OCT     C283456   5.309   2.205   1.893 -0.2312  0.0548 -0.0026
41729OCT     C183457  18.054  12.367   4.217 -0.1114 -0.2650 -0.0393
41729OCT     C283458  18.364  12.044   4.294  0.1136 -0.1425  0.1447
41730OCT     C183459   4.816   9.677  22.097  0.0175 -0.0415 -0.1286
41730OCT     C283460   4.415   9.827  22.272  0.0437  0.3044  0.3841
41731OCT     C183461  18.257  13.851  16.912 -0.1603 -0.1457  0.0968
41731OCT     C283462  18.667  14.002  17.146  0.1077  0.0313  0.0765
41732OCT     C183463  12.135   7.287  23.440 -0.0350  0.0159  0.5158
41732OCT     C283464  12.241   6.834  23.348  0.0791  0.1150 -0.1797
41733OCT     C183465   7.663   0.967   1.636 -0.0836 -0.1104  0.0411
41733OCT     C283466   8.036   1.244   1.659  0.3509  0.1367 -0.2245
41734OCT     C183467   7.656   9.008  15.174  0.0238 -0.2207 -0.2363
41734OCT     C283468   7.434   8.941  15.588 -0.0788  0.2829  0.0655
41735OCT     C183469   1.134  21.391  14.450 -0.1896 -0.1043 -0.1498
41735OCT     C283470   1.447  21.521  14.741  0.0740  0.0174  0.0176
41736OCT     C183471   1.562  10.164  18.777  0.1721 -0.1696 -0.0100
41736OCT     C283472   1.294  10.334  18.391  0.0453  0.1796  0.1053
41737OCT     C183473   1.144  22.126  19.967  0.0183  0.0957  0.0107
41737OCT     C283474   0.925  21.871  20.341 -0.2689  0.0550 -0.0663
41738OCT     C183475  12.723  23.233  23.578 -0.0932  0.1383 -0.0635
41738OCT     C283476  12.969  23.654  23.619 -0.0418  0.0895  0.3514
41739OCT     C183477  13.335   1.352   3.126  0.2679 -0.0351  0.1250
41739OCT     C283478  13.577   1.750   3.076 -0.0025 -0.2590  0.3636
41740OCT     C183479  17.798  20.046  10.917 -0.1313 -0.3659  0.4009
41740OCT     C283480  17.984  19.599  10.884 -0.4298 -0.0009 -0.0193
41741OCT     C183481  17.085  10.552  22.625  0.1323  0.0077 -0.0082
41741OCT     C283482  16.828  10.549  22.252  0.1216  0.3475  0.3121
41742OCT     C183483  19.387   2.554  16.112 -0.1327  0.3536 -0.2548
41742OCT     C283484  18.993   2.336  16.120 -0.1765 -0.1951 -0.3122
41743OCT     C183485   4.602  14.852  17.946  0.0143  0.1115  0.0009
41743OCT     C283486   4.975  14.569  17.935 -0.0372 -0.2211 -0.0182
41744OCT     C183487  12.249  15.489  13.170 -0.3754  0.0841  0.2903
41744OCT     C283488  12.158  15.503  13.651  0.1583 -0.1956  0.2417
41745OCT     C183489  12.884  12.587   2.567  0.0466  0.1913  0.0140
41745OCT     C283490  12.469  12.326   2.671  0.0925 -0.1773 -0.0139
41746OCT     C183491  12.891   9.851  18.429  0.1488  0.0445 -0.0805
41746OCT     C283492  13.252   9.609  18.212  0.0578  0.2811 -0.0100
41747OCT     C183493   9.725   7.201  16.019  0.1418  0.3458  0.2470
41747OCT     C283494   9.365   7.456  16.046 -0.0107 -0.0032  0.2011
41748OCT     C183495  21.556   8.524   3.529 -0.0058 -0.3432 -0.2326
41748OCT     C283496  21.664   8.204   3.239 -0.0700 -0.2824 -0.1635
41749OCT     C183497  20.971  14.619   8.453  0.4455 -0.0739  0.0816
41749OCT     C283498  21.087  14.354   8.108 -0.1335 -0.1756 -0.0731
41750OCT     C183499  12.654  11.285   1.752  0.4578 -0.4070 -0.3940
41750OCT     C283500  12.566  10.850   1.865 -0.1174  0.1530  0.1393
41751OCT     C183501  23.093  19.477   3.575  0.2371  0.0936 -0.1325
41751OCT     C283502  22.612  19.519   3.467  0.2699  0.0075 -0.2093
41752OCT     C183503  17.254  23.431  17.179 -0.4188  0.1070 -0.1865
41752OCT     C283504  17.154  23.469  16.701  0.1243 -0.1915 -0.0438
41753OCT     C183505  21.930   1.551  10.816  0.3444  0.4389  0.1394
41753OCT     C283506  21.804   1.441  11.283 -0.1345  0.0509 -0.6990
41754OCT     C183507  15.127  21.671  12.674  0.0232  0.2431 -0.0316
41754OCT     C283508  14.668  21.506  12.686 -0.3955  0.2286 -0.0166
41755OCT     C183509   6.404   0.633  18.460  0.0491  0.2725  0.4062
41755OCT     C283510   6.703   0.259  18.432  0.3128  0.0417 -0.1458
41756OCT     C183511   4.180  23.511   5.501 -0.2001 -0.2113  0.0438
41756OCT     C283512   3.910  23.684   5.182  0.0824  0.0093 -0.1768
41757OCT     C183513   5.887   9.481  20.090  0.3722  0.2038 -0.0814
41757OCT     C283514   5.780   9.100  20.338 -0.1307 -0.1946 -0.1789
41758OCT     C183515   8.576  21.260   6.255  0.4307 -0.1189  0.0248
41758OCT     C283516   8.566  20.982   5.908  0.1154  0.3087 -0.2704
41759OCT     C183517   6.182  23.514  15.087  0.3128 -0.0961  0.0755
41759OCT     C283518   6.244   0.071  15.376  0.0527 -0.0514 -0.3593
41760OCT     C183519  16.210  20.804  19.489  0.0394  0.0802  0.0207
41760OCT     C283520  16.283  20.882  19.058  0.2316 -0.0309 -0.0936
41761OCT     C183521   7.295  19.392  20.880 -0.1608  0.3956 -0.1933
41761OCT     C283522   7.690  19.579  20.621  0.2011  0.4047  0.0382
41762OCT     C183523  17.328   5.497  20.597  0.0614 -0.2262  0.0142
41762OCT     C283524  17.369   5.100  20.823  0.1168  0.1029  0.1075
41763OCT     C183525  19.732  17.799   2.942 -0.2126 -0.4627 -0.0403
41763OCT     C283526  19.374  17.878   3.185 -0.0916  0.0584  0.1362
41764OCT     C183527  17.881  20.491   1.494  0.3127  0.2561 -0.0074
41764OCT     C283528  17.834  20.413   1.960  0.0567  0.0122  0.2120
41765OCT     C183529  14.824   3.098   2.925 -0.0783 -0.1822 -0.5114
41765OCT     C283530  14.588   2.794   2.766  0.1981 -0.1037 -0.1028
41766OCT     C183531   4.308   1.895  22.344  0.1736 -0.2204  0.1022
41766OCT     C283532   4.381   1.904  22.795 -0.2424 -0.0324 -0.0768
41767OCT     C183533   0.835  12.166   3.090  0.2571 -0.2786 -0.3163
41767OCT     C283534   0.374  12.082   3.257  0.3301  0.2489 -0.0182
41768OCT     C183535  15.539  16.079   5.938 -0.4395  0.2888 -0.1565
41768OCT     C283536  15.511  15.618   5.815  0.0868  0.0338 -0.0115
41769OCT     C183537   3.110   0.486  12.264  0.3412  0.1928  0.1560
41769OCT     C283538   3.033   0.253  11.836 -0.1870 -0.1350  0.0875
41770OCT     C183539  20.046  22.806  18.860 -0.0077 -0.2808 -0.1512
41770OCT     C283540  20.493  22.692  18.672 -0.0043 -0.0873 -0.2274
41771OCT     C183541   5.331  19.286  15.774 -0.2160 -0.2036 -0.2281
41771OCT     C283542   5.329  19.687  16.007 -0.4121 -0.0635 -0.0554
41772OCT     C183543  18.460   3.546   7.770  0.0774 -0.0264 -0.0372
41772OCT     C283544  18.849   3.780   7.882 -0.0062  0.3141 -0.1629
41773OCT     C183545  17.133  12.793  19.007 -0.4439 -0.0390  0.1693
41773OCT     C283546  17.289  12.501  19.371  0.1691 -0.4758 -0.2432
41774OCT     C183547   1.869  14.150   3.076 -0.0617  0.5002  0.0588
41774OCT     C283548   1.487  14.419   3.061 -0.1946 -0.0923 -0.3333
41775OCT     C183549  19.727  22.737  15.547 -0.0670 -0.2387  0.0684
41775OCT     C283550  19.281  22.554  15.436  0.1915  0.0067  0.0504
41776OCT     C183551  14.345  22.352  14.661 -0.1506 -0.2856  0.0902
41776OCT     C283552  13.926  22.304  14.843  0.2296 -0.0339 -0.0798
41777OCT     C183553  15.687  17.140  21.509  0.0657 -0.2685 -0.0843
41777OCT     C283554  15.889  16.778  21.798 -0.0265 -0.4076 -0.0643
41778OCT     C183555  12.981  18.938  14.585 -0.1586 -0.1518  0.0336
41778OCT     C283556  12.774  19.413  14.567 -0.0948  0.0949 -0.0437
41779OCT     C183557  10.175  15.778  12.632 -0.0788 -0.0893  0.0515
41779OCT     C283558  10.072  15.307  12.563  0.0274  0.2262 -0.0614
41780OCT     C183559   6.912  20.443   7.789  0.1773 -0.1335  0.3997
41780OCT     C283560   7.353  20.245   7.671 -0.0956 -0.2344  0.0713
41781OCT     C183561  12.981  22.485   1.094  0.0672  0.0756  0.1086
41781OCT     C283562  13.038  22.185   0.765  0.4985  0.1048  0.1526
41782OCT     C183563  23.736  10.902  22.567 -0.1912 -0.5148  0.0945
41782OCT     C283564   0.210  10.661  22.897 -0.3041 -0.2456  0.0780
41783OCT     C183565  14.147  14.603  13.692 -0.0703  0.1225 -0.0354
41783OCT     C283566  14.129  14.905  13.366 -0.3317 -0.2100  0.6138
41784OCT     C183567  10.153   9.464  12.609 -0.0907 -0.0460 -0.2939
41784OCT     C283568  10.244   9.539  12.147  0.3382 -0.1099 -0.2152
41785OCT     C183569  10.855  14.072   3.795  0.3493 -0.4290  0.1526
41785OCT     C283570  11.229  13.812   3.929 -0.1204  0.0519  0.1175
41786OCT     C183571   8.724   4.393   0.395  0.2206  0.0476  0.4076
41786OCT     C283572   8.949   4.040   0.335  0.2823  0.3069 -0.1961
41787OCT     C183573  10.687   6.605  11.288  0.0325  0.1622 -0.0629
41787OCT     C283574  11.144   6.582  11.177 -0.0976  0.1786 -0.3545
41788OCT     C183575  23.662   4.214   2.664 -0.0744 -0.1132  0.0145
41788OCT     C283576  23.359   4.311   3.031  0.0688 -0.0676 -0.1091
41789OCT     C183577  19.566  18.950   5.048 -0.2147  0.0778 -0.1306
41789OCT     C283578  19.629  19.328   5.251 -0.0300  0.0264 -0.0334
41790OCT     C183579   8.649  12.144   2.683  0.4552  0.1191 -0.0832
41790OCT     C283580   8.181  12.125   2.686  0.3402 -0.1613 -0.0664
41791OCT     C183581  15.377   9.171   1.580 -0.0394  0.1015  0.1208
41791OCT     C283582  15.209   9.588   1.520  0.2946  0.1842 -0.1236
41792OCT     C183583   0.941  16.198  12.031 -0.2082  0.1576  0.0767
41792OCT     C283584   1.252  16.361  11.730 -0.0350 -0.0480  0.2043
41793OCT     C183585  20.069  16.036  13.531  0.0826 -0.1234 -0.1591
41793OCT     C283586  19.823  15.877  13.912  0.1718 -0.2157  0.0504
41794OCT     C183587   7.920  23.649  20.344  0.0096  0.1510 -0.0491
41794OCT     C283588   7.857  23.380  20.031 -0.1852 -0.0119 -0.0818
41795OCT     C183589  21.975  15.181   9.153 -0.0975 -0.1388  0.0109
41795OCT     C283590  22.194  15.315   9.512 -0.3969  0.2134 -0.4239
41796OCT     C183591  16.437   0.518  18.376 -0.2819 -0.0639  0.3114
41796OCT     C283592  16.709   0.896  18.588  0.2757  0.2260 -0.0236
41797OCT     C183593  19.253  12.114   2.073 -0.2278 -0.3390  0.3933
41797OCT     C283594  19.413  11.761   1.834 -0.0560  0.3568 -0.0127
41798OCT     C183595  18.191   4.042  13.004 -0.2581 -0.1234 -0.1415
41798OCT     C283596  18.454   3.688  13.141 -0.2371 -0.0838  0.1701
41799OCT     C183597   1.017  11.539   2.012  0.0749  0.3398  0.1423
41799OCT     C283598   1.086  11.263   1.706 -0.0807  0.1101  0.1984
41800OCT     C183599  10.163   0.800   4.749  0.0210  0.2954 -0.0629
41800OCT     C283600  10.000   0.399   4.673  0.2050 -0.1604  0.2086
41801OCT     C183601   7.544  11.458  20.747 -0.0936  0.0554  0.2006
41801OCT     C283602   7.537  11.108  21.058 -0.2097  0.1414  0.0475
41802OCT     C183603  15.387   0.927   2.539  0.0829 -0.1803 -0.0494
41802OCT     C283604  15.385   1.086   2.971  0.2159 -0.1245  0.2516
41803OCT     C183605  13.835   8.128  10.922  0.0580 -0.0379 -0.0347
41803OCT     C283606  13.719   8.565  10.967 -0.3425 -0.0809 -0.0446
41804OCT     C183607  10.914  11.051  18.731 -0.5412  0.0948 -0.2881
41804OCT     C283608  11.079  10.968  19.141 -0.2833 -0.5985 -0.2927
41805OCT     C183609   0.760   6.711   7.635  0.0720 -0.2798 -0.2674
41805OCT     C283610   0.378   6.503   7.846  0.0046 -0.0875  0.0649
41806OCT     C183611  22.487   6.960  19.682  0.1769  0.0572 -0.3932
41806OCT     C283612  22.777   6.965  20.073 -0.4636 -0.0152  0.1665
41807OCT     C183613  23.221   6.582   7.551  0.0986 -0.2812 -0.2213
41807OCT     C283614  23.033   6.201   7.338  0.0144 -0.3270  0.0759
41808OCT     C183615   4.809   6.308  21.683  0.0216  0.0842  0.0180
41808OCT     C283616   4.854   6.038  22.013 -0.2780 -0.3363  0.1369
41809OCT     C183617   3.180  23.681   8.834  0.1200 -0.1452 -0.2877
41809OCT     C283618   3.374   0.343   8.780 -0.1142 -0.3261  0.1410
41810OCT     C183619   7.958  18.956  19.822  0.0261  0.4800 -0.3793
41810OCT     C283620   7.806  18.688  19.465 -0.1299  0.2231  0.0395
41811OCT     C183621   4.547   9.114   3.097  0.0609 -0.2613  0.0521
41811OCT     C283622   4.706   9.019   3.520  0.0290 -0.0176  0.2538
41812OCT     C183623  21.047  18.924   8.791 -0.1413 -0.1334  0.0391
41812OCT     C283624  20.733  19.240   8.596 -0.2142 -0.0809  0.0979
41813OCT     C183625  17.413  16.254  14.817  0.0267 -0.1566 -0.0470
41813OCT     C283626  17.512  16.442  15.238  0.4104  0.1424  0.2906
41814OCT     C183627  20.109   3.059  22.367 -0.1324  0.2354 -0.1263
41814OCT     C283628  20.265   2.644  22.304  0.0595 -0.1659 -0.1183
41815OCT     C183629  19.616  19.891  15.870 -0.2656  0.0888  0.1298
41815OCT     C283630  19.788  20.176  15.492 -0.0115  0.2662 -0.3398
41816OCT     C183631  23.436   9.877   0.163 -0.3615  0.1599 -0.0792
41816OCT     C283632  23.423   9.892  23.476  0.0557 -0.1735 -0.1016
41817OCT     C183633  21.537   7.018   4.982 -0.0339  0.1133 -0.1251
41817OCT     C283634  21.415   7.369   5.254  0.1321 -0.3950 -0.2052
41818OCT     C183635   5.375  14.045  13.084  0.1981  0.1159 -0.0958
41818OCT     C283636   5.183  13.804  13.439 -0.8092 -0.0232  0.1631
41819OCT     C183637  10.798   1.338   6.111 -0.2097 -0.0013  0.0593
41819OCT     C283638  10.846   0.878   6.298  0.2386  0.0046 -0.1385
41820OCT     C183639  22.607  21.812  19.993  0.2230  0.2499  0.1801
41820OCT     C283640  22.349  21.583  19.658  0.1004 -0.0970  0.1207
41821OCT     C183641  11.286   1.896  10.866 -0.2027  0.3021  0.0658
41821OCT     C283642  11.607   2.175  10.955 -0.0533 -0.0061 -0.1137
41822OCT     C183643  11.193   2.674   4.488  0.1022 -0.1239  0.0984
41822OCT     C283644  10.817   2.901   4.262  0.2763 -0.1065  0.1747
41823OCT     C183645  18.967  10.138  22.047  0.1999  0.3092 -0.4657
41823OCT     C283646  19.048  10.105  21.605 -0.1203 -0.0034 -0.1111
41824OCT     C183647  15.711  14.957   2.547  0.1601  0.1590 -0.2413
41824OCT     C283648  15.260  14.865   2.657 -0.1274 -0.2278  0.0375
41825OCT     C183649   7.952  19.827  23.707  0.1530 -0.1037 -0.1964
41825OCT     C283650   8.137  19.458  23.467 -0.0479  0.1913  0.2660
41826OCT     C183651  18.970  16.443  23.246  0.1082  0.1177  0.0604
41826OCT     C283652  18.650  16.253  23.007 -0.1613 -0.2440  0.0512
41827OCT     C183653   7.845  13.891  20.116 -0.2871 -0.1681  0.3686
41827OCT     C283654   8.318  13.916  20.200  0.4027 -0.0796  0.2114
41828OCT     C183655  19.954   4.763  21.639  0.2479  0.4698  0.0997
41828OCT     C283656  20.269   4.499  21.816  0.1913  0.2101 -0.2810
41829OCT     C183657   7.467  22.072  12.029 -0.1557  0.1635  0.0793
41829OCT     C283658   7.913  22.267  12.117 -0.0213  0.0667 -0.1181
41830OCT     C183659   7.091  12.349   6.595 -0.2168  0.0361 -0.1123
41830OCT     C283660   6.711  12.585   6.757 -0.0493  0.9516  0.1223
41831OCT     C183661   7.385  21.708  16.292  0.0160 -0.0476  0.3748
41831OCT     C283662   7.109  22.033  16.395  0.2089  0.2146 -0.1324
41832OCT     C183663   9.698   1.184   8.748  0.1751 -0.0196  0.1996
41832OCT     C283664  10.117   1.245   8.754 -0.1272 -0.3620  0.2733
41833OCT     C183665   2.901  21.084  18.761  0.0454  0.1280 -0.0344
41833OCT     C283666   3.321  21.346  18.723 -0.0154  0.0674 -0.0953
41834OCT     C183667   9.561  12.103   0.391 -0.0314 -0.2810  0.2266
41834OCT     C283668   9.141  11.912   0.277  0.1128 -0.3620 -0.0831
41835OCT     C183669  15.767  10.626   4.942 -0.0634 -0.0189  0.1598
41835OCT     C283670  16.100  10.806   5.237  0.0980  0.3883  0.5370
41836OCT     C183671   5.060   8.475  13.306  0.3109  0.1308  0.2850
41836OCT     C283672   5.166   8.793  13.673  0.4398  0.1719  0.0271
41837OCT     C183673  18.567  12.809   0.666 -0.1509 -0.2907 -0.3405
41837OCT     C283674  18.539  13.294   0.803 -0.1258  0.0272  0.4072
41838OCT     C183675  11.693  14.162   8.774  0.0940 -0.1917  0.1822
41838OCT     C283676  11.927  14.385   8.501 -0.1526  0.1278  0.4774
41839OCT     C183677  12.359   8.370   6.656  0.0462  0.0264 -0.0602
41839OCT     C283678  12.635   8.114   6.942 -0.1535 -0.4220 -0.1554
41840OCT     C183679  13.275  20.753   3.176 -0.1694  0.0057 -0.1313
41840OCT     C283680  12.844  20.867   3.002  0.4704 -0.0059  0.2053
41841OCT     C183681   8.372  17.848  17.687  0.2485 -0.2381  0.1224
41841OCT     C283682   8.522  18.324  17.662  0.1888 -0.0120  0.0218
41842OCT     C183683  11.045   1.211   4.610 -0.1134  0.0837  0.3409
41842OCT     C283684  11.197   1.159   4.231 -0.3139 -0.3930 -0.1125
41843OCT     C183685  20.644  19.014  15.601  0.2649  0.0425  0.0338
41843OCT     C283686  20.397  19.028  16.027 -0.1343 -0.0801  0.2214
41844OCT     C183687  20.503  20.900  10.933 -0.0855  0.1675  0.1245
41844OCT     C283688  20.532  21.047  10.483 -0.1683 -0.1327 -0.0488
41845OCT     C183689  19.634  23.114   5.142  0.1826 -0.3949 -0.0049
41845OCT     C283690  19.227  23.273   5.389  0.0313 -0.0770 -0.1046
41846OCT     C183691   9.341  15.621  16.260 -0.0569  0.3790 -0.1531
41846OCT     C283692   8.951  15.324  16.481 -0.0618 -0.1696  0.1318
41847OCT     C183693   4.923   2.320  13.686 -0.2422 -0.4578 -0.2769
41847OCT     C283694   5.355   2.417  13.440  0.1424 -0.3082 -0.0395
41848OCT     C183695  20.924  20.531  15.143  0.1384 -0.0880  0.4080
41848OCT     C283696  21.022  20.229  15.475  0.0275  0.1377 -0.2206
41849OCT     C183697  13.342   5.068  17.349 -0.0275  0.1910 -0.2317
41849OCT     C283698  13.387   5.169  16.891 -0.2951  0.0493 -0.3168
41850OCT     C183699   6.645  12.950   3.699  0.3465  0.1471 -0.1217
41850OCT     C283700   6.146  12.956   3.660 -0.2475 -0.2796  0.1816
41851OCT     C183701  20.997   3.161  14.415 -0.1639 -0.0637 -0.0137
41851OCT     C283702  20.564   3.372  14.484 -0.2316 -0.1962  0.3843
41852OCT     C183703  15.458   3.966  11.380 -0.0079  0.3023 -0.1984
41852OCT     C283704  15.281   3.576  11.544  0.1839 -0.4485  0.1403
41853OCT     C183705  12.073  13.746   6.724 -0.3365 -0.0384  0.0848
41853OCT     C283706  12.443  13.992   6.610  0.0894  0.2421 -0.3825
41854OCT     C183707  10.657   0.172   9.756  0.0591 -0.0166 -0.1165
41854OCT     C283708  10.936   0.127   9.352 -0.0411 -0.0934 -0.0882
41855OCT     C183709   4.190   9.194   7.282  0.1844  0.2139  0.0720
41855OCT     C283710   4.489   8.887   7.432 -0.3945  0.0078  0.0040
41856OCT     C183711  22.981   0.051  22.281  0.1019  0.1979 -0.0182
41856OCT     C283712  23.138   0.536  22.324  0.2542  0.1194  0.1856
41857OCT     C183713  16.655   8.678   8.690 -0.1553  0.0238 -0.0874
41857OCT     C283714  16.163   8.608   8.771  0.0477  0.0230  0.1862
41858OCT     C183715  11.173  21.072  19.292  0.0129  0.5393 -0.1965
41858OCT     C283716  11.364  21.108  18.881  0.2357  0.1077 -0.0718
41859OCT     C183717  21.753  20.961   8.353 -0.1578  0.3987  0.2535
41859OCT     C283718  22.213  20.638   8.286 -0.1245 -0.1934 -0.0507
41860OCT     C183719   9.563  18.348   9.051 -0.0177  0.4291  0.0162
41860OCT     C283720   9.311  18.591   9.392  0.2177  0.2282 -0.4525
41861OCT     C183721  18.393   4.990  18.494  0.0637  0.1111  0.1311
41861OCT     C283722  18.453   5.409  18.573 -0.1800  0.3071 -0.0445
41862OCT     C183723   8.985  11.062  13.201 -0.0757  0.0108 -0.1458
41862OCT     C283724   8.876  10.747  12.842 -0.1005 -0.1283  0.3059
41863OCT     C183725  21.266  13.142  18.377 -0.0144  0.0838  0.0669
41863OCT     C283726  21.269  13.085  17.928 -0.0503 -0.2231  0.4673
41864OCT     C183727   8.141  17.708   7.072 -0.0649  0.1108  0.0123
41864OCT     C283728   8.419  17.411   7.315  0.2502 -0.0760  0.3027
41865OCT     C183729  17.965  15.278  23.120 -0.2443 -0.2159 -0.1448
41865OCT     C283730  18.048  15.641  22.810 -0.2489  0.3091  0.0091
41866OCT     C183731   4.350  17.479  14.608  0.0842 -0.1467 -0.1979
41866OCT     C283732   4.250  17.014  14.503  0.1992 -0.0452  0.0722
41867OCT     C183733   5.815   1.952  12.049 -0.2322  0.2168  0.2846
41867OCT     C283734   5.721   1.665  11.770 -0.0020  0.3168 -0.1880
41868OCT     C183735   0.247   3.618   4.499  0.1732 -0.2278 -0.1610
41868OCT     C283736   0.190   3.160   4.721 -0.2396 -0.2228  0.1704
41869OCT     C183737  10.079   1.230  20.548 -0.3452  0.1850 -0.1387
41869OCT     C283738  10.373   1.541  20.745  0.1375  0.2330  0.0130
41870OCT     C183739  13.207  12.794  14.405 -0.2374  0.3536 -0.5757
41870OCT     C283740  13.238  12.776  14.856  0.2295 -0.0995 -0.0158
41871OCT     C183741   6.323   3.688  16.324 -0.0637  0.2999 -0.1586
41871OCT     C283742   6.524   3.509  15.930 -0.0137  0.2003  0.1339
41872OCT     C183743  10.726  14.755  22.466  0.2755  0.4136 -0.2411
41872OCT     C283744  10.296  14.896  22.429  0.0338 -0.0687 -0.0804
41873OCT     C183745   5.226   4.715  22.376  0.0057 -0.1125  0.1224
41873OCT     C283746   5.458   4.534  22.695  0.0724  0.0243  0.1289
41874OCT     C183747   9.069  17.510  18.127 -0.1827 -0.2175 -0.3558
41874OCT     C283748   9.340  17.638  18.490  0.3222 -0.2579 -0.1364
41875OCT     C183749  18.263  23.286  10.676 -0.4386 -0.4721 -0.3042
41875OCT     C283750  18.584  23.499  10.955  0.3520 -0.0198  0.4663
41876OCT     C183751  15.575  15.599  12.823  0.0723 -0.2979 -0.1182
41876OCT     C283752  15.174  15.379  12.946  0.2672  0.0522  0.0543
41877OCT     C183753  15.843  19.634  11.121  0.3721  0.4520 -0.1933
41877OCT     C283754  15.571  19.462  11.512  0.1511 -0.0012 -0.3830
41878OCT     C183755  18.729  19.888  16.132 -0.3506 -0.2616  0.1882
41878OCT     C283756  18.713  20.341  15.943 -0.0937  0.0276  0.0438
41879OCT     C183757  10.930  13.132  14.462 -0.0289 -0.0535  0.2259
41879OCT     C283758  10.997  13.473  14.811 -0.2254 -0.1853  0.0843
41880OCT     C183759   5.018  12.918   7.904  0.0710 -0.1550  0.0747
41880OCT     C283760   4.877  13.230   7.571  0.1157  0.0131 -0.0233
41881OCT     C183761  13.947   3.519  18.147  0.0845 -0.3784  0.0483
41881OCT     C283762  14.335   3.327  18.210  0.1462  0.1967  0.2603
41882OCT     C183763  15.283  10.038  20.108  0.2320  0.1284 -0.3094
41882OCT     C283764  15.238   9.661  19.861 -0.0238  0.1100 -0.2695
41883OCT     C183765  10.556   6.671   8.435 -0.6132  0.0312 -0.0427
41883OCT     C283766  10.590   6.488   8.065  0.3571 -0.1073 -0.1016
41884OCT     C183767   6.112  17.202   0.100 -0.1090 -0.3669  0.0102
41884OCT     C283768   6.168  17.203  23.341 -0.3600  0.2150 -0.3015
41885OCT     C183769   7.557   2.743  12.132  0.3873 -0.1214 -0.2487
41885OCT     C283770   7.610   2.360  12.457  0.0363  0.1522  0.0975
41886OCT     C183771  13.416   9.129  18.370 -0.1962  0.2283  0.1142
41886OCT     C283772  13.689   9.509  18.541  0.2006  0.0556  0.1178
41887OCT     C183773  11.403   0.267   1.360  0.2328  0.0361  0.0811
41887OCT     C283774  11.359   0.051   1.783 -0.0811  0.2429 -0.3660
41888OCT     C183775  16.256  18.777   6.209  0.1351  0.3146  0.1667
41888OCT     C283776  16.264  19.073   6.583  0.0715 -0.3517 -0.1652
41889OCT     C183777  15.879  19.425  21.083  0.1105  0.1033  0.2361
41889OCT     C283778  15.747  19.085  20.781 -0.3077  0.4647 -0.0381
41890OCT     C183779   7.706  10.559   2.098 -0.2409 -0.2579 -0.2158
41890OCT     C283780   7.868  10.262   2.451  0.3031  0.0205  0.1032
41891OCT     C183781  14.004   4.980   4.994 -0.0480  0.2161  0.0833
41891OCT     C283782  14.367   5.045   5.270 -0.2123  0.0135  0.0709
41892OCT     C183783   4.775  13.226   3.372 -0.0088 -0.0321 -0.3715
41892OCT     C283784   5.191  12.972   3.527  0.3664 -0.4367  0.1005
41893OCT     C183785   8.778   4.814  18.968 -0.3833 -0.0972 -0.0754
41893OCT     C283786   8.437   5.121  18.967  0.0585 -0.0737  0.2933
41894OCT     C183787  12.598  19.333   6.130 -0.0955 -0.0557  0.0876
41894OCT     C283788  12.288  19.215   6.439  0.2065 -0.0204  0.1777
41895OCT     C183789  21.220   0.002   4.961  0.0780 -0.0044 -0.2129
41895OCT     C283790  21.563   0.167   4.647  0.0424 -0.1100 -0.2797
41896OCT     C183791   1.117   6.931   8.892  0.2897 -0.2729 -0.2280
41896OCT     C283792   0.915   7.122   8.552 -0.4472  0.0616  0.0632
41897OCT     C183793   0.512  20.820   5.883  0.1582 -0.0869 -0.1377
41897OCT     C283794   0.903  21.045   5.901  0.2756 -0.1614 -0.1688
41898OCT     C183795  11.461  20.721  18.053 -0.0076 -0.6303  0.1573
41898OCT     C283796  11.770  20.396  17.896 -0.3467  0.0242 -0.0763
41899OCT     C183797  15.346  21.181   5.573  0.1717  0.0287 -0.3477
41899OCT     C283798  15.281  21.642   5.771 -0.1866 -0.0036  0.0982
41900OCT     C183799  17.451  10.630  17.874 -0.3212 -0.2652  0.1009
41900OCT     C283800  17.055  10.416  18.056  0.0220  0.0516  0.0317
41901OCT     C183801  19.824  12.254  14.623  0.3001  0.1123 -0.2153
41901OCT     C283802  20.001  12.654  14.854  0.2634 -0.0202 -0.2699
41902OCT     C183803  21.959  18.403  10.993  0.2092 -0.0501  0.3386
41902OCT     C283804  21.819  17.932  10.952 -0.2783 -0.1795  0.0428
41903OCT     C183805   7.466   9.846  19.540 -0.3948 -0.1785 -0.0012
41903OCT     C283806   7.283  10.183  19.801  0.0498 -0.0100 -0.2887
41904OCT     C183807  21.256   8.283  14.159 -0.0075 -0.1750 -0.2112
41904OCT     C283808  20.957   8.456  13.944 -0.0428 -0.2590 -0.2784
41905OCT     C183809  15.563   6.535   6.798  0.0629  0.0692 -0.0733
41905OCT     C283810  15.971   6.583   6.868  0.2638 -0.4566  0.3162
41906OCT     C183811   0.811  17.939   9.999  0.6770  0.0208  0.1657
41906OCT     C283812   0.485  17.946  10.368 -0.1650 -0.0012  0.0871
41907OCT     C183813   6.435   6.024  17.229  0.3498  0.1453 -0.2586
41907OCT     C283814   6.589   5.603  17.096  0.0518  0.1657  0.1235
41908OCT     C183815  14.943  20.996  18.162 -0.0275 -0.1763 -0.0780
41908OCT     C283816  15.324  21.088  17.913  0.0003 -0.1290 -0.0335
41909OCT     C183817  11.044  17.105  22.943 -0.0212 -0.0063  0.2217
41909OCT     C283818  10.662  16.888  23.118  0.1706  0.0820  0.5870
41910OCT     C183819  14.590  18.282  22.096  0.1461  0.1418 -0.1568
41910OCT     C283820  14.396  18.608  21.889 -0.3679 -0.0916 -0.1622
41911OCT     C183821   8.520  15.958  17.718 -0.0800 -0.1292 -0.0710
41911OCT     C283822   8.243  15.908  17.349  0.0842  0.1228 -0.0152
41912OCT     C183823   5.243  21.609  18.402  0.4826  0.0905 -0.0085
41912OCT     C283824   5.116  21.355  18.806  0.0900  0.1126 -0.2059
41913OCT     C183825   6.103  23.475   7.441 -0.0590 -0.1184  0.1650
41913OCT     C283826   6.514  23.630   7.517 -0.1134 -0.3327  0.1028
41914OCT     C183827   6.117   8.369   5.146  0.2458  0.2648 -0.3214
41914OCT     C283828   6.209   7.920   5.062  0.3433 -0.0189 -0.0792
41915OCT     C183829  16.895  19.327   3.514 -0.0540 -0.1562  0.4015
41915OCT     C283830  17.185  18.981   3.506 -0.1242  0.1388  0.0971
41916OCT     C183831   4.327   9.813  11.044 -0.2847 -0.0796 -0.1716
41916OCT     C283832   4.278  10.109  11.382  0.3791 -0.3852  0.1511
41917OCT     C183833   4.196   9.456  19.475  0.0195  0.1752  0.0665
41917OCT     C283834   4.047   9.210  19.103 -0.1415 -0.5257  0.0228
41918OCT     C183835  15.157   0.442   3.698 -0.2773 -0.1074  0.0917
41918OCT     C283836  15.340   0.078   3.881  0.1085 -0.2657 -0.1014
41919OCT     C183837   9.568  23.721   6.268 -0.0430  0.1323 -0.3615
41919OCT     C283838   9.757   0.408   6.420 -0.3615  0.3053 -0.1191
41920OCT     C183839  22.857   7.348   4.819  0.1797  0.0959 -0.1041
41920OCT     C283840  22.826   7.610   4.478 -0.0725  0.0021 -0.2551
41921OCT     C183841  19.875  23.712  17.958  0.5339 -0.1557  0.1787
41921OCT     C283842  20.297  23.625  18.199  0.2058 -0.3070  0.1623
41922OCT     C183843  17.273  13.139   6.451 -0.2702 -0.2415 -0.1501
41922OCT     C283844  17.680  12.892   6.497 -0.0857  0.2921 -0.0339
41923OCT     C183845  10.258   3.094  23.425 -0.3645  0.3551  0.0420
41923OCT     C283846   9.932   3.454  23.497  0.0311  0.2885 -0.2406
41924OCT     C183847  22.810  10.834  17.039 -0.0539  0.2272 -0.1781
41924OCT     C283848  22.369  10.610  17.000 -0.0165 -0.3987 -0.0816
41925OCT     C183849  20.998   1.719  21.557 -0.2065  0.2709 -0.0536
41925OCT     C283850  21.161   2.046  21.913  0.1114  0.1537  0.5099
41926OCT     C183851   2.377  18.685   6.654  0.4519 -0.0464 -0.1508
41926OCT     C283852   2.276  18.745   7.122  0.0952 -0.1138  0.0173
41927OCT     C183853   8.979  16.638  17.962 -0.2342 -0.0776  0.1356
41927OCT     C283854   8.725  16.953  18.189  0.3874 -0.0744  0.0464
41928OCT     C183855   3.826  10.574   4.213  0.1189  0.1382 -0.1385
41928OCT     C283856   3.676  10.629   3.747 -0.0141  0.0957  0.3416
41929OCT     C183857  23.350   4.428  11.916 -0.2660 -0.3825  0.0057
41929OCT     C283858  22.880   4.440  12.128  0.0303 -0.0275  0.2425
41930OCT     C183859  13.940  20.515  18.799 -0.0386  0.1851  0.2046
41930OCT     C283860  13.601  20.218  18.891  0.4165 -0.3129 -0.0992
41931OCT     C183861  14.268   1.185  10.897  0.1750 -0.1842  0.2285
41931OCT     C283862  13.875   1.229  10.637  0.0374  0.0208  0.2185
41932OCT     C183863  21.534  16.735  22.006 -0.0198  0.1174  0.2132
41932OCT     C283864  21.826  17.119  22.200  0.0528 -0.0305 -0.3605
41933OCT     C183865   9.987  16.279   8.680 -0.2968  0.0829  0.1271
41933OCT     C283866  10.093  15.859   8.546 -0.1079  0.0914  0.3320
41934OCT     C183867  13.879  16.511  17.487  0.1784 -0.2962  0.0005
41934OCT     C283868  14.038  16.592  17.012 -0.2062 -0.1085 -0.1477
41935OCT     C183869  21.862  16.239  21.860  0.1496  0.2728  0.0112
41935OCT     C283870  21.751  16.619  21.561  0.2845 -0.3585 -0.1840
41936OCT     C183871  21.970  11.023  11.516 -0.0454  0.1388  0.1261
41936OCT     C283872  22.071  11.134  11.065  0.0679  0.0482 -0.4233
41937OCT     C183873  23.027   6.160  14.030 -0.3601  0.1235  0.3643
41937OCT     C283874  23.313   6.554  14.059 -0.3784 -0.0814 -0.0549
41938OCT     C183875  19.484  14.984   5.052  0.1323  0.0923  0.0111
41938OCT     C283876  19.417  14.585   5.283  0.1062  0.3436 -0.1526
41939OCT     C183877  21.206  15.353  14.757  0.0501 -0.2535 -0.3684
41939OCT     C283878  21.540  15.260  15.094 -0.2491  0.0004  0.2020
41940OCT     C183879   2.850  17.542  23.029 -0.1259  0.2608  0.3969
41940OCT     C283880   3.157  17.216  22.783  0.0757 -0.0318  0.3376
41941OCT     C183881  22.409  22.797   2.472  0.0268 -0.1775  0.0826
41941OCT     C283882  22.114  23.143   2.531  0.0748 -0.3961  0.0966
41942OCT     C183883   3.301   4.298  20.566  0.2352  0.0864  0.1071
41942OCT     C283884   3.535   3.988  20.770  0.0349  0.0320  0.0005
41943OCT     C183885   2.833  16.388  21.415 -0.1732  0.0005 -0.1232
41943OCT     C283886   3.054  16.088  21.170  0.3578  0.0541  0.4544
41944OCT     C183887  16.645   2.750   2.333 -0.1319 -0.2320 -0.1216
41944OCT     C283888  17.064   2.578   2.270  0.4168 -0.2447 -0.1731
41945OCT     C183889  18.311  13.919   8.497 -0.0820  0.0738  0.1412
41945OCT     C283890  18.097  13.815   8.088 -0.2168  0.2385  0.1192
41946OCT     C183891  11.690  10.002  15.340  0.1997  0.1498  0.1058
41946OCT     C283892  11.392   9.849  15.691  0.2925  0.0640  0.2667
41947OCT     C183893   3.871   6.186   7.290  0.0130 -0.1608 -0.0485
41947OCT     C283894   3.986   6.564   7.534 -0.4108  0.0277  0.1327
41948OCT     C183895  17.588  12.754  16.435  0.0138  0.1322 -0.3791
41948OCT     C283896  17.823  12.807  16.897  0.0082 -0.2396  0.3528
41949OCT     C183897  22.263  19.483  13.012  0.0121  0.1597  0.0183
41949OCT     C283898  22.460  19.865  12.827  0.1644 -0.0668  0.0967
41950OCT     C183899   8.784   2.132   4.526 -0.2010 -0.1544 -0.2320
41950OCT     C283900   8.890   2.470   4.225 -0.1709  0.2602  0.0190
41951OCT     C183901   0.645   0.902  17.631 -0.2630 -0.1622 -0.3276
41951OCT     C283902   1.026   1.167  17.761 -0.0824  0.1549 -0.2717
41952OCT     C183903  21.030  17.292   6.410 -0.1222  0.1676 -0.1844
41952OCT     C283904  20.615  17.233   6.234  0.0495  0.0116  0.2773
41953OCT     C183905   4.343   7.021  12.577 -0.0983  0.2020  0.0675
41953OCT     C283906   3.836   7.035  12.547  0.0654  0.2527  0.1044
41954OCT     C183907  19.771  14.376   9.106 -0.1542  0.0744  0.1175
41954OCT     C283908  19.846  14.229   9.528 -0.0136 -0.0866  0.2578
41955OCT     C183909   4.418   7.161  11.755 -0.2033  0.0520  0.0238
41955OCT     C283910   4.285   6.687  11.711 -0.2201 -0.1763 -0.0627
41956OCT     C183911  16.646  10.986   6.773  0.1426  0.2345  0.0589
41956OCT     C283912  16.422  10.682   7.041 -0.3699  0.4100 -0.0923
41957OCT     C183913   6.453   5.846  18.868  0.3518 -0.2671  0.1468
41957OCT     C283914   6.124   6.118  18.643  0.0046  0.1301  0.1475
41958OCT     C183915   2.547   2.039  12.466  0.0453  0.1015 -0.2308
41958OCT     C283916   2.928   2.168  12.183  0.0103  0.3775 -0.0348
41959OCT     C183917   2.759  17.300  21.653  0.2497  0.0537 -0.2069
41959OCT     C283918   2.561  16.898  21.464 -0.2024  0.0341  0.1104
41960OCT     C183919  17.799  21.599  20.703  0.1716  0.2769 -0.1459
41960OCT     C283920  17.990  21.300  20.418  0.1486  0.0251 -0.0907
41961OCT     C183921  14.026  15.462   6.523  0.1627  0.2483 -0.1677
41961OCT     C283922  14.323  15.358   6.174  0.3777  0.2365 -0.3203
41962OCT     C183923   0.505  12.149  19.511 -0.3325 -0.2086 -0.2156
41962OCT     C283924   0.125  12.327  19.308  0.2068 -0.0634  0.0147
41963OCT     C183925  18.926  14.209  22.252 -0.1901 -0.0914 -0.0804
41963OCT     C283926  18.665  13.790  22.297 -0.2006 -0.0919 -0.0386
41964OCT     C183927  15.258  15.733   4.541  0.2300  0.1675 -0.0563
41964OCT     C283928  14.880  15.520   4.531 -0.1824  0.2102  0.3296
41965OCT     C183929   9.693  14.024  19.625  0.3317  0.2212  0.1930
41965OCT     C283930   9.290  14.152  19.400  0.0537  0.0157  0.1891
41966OCT     C183931   7.716  17.550  11.261  0.0580  0.0540 -0.1998
41966OCT     C283932   8.170  17.691  11.337  0.0734  0.1595 -0.1360
41967OCT     C183933  14.975   7.138  18.000 -0.6519 -0.2588  0.1263
41967OCT     C283934  14.568   7.215  18.226 -0.1563  0.1656  0.3268
41968OCT     C183935   5.374  20.337  14.362 -0.0780  0.1287  0.4474
41968OCT     C283936   4.931  20.169  14.209 -0.2242 -0.3312  0.0010
41969OCT     C183937   2.000  17.470   3.278  0.1094  0.0944 -0.1093
41969OCT     C283938   1.678  17.294   3.612  0.0471 -0.4989  0.4404
41970OCT     C183939  20.481   3.856  12.857 -0.0076  0.0145 -0.1654
41970OCT     C283940  20.811   4.163  12.676  0.3781  0.1946 -0.0708
41971OCT     C183941   7.918   5.352   9.702  0.1486  0.1857  0.0402
41971OCT     C283942   7.942   5.787   9.482  0.1197 -0.0823  0.0651
41972OCT     C183943  16.743  22.689   3.670  0.2991 -0.1890 -0.0805
41972OCT     C283944  16.976  22.336   3.724 -0.3699  0.0601 -0.0429
41973OCT     C183945  16.830  13.413  10.346  0.0942  0.1859 -0.0922
41973OCT     C283946  16.958  13.836  10.554 -0.1102 -0.1807  0.1648
41974OCT     C183947   5.913  15.396   0.060  0.0375  0.1788  0.0401
41974OCT     C283948   5.897  15.055   0.375  0.0640  0.0247 -0.0032
41975OCT     C183949  21.288   2.420  19.734  0.0875  0.1833 -0.0659
41975OCT     C283950  20.960   2.684  19.543  0.0889  0.2055 -0.0369
41976OCT     C183951  10.381  12.438  22.706  0.0591 -0.2307 -0.0846
41976OCT     C283952  10.722  12.374  22.427 -0.2454  0.1009 -0.0180
41977OCT     C183953   9.445  19.830   0.608 -0.4009  0.0380 -0.0321
41977OCT     C283954   9.522  19.827   0.168 -0.3806 -0.1434  0.2648
41978OCT     C183955  12.410  20.583  13.854 -0.1174  0.1364 -0.2778
41978OCT     C283956  12.050  20.250  13.774 -0.0775 -0.3382 -0.0599
41979OCT     C183957   7.087   3.370   8.484 -0.1590 -0.4829 -0.0089
41979OCT     C283958   7.030   2.956   8.726 -0.1952  0.0288 -0.0176
41980OCT     C183959  14.553   3.975   9.925 -0.1541 -0.1676 -0.1146
41980OCT     C283960  14.908   4.269  10.082  0.1759 -0.0079  0.0490
41981OCT     C183961   3.223   7.327  16.895  0.2153  0.1366  0.1801
41981OCT     C283962   3.528   7.335  17.266  0.5146  0.2949  0.0019
41982OCT     C183963  10.925   0.049  18.072  0.3465  0.0880  0.4290
41982OCT     C283964  10.755   0.485  18.057  0.1289 -0.4950  0.0060
41983OCT     C183965   3.112  23.444   2.518 -0.1430 -0.0388 -0.3159
41983OCT     C283966   3.235  23.130   2.853  0.1382  0.0396  0.1524
41984OCT     C183967  20.869  23.578  18.054  0.1296  0.0512 -0.0330
41984OCT     C283968  20.902  23.285  17.745  0.4054 -0.1847  0.1446
41985OCT     C183969   5.960   8.711  20.045  0.3149  0.0012  0.1695
41985OCT     C283970   6.259   9.024  19.889  0.0102  0.0696 -0.2741
41986OCT     C183971  14.087   8.382   3.994 -0.2610  0.0983 -0.0663
41986OCT     C283972  14.031   8.028   3.773  0.0783  0.1913  0.1827
41987OCT     C183973   3.379   1.400   1.481 -0.0670  0.0733  0.4223
41987OCT     C283974   3.667   1.192   1.167  0.0831 -0.1847 -0.1114
41988OCT     C183975   2.437  23.615   1.793  0.0964 -0.1795  0.1446
41988OCT     C283976   2.032  23.558   1.656  0.2912 -0.0300  0.1559
41989OCT     C183977  22.612  17.399  17.922  0.1157 -0.0947  0.0275
41989OCT     C283978  22.615  16.958  17.966 -0.0066  0.1864  0.0077
41990OCT     C183979  10.674   6.636   3.103  0.2212  0.3260  0.1619
41990OCT     C283980  10.971   6.970   3.219  0.2328 -0.0449  0.0003
41991OCT     C183981  18.682  16.677   9.667  0.1323  0.0678  0.1781
41991OCT     C283982  18.441  16.588  10.026 -0.2688 -0.2923 -0.0866
41992OCT     C183983  16.484   2.075   8.307  0.1028 -0.0141 -0.3855
41992OCT     C283984  16.227   2.444   8.325  0.3976  0.0125  0.2109
41993OCT     C183985  19.421   8.963  11.737  0.0286 -0.0642 -0.2078
41993OCT     C283986  19.649   8.788  12.097  0.3321 -0.2183  0.0811
41994OCT     C183987   8.985  19.774   5.692 -0.1028  0.0869  0.1832
41994OCT     C283988   9.383  19.679   5.811 -0.2783 -0.1341  0.1849
41995OCT     C183989   8.518   5.884  18.316 -0.1905  0.2647 -0.1194
41995OCT     C283990   8.598   5.476  18.097  0.2186 -0.0664 -0.3133
41996OCT     C183991  18.652   0.681   9.393  0.0244  0.0564  0.1006
41996OCT     C283992  18.554   0.530   9.854  0.1733 -0.3139  0.2899
41997OCT     C183993   1.116   5.672  13.773 -0.2705 -0.1197  0.3653
41997OCT     C283994   0.679   5.464  13.748  0.0586 -0.0960 -0.3488
41998OCT     C183995   9.618  18.395   9.760 -0.2208 -0.1056 -0.1552
41998OCT     C283996   9.454  18.094   9.463 -0.1172 -0.3575  0.1203
41999OCT     C183997  18.875  15.358  12.580  0.3774  0.0038 -0.1107
41999OCT     C283998  18.751  15.692  12.273  0.1467  0.2434  0.0982
42000OCT     C183999   1.269  11.274  12.093  0.5284 -0.0482  0.1960
42000OCT     C284000   1.729  11.119  12.107 -0.2394 -0.0376  0.1365
42001OCT     C184001  10.277  23.326  11.579 -0.0932 -0.1742 -0.0350
42001OCT     C284002   9.880  23.057  11.715 -0.2965 -0.0344  0.4901
42002OCT     C184003   0.314  23.141  11.528 -0.0741 -0.0666 -0.3938
42002OCT     C284004   0.698  22.925  11.466  0.2088 -0.1632  0.1407
42003OCT     C184005   7.458   0.681  10.978  0.1040  0.0023  0.3649
42003OCT     C284006   7.006   0.552  10.884  0.0386 -0.0269  0.2335
42004OCT     C184007   0.999   2.577  18.815  0.0851  0.2732  0.1151
42004OCT     C284008   0.769   2.233  18.619  0.3912  0.0900 -0.2415
42005OCT     C184009  13.310  20.094   4.456  0.3541  0.2322 -0.2539
42005OCT     C284010  13.796  20.219   4.451 -0.0140 -0.1914 -0.2333
42006OCT     C184011  13.057  15.447   4.470 -0.1166  0.3821  0.0048
42006OCT     C284012  13.087  15.584   4.890 -0.2588 -0.1755 -0.1763
42007OCT     C184013   2.420  17.866  19.712 -0.1778  0.2623 -0.0291
42007OCT     C284014   2.340  17.827  20.142 -0.1454  0.0762 -0.1689
42008OCT     C184015   3.298  12.285  16.893  0.2288 -0.0559 -0.0229
42008OCT     C284016   3.324  11.898  16.712  0.1149 -0.0425 -0.1662
42009OCT     C184017   1.312   9.158  13.384  0.4573  0.0150 -0.1696
42009OCT     C284018   1.217   8.762  13.591  0.1936  0.1180  0.0289
42010OCT     C184019   7.369  16.011  19.202 -0.1392 -0.2737 -0.0370
42010OCT     C284020   7.535  15.997  18.740 -0.0722  0.5289  0.0953
42011OCT     C184021  12.527   1.694  23.139  0.1007 -0.2027  0.0488
42011OCT     C284022  12.711   1.700  23.637 -0.1577  0.0575  0.0853
42012OCT     C184023   1.432   7.362  20.356 -0.3238 -0.3128  0.2975
42012OCT     C284024   1.721   7.380  20.004  0.2252  0.2908  0.0256
42013OCT     C184025   0.030  19.127   6.383 -0.0021  0.1240 -0.1339
42013OCT     C284026   0.358  19.106   6.719 -0.1946 -0.4961  0.2458
42014OCT     C184027   2.042  21.094   4.739  0.2512  0.0193 -0.1957
42014OCT     C284028   2.173  21.153   4.294 -0.0907  0.1625 -0.0076
42015OCT     C184029  12.726   4.957  17.802  0.0640 -0.0042  0.0559
42015OCT     C284030  13.225   4.850  17.790 -0.1269 -0.1438 -0.2522
42016OCT     C184031  10.021  23.634   0.904  0.5431 -0.0240 -0.5063
42016OCT     C284032  10.039  23.166   0.938  0.1722  0.1203  0.0785
42017OCT     C184033  19.696  19.659  12.098  0.1563  0.0482 -0.0953
42017OCT     C284034  19.574  19.169  12.125 -0.1451  0.3348 -0.1934
42018OCT     C184035   6.463  16.827   0.277  0.0092  0.1727 -0.2991
42018OCT     C284036   6.842  17.110   0.307  0.1632  0.0001  0.3110
42019OCT     C184037  15.323  16.501  21.847 -0.0634  0.0999 -0.0204
42019OCT     C284038  15.421  16.875  22.098  0.3019  0.2613 -0.1857
42020OCT     C184039  16.529   8.058   1.243 -0.1091 -0.4489 -0.0502
42020OCT     C284040  16.537   7.744   0.833 -0.1632 -0.2350  0.1022
42021OCT     C184041  18.879  10.436   7.474 -0.1574 -0.2169 -0.2267
42021OCT     C284042  19.249  10.329   7.219 -0.0721  0.4155 -0.0677
42022OCT     C184043   1.105  22.841   6.845  0.1401  0.1433  0.0183
42022OCT     C284044   1.166  23.306   6.867  0.2379 -0.0578 -0.0263
42023OCT     C184045  20.540   9.740   1.330 -0.2541  0.0395 -0.1588
42023OCT     C284046  20.138   9.791   1.620 -0.0965  0.2150  0.1899
42024OCT     C184047   5.060  13.868   3.694  0.2904 -0.1718 -0.3144
42024OCT     C284048   5.344  13.946   4.040  0.1790 -0.1250  0.0834
42025OCT     C184049   9.841  18.101  14.481 -0.1745 -0.2467 -0.2390
42025OCT     C284050   9.692  18.396  14.798 -0.2642  0.0109  0.3149
42026OCT     C184051  17.045   0.031  15.706 -0.3598  0.1522  0.0396
42026OCT     C284052  17.147   0.366  16.020 -0.3802  0.1089  0.1523
42027OCT     C184053  10.071  17.256  22.550 -0.1625 -0.1585 -0.0040
42027OCT     C284054   9.927  17.090  22.163 -0.1995  0.3266 -0.1784
42028OCT     C184055   2.328  15.344  21.327 -0.3975 -0.1577  0.5825
42028OCT     C284056   2.410  15.788  21.224 -0.1336  0.1555 -0.2392
42029OCT     C184057  20.105  22.544  16.599  0.3032  0.1032 -0.1456
42029OCT     C284058  20.553  22.682  16.686  0.3518 -0.4984  0.2384
42030OCT     C184059  14.970  16.239  11.858  0.2850  0.2019  0.2480
42030OCT     C284060  14.526  16.472  11.944 -0.2388  0.1905  0.0263
42031OCT     C184061  19.628   7.967  23.304 -0.3500  0.0925 -0.0973
42031OCT     C284062  19.218   8.128  23.492  0.0506  0.3560 -0.1091
42032OCT     C184063   7.174  11.852   8.456  0.2896  0.0897 -0.1908
42032OCT     C284064   7.053  11.453   8.213 -0.1816 -0.0281  0.1096
42033OCT     C184065   3.783  20.419  20.093  0.1070  0.0187  0.1006
42033OCT     C284066   3.475  20.313  20.393 -0.1114 -0.2460 -0.0468
42034OCT     C184067   9.065   4.651  19.498  0.2553 -0.0174  0.1774
42034OCT     C284068   9.129   4.428  19.082  0.0950  0.4607  0.2996
42035OCT     C184069  13.289  23.003  10.628 -0.2585  0.3507  0.1291
42035OCT     C284070  12.853  23.190  10.657 -0.3697  0.1374 -0.0048
42036OCT     C184071   4.173   6.660  22.797  0.1186 -0.1538 -0.0675
42036OCT     C284072   3.937   7.045  22.614  0.2598  0.3339  0.1125
42037OCT     C184073   7.292  12.441  23.116  0.1241 -0.0805 -0.0253
42037OCT     C284074   7.261  12.930  23.130  0.3348  0.2300 -0.1566
42038OCT     C184075   1.102  11.330   4.873  0.1101 -0.1554  0.3396
42038OCT     C284076   1.212  11.283   5.314 -0.0021 -0.1047 -0.3209
42039OCT     C184077  16.239  16.883  19.067 -0.0793  0.1257 -0.1061
42039OCT     C284078  16.365  17.369  19.199  0.2041  0.1542 -0.1494
42040OCT     C184079  16.647  22.220   7.627  0.2020 -0.1879  0.1430
42040OCT     C284080  16.647  21.897   7.309  0.0044  0.2433  0.0706
42041OCT     C184081   9.366  16.070   7.253 -0.0358  0.1509 -0.0699
42041OCT     C284082   9.284  16.555   7.227 -0.3676  0.0886  0.1268
42042OCT     C184083   9.754  15.747   0.487 -0.0982 -0.2197  0.1301
42042OCT     C284084   9.626  15.417   0.128  0.0206 -0.0785 -0.4798
42043OCT     C184085  12.431   8.465  11.716  0.3984 -0.0842  0.1151
42043OCT     C284086  12.401   8.926  11.756 -0.1077 -0.1251  0.1377
42044OCT     C184087   5.471   0.130  11.210 -0.0033  0.0417 -0.0144
42044OCT     C284088   5.551  23.468  11.412 -0.1494 -0.0373  0.0543
42045OCT     C184089   8.716  18.327  19.677  0.1519 -0.1631  0.0274
42045OCT     C284090   8.315  18.477  19.944  0.0661 -0.3935  0.1339
42046OCT     C184091  21.759  23.355  17.404  0.1190  0.0061 -0.4055
42046OCT     C284092  21.802  22.978  17.157 -0.0253 -0.1476  0.1407
42047OCT     C184093   1.419   7.695   3.503  0.0004  0.1848  0.1817
42047OCT     C284094   1.072   7.974   3.527  0.1074 -0.2729 -0.2227
42048OCT     C184095   6.173  15.316  17.525 -0.1011  0.3693 -0.0175
42048OCT     C284096   5.872  15.367  17.156 -0.1183 -0.0158  0.3103
42049OCT     C184097   9.427  18.126   2.541 -0.0918 -0.1750  0.2459
42049OCT     C284098   9.863  17.927   2.527  0.4752  0.0300 -0.0021
42050OCT     C184099   7.967   1.205   8.166  0.1874 -0.1342  0.1905
42050OCT     C284100   7.955   1.415   8.594 -0.2036 -0.0515 -0.2599
42051OCT     C184101  17.376  23.024   9.661 -0.0517  0.0602  0.2115
42051OCT     C284102  17.537  22.728   9.359 -0.0718  0.1071  0.1844
42052OCT     C184103  21.078  19.955  15.081  0.4980 -0.0379  0.1471
42052OCT     C284104  21.396  19.684  14.992 -0.2363 -0.0647  0.0857
42053OCT     C184105   9.424  14.005  15.355  0.1879  0.1381 -0.0457
42053OCT     C284106   9.050  13.915  15.656 -0.1512 -0.0285 -0.1114
42054OCT     C184107  18.152   5.110  10.724  0.0233 -0.1012  0.4162
42054OCT     C284108  18.078   4.613  10.694  0.1842  0.1340  0.3291
42055OCT     C184109  21.661  17.270   2.892  0.0059  0.2499  0.2607
42055OCT     C284110  21.910  17.340   2.496 -0.0710  0.0031 -0.2798
42056OCT     C184111   4.943  16.118   4.613  0.1176  0.3841  0.3130
42056OCT     C284112   4.979  16.285   5.049  0.0156  0.2549  0.0808
42057OCT     C184113  13.730   8.667   9.388 -0.2179  0.2762 -0.0913
42057OCT     C284114  14.109   8.897   9.561 -0.3618  0.1469  0.1815
42058OCT     C184115   8.063  20.372  10.669 -0.2474 -0.0212 -0.2509
42058OCT     C284116   7.889  19.948  10.609  0.1621 -0.1240  0.0442
42059OCT     C184117  16.055  21.849  20.316 -0.0723  0.1365 -0.1525
42059OCT     C284118  16.291  21.908  20.702 -0.2600  0.0543  0.1917
42060OCT     C184119  16.807   3.731  11.079 -0.2393  0.0629  0.0875
42060OCT     C284120  16.475   3.412  11.053  0.1788 -0.1250  0.4434
42061OCT     C184121   4.788  16.771  11.847  0.0674  0.1276  0.0917
42061OCT     C284122   4.919  17.165  12.081  0.1376 -0.1737 -0.4404
42062OCT     C184123  22.851  18.272  11.191 -0.0304 -0.1191  0.1515
42062OCT     C284124  22.987  18.796  11.257  0.4320 -0.4476 -0.0147
42063OCT     C184125  16.631   2.773  21.940 -0.0840  0.0228 -0.0004
42063OCT     C284126  16.225   2.804  22.111 -0.0104 -0.2263 -0.0258
42064OCT     C184127  15.557   4.954   3.737 -0.2381  0.1481 -0.2288
42064OCT     C284128  15.541   4.719   4.131 -0.1458  0.1374 -0.0626
42065OCT     C184129  20.452  18.758   1.785  0.4434  0.1566 -0.0208
42065OCT     C284130  20.066  18.479   1.828 -0.0053 -0.1007  0.2877
42066OCT     C184131   3.887   2.298  18.978  0.4926  0.2099 -0.0795
42066OCT     C284132   4.063   2.737  18.958  0.2332 -0.1892 -0.0323
42067OCT     C184133   3.489   9.781  23.386 -0.0462  0.1533  0.3292
42067OCT     C284134   2.959   9.732  23.425  0.3828  0.0513 -0.1396
42068OCT     C184135  17.639   3.800   8.464 -0.0282  0.2163  0.0300
42068OCT     C284136  17.615   3.379   8.684  0.0892 -0.0459  0.1062
42069OCT     C184137   6.718   0.444   6.353 -0.1207  0.1878 -0.0591
42069OCT     C284138   6.836   0.773   6.650  0.3391  0.4594 -0.2543
42070OCT     C184139  13.624   9.607  21.476 -0.1905 -0.2128 -0.1427
42070OCT     C284140  13.936   9.433  21.203  0.2515  0.0163  0.1892
42071OCT     C184141  13.094   1.122   8.418  0.3640  0.2113  0.0841
42071OCT     C284142  13.321   0.709   8.121  0.0245 -0.0941 -0.0013
42072OCT     C184143  15.037   6.661  14.177  0.2600  0.0401  0.2546
42072OCT     C284144  14.683   6.448  14.330  0.1067  0.2093  0.2709
42073OCT     C184145   7.766   1.941  10.081  0.0946 -0.0378  0.2804
42073OCT     C284146   7.855   1.965   9.593 -0.0252 -0.2306 -0.3815
42074OCT     C184147  22.293   5.246   7.763  0.0341 -0.0711 -0.2402
42074OCT     C284148  22.560   4.897   7.671 -0.1240 -0.1971 -0.0360
42075OCT     C184149   8.909  23.410  14.203  0.1468  0.1422 -0.1365
42075OCT     C284150   8.640  23.589  13.847  0.1302  0.3805  0.1246
42076OCT     C184151   2.788  10.262  19.620  0.2019  0.0766 -0.0019
42076OCT     C284152   2.505  10.279  19.991  0.2233 -0.0790  0.5096
42077OCT     C184153   1.284   6.189  20.799 -0.2140  0.1179 -0.2537
42077OCT     C284154   1.284   6.088  20.333 -0.0799 -0.2774  0.2872
42078OCT     C184155  14.963   0.097   4.392 -0.0981 -0.0195 -0.1438
42078OCT     C284156  15.055  23.513   4.093 -0.1358 -0.0526  0.1616
42079OCT     C184157  23.024  14.505  20.951 -0.1491 -0.0170 -0.0143
42079OCT     C284158  23.458  14.512  20.733  0.0250 -0.3711  0.0026
42080OCT     C184159   8.638  23.084   0.666 -0.0047  0.1153 -0.3359
42080OCT     C284160   8.742  23.452   0.445  0.1880 -0.3238 -0.1438
42081OCT     C184161   5.078  11.435   9.936 -0.1519  0.0267 -0.0033
42081OCT     C284162   4.950  11.901   9.962  0.2641  0.2791  0.0457
42082OCT     C184163  13.908  11.369  14.804 -0.4386 -0.1766  0.1651
42082OCT     C284164  14.215  11.485  15.176 -0.0280  0.1222 -0.0786
42083OCT     C184165  23.693  16.944   1.982  0.4359 -0.3122 -0.0060
42083OCT     C284166  23.400  16.650   1.773 -0.0542 -0.2438 -0.0386
42084OCT     C184167   2.049  14.603   1.065 -0.1200 -0.0361  0.1151
42084OCT     C284168   2.279  14.510   0.629  0.0881  0.1145 -0.1171
42085OCT     C184169  22.157   1.518   4.483  0.2460 -0.0747  0.1327
42085OCT     C284170  21.904   1.498   4.120  0.3643  0.2829  0.0220
42086OCT     C184171  18.411  18.766   5.769 -0.0530  0.2476 -0.0509
42086OCT     C284172  18.733  18.787   5.443 -0.3300 -0.1961  0.3744
42087OCT     C184173  21.812   0.055   0.556 -0.1480 -0.1097 -0.1713
42087OCT     C284174  21.834  23.434   0.317 -0.0557  0.2700  0.2617
42088OCT     C184175   2.222   0.319   5.988 -0.1094  0.1786  0.1128
42088OCT     C284176   2.679   0.385   5.903 -0.1144 -0.0446  0.1030
42089OCT     C184177   5.361  16.323  11.222  0.3242 -0.1116 -0.1283
42089OCT     C284178   5.286  16.705  11.437  0.1902 -0.0182 -0.2449
42090OCT     C184179  18.886   2.583  20.676 -0.1245  0.2955  0.3532
42090OCT     C284180  18.769   2.976  20.428  0.4296 -0.1481  0.0814
42091OCT     C184181  14.529   6.862   5.223 -0.1502 -0.1319 -0.0152
42091OCT     C284182  14.295   7.242   5.464 -0.2266 -0.3908  0.2188
42092OCT     C184183  13.894   6.969  14.029 -0.2111 -0.0918  0.2195
42092OCT     C284184  13.971   6.504  13.921 -0.1382 -0.1249 -0.0973
42093OCT     C184185  10.620   9.481   3.244  0.3505  0.1154  0.0259
42093OCT     C284186  10.946   9.121   3.358 -0.1546  0.1852 -0.1109
42094OCT     C184187   7.580   1.662  20.262  0.3385  0.4481 -0.0752
42094OCT     C284188   8.030   1.526  20.116  0.0779  0.3305 -0.3122
42095OCT     C184189  21.975  13.409   4.186  0.2563 -0.1723  0.4801
42095OCT     C284190  21.900  12.985   4.216 -0.3406 -0.2127 -0.3018
42096OCT     C184191  14.885  18.865   6.484 -0.0245  0.2341  0.0591
42096OCT     C284192  14.411  18.681   6.448 -0.1180 -0.4687  0.0201
42097OCT     C184193   4.009  19.297   3.253  0.1395 -0.3315 -0.3928
42097OCT     C284194   3.964  18.900   3.012 -0.0259  0.0964  0.1581
42098OCT     C184195   1.378   2.326  20.440  0.0598 -0.1082  0.0912
42098OCT     C284196   1.411   2.560  20.068 -0.2173 -0.1883  0.3205
42099OCT     C184197   6.833   4.791   9.286 -0.0472  0.2725  0.2292
42099OCT     C284198   6.853   4.771   8.864 -0.1343  0.0506 -0.1221
42100OCT     C184199   5.422  19.318   0.680  0.0043 -0.1732  0.0239
42100OCT     C284200   5.609  19.743   0.737 -0.2192 -0.1076  0.1893
42101OCT     C184201  21.865  13.432   5.975 -0.4247  0.2232  0.2174
42101OCT     C284202  21.756  13.899   6.083 -0.3009  0.2234 -0.1135
42102OCT     C184203  23.545   7.900  18.221 -0.0222 -0.2565  0.4011
42102OCT     C284204  23.230   7.725  18.560  0.0900 -0.4103 -0.0764
42103OCT     C184205  20.486  21.309   5.444 -0.0217  0.1077 -0.3271
42103OCT     C284206  20.129  21.267   5.740  0.1298 -0.1589  0.1948
42104OCT     C184207  17.609   8.451   3.981 -0.1810  0.0969  0.0090
42104OCT     C284208  17.358   8.197   3.725 -0.0914  0.2092  0.1854
42105OCT     C184209  13.566  15.599  20.330  0.3652  0.1463 -0.1513
42105OCT     C284210  13.690  15.700  20.792  0.0231 -0.0024 -0.0273
42106OCT     C184211  10.317   6.849  22.469  0.0229  0.3088  0.2825
42106OCT     C284212  10.010   7.215  22.311 -0.3385 -0.0455 -0.1720
42107OCT     C184213  19.511  19.513  15.072  0.0259  0.1235  0.1642
42107OCT     C284214  19.391  19.758  15.411  0.0474  0.0271  0.0832
42108OCT     C184215  20.573   2.888  13.695 -0.1989  0.0690  0.1760
42108OCT     C284216  20.262   3.137  13.445 -0.3379  0.0902  0.0612
42109OCT     C184217   9.933  15.958   9.081  0.2204  0.0901 -0.1359
42109OCT     C284218   9.842  15.787   9.491 -0.0001  0.0772 -0.1041
42110OCT     C184219  15.642  11.065   5.143 -0.0504  0.0352  0.2377
42110OCT     C284220  15.449  11.251   5.594 -0.0149  0.4327  0.0201
42111OCT     C184221  16.270  23.336  15.241 -0.2019  0.0622 -0.0459
42111OCT     C284222  15.836  23.574  15.396  0.3074  0.2203  0.0441
42112OCT     C184223   4.830  21.689  16.309  0.0549 -0.1033 -0.3245
42112OCT     C284224   4.411  21.584  16.430 -0.1472  0.2869 -0.2504
42113OCT     C184225  14.445   1.706  13.127 -0.2355  0.1715 -0.1472
42113OCT     C284226  14.393   2.115  13.020  0.3388 -0.2952 -0.1488
42114OCT     C184227   3.529   9.290   8.432 -0.1460  0.1746  0.1344
42114OCT     C284228   3.797   8.924   8.539 -0.1093 -0.3495  0.0048
42115OCT     C184229  14.358  12.268  14.010 -0.0215  0.1337  0.0908
42115OCT     C284230  14.153  12.471  14.327 -0.0485  0.2488  0.3118
42116OCT     C184231  11.635  18.522  11.779  0.3505  0.2618 -0.1602
42116OCT     C284232  11.504  18.599  11.298 -0.2479  0.1032  0.0401
42117OCT     C184233   8.306  13.673   9.852 -0.0282  0.0313 -0.0674
42117OCT     C284234   8.095  13.227   9.957 -0.2959 -0.1320  0.0967
42118OCT     C184235  21.279  21.373   1.331  0.0977  0.4359 -0.2957
42118OCT     C284236  21.222  21.778   1.075 -0.0088  0.1489  0.0986
42119OCT     C184237  14.605  20.214  13.540 -0.0620 -0.1360 -0.0659
42119OCT     C284238  14.478  19.977  13.875  0.0106 -0.0622 -0.2572
42120OCT     C184239   9.620   2.797  21.049  0.2382  0.1825  0.0051
42120OCT     C284240   9.407   2.695  21.496  0.2384  0.0889  0.1199
42121OCT     C184241  23.654  20.551  11.288 -0.1106  0.1334 -0.0178
42121OCT     C284242  23.278  20.577  10.975 -0.0373 -0.1919 -0.0505
42122OCT     C184243  18.975  17.120   9.827 -0.0221 -0.0549  0.3018
42122OCT     C284244  18.950  17.082   9.337 -0.1711 -0.0854  0.0262
42123OCT     C184245  14.074  20.912   3.434 -0.0409 -0.0063 -0.0057
42123OCT     C284246  14.061  21.363   3.667  0.0818 -0.2999 -0.2053
42124OCT     C184247  15.855  13.638   6.014 -0.0882  0.1096 -0.0254
42124OCT     C284248  15.896  13.152   6.045  0.0206 -0.1009  0.1067
42125OCT     C184249   7.445  15.544  15.444  0.0288 -0.0869  0.3309
42125OCT     C284250   7.203  15.832  15.136 -0.0391  0.3072 -0.0083
42126OCT     C184251   3.096   6.150  22.947 -0.2613  0.3966 -0.0198
42126OCT     C284252   2.899   5.889  22.513 -0.2709 -0.2211  0.2487
42127OCT     C184253   3.877  16.535   6.681 -0.1038  0.1128  0.2651
42127OCT     C284254   3.850  16.082   6.641 -0.0250  0.1331  0.0843
42128OCT     C184255  22.916  17.739   9.883  0.1525 -0.0798 -0.2179
42128OCT     C284256  22.959  18.176  10.037  0.3593 -0.1236 -0.0559
42129OCT     C184257  17.132   3.059  19.225 -0.1428 -0.1493 -0.2194
42129OCT     C284258  17.018   2.663  19.387 -0.4999  0.4772  0.3212
42130OCT     C184259  10.072  21.999  15.934 -0.0496 -0.3119 -0.0511
42130OCT     C284260  10.452  21.870  15.710  0.1780 -0.3692 -0.0742
42131OCT     C184261  18.166   7.780   2.722  0.0439 -0.1799 -0.0935
42131OCT     C284262  17.893   7.678   2.335 -0.0396  0.0931  0.2888
42132OCT     C184263   4.306   9.219  10.067 -0.2441  0.1054 -0.0533
42132OCT     C284264   4.523   9.065   9.687  0.2351 -0.2375  0.0656
42133OCT     C184265  13.816  18.421   3.588  0.1205  0.0580  0.1878
42133OCT     C284266  14.194  18.231   3.748 -0.1023  0.2613 -0.1316
42134OCT     C184267  22.915  14.582  15.831 -0.3326  0.0283 -0.0823
42134OCT     C284268  23.240  14.935  15.922  0.0547  0.1703 -0.2857
42135OCT     C184269   9.474  23.065   5.574  0.0047  0.2038  0.2406
42135OCT     C284270   9.177  23.410   5.638 -0.2252 -0.0079 -0.2653
42136OCT     C184271  13.317   6.619   0.583 -0.2171 -0.2657  0.1936
42136OCT     C284272  13.073   6.530   0.962  0.0333  0.1132 -0.1711
42137OCT     C184273   1.514   9.176  18.977  0.3617  0.1169 -0.1905
42137OCT     C284274   1.365   9.225  19.412  0.1945  0.2557  0.2003
42138OCT     C184275   4.940  21.286   9.458 -0.1576  0.2947 -0.0235
42138OCT     C284276   4.694  21.617   9.717  0.1869  0.0087 -0.0066
42139OCT     C184277  17.339  21.694  23.540 -0.0883  0.0602 -0.0649
42139OCT     C284278  17.702  22.008  23.420  0.1820 -0.1345  0.2066
42140OCT     C184279  12.536   2.453   1.492 -0.2139 -0.0955  0.1792
42140OCT     C284280  12.955   2.260   1.649 -0.1657 -0.0741  0.2307
42141OCT     C184281   5.405  21.264  19.209  0.1082  0.2422  0.1615
42141OCT     C284282   5.802  21.138  19.019 -0.1466 -0.3251  0.0418
42142OCT     C184283  23.202  15.094   8.147 -0.1100  0.1463 -0.1232
42142OCT     C284284  23.496  15.518   8.193 -0.2616  0.0992 -0.2600
42143OCT     C184285  18.585   2.372  22.780 -0.1628  0.2332  0.1342
42143OCT     C284286  19.015   2.252  22.831  0.2730  0.0135  0.0008
42144OCT     C184287  12.634   6.762   3.590 -0.1244 -0.0572 -0.0662
42144OCT     C284288  12.532   7.166   3.540  0.1606 -0.3760  0.1089
42145OCT     C184289  14.951  18.840  14.216 -0.1523  0.1105 -0.1032
42145OCT     C284290  14.687  18.662  14.526  0.0110  0.0109  0.2452
42146OCT     C184291  19.547   9.075   5.937 -0.0209 -0.1983  0.2370
42146OCT     C284292  19.833   9.298   5.678  0.1632  0.0590  0.1818
42147OCT     C184293   8.094   7.283   1.407 -0.1085 -0.1523 -0.2165
42147OCT     C284294   7.757   7.586   1.296 -0.3050 -0.2159 -0.2844
42148OCT     C184295  13.226   7.982   1.030 -0.6683  0.1498 -0.1550
42148OCT     C284296  12.910   8.297   1.155  0.1785  0.1943  0.1060
42149OCT     C184297  23.625  13.285  15.366  0.0074 -0.2222 -0.0081
42149OCT     C284298  23.681  13.295  14.908  0.0379 -0.0315 -0.1346
42150OCT     C184299  12.069   3.637  12.817  0.0799  0.1787  0.0157
42150OCT     C284300  12.160   3.995  12.448  0.5740  0.0362  0.1738
42151OCT     C184301  19.042   3.271   4.420 -0.3428 -0.0805  0.1108
42151OCT     C284302  18.989   3.707   4.659 -0.0532  0.1418  0.2799
42152OCT     C184303   6.224  21.631  13.979 -0.2771 -0.3018  0.0330
42152OCT     C284304   5.784  21.644  13.903  0.0457  0.0983  0.0366
42153OCT     C184305  20.953   6.788  23.025  0.0358  0.3480 -0.2979
42153OCT     C284306  20.894   6.965  23.410  0.0917 -0.0585 -0.0962
42154OCT     C184307  20.014  20.795  22.663  0.3879  0.2444  0.1639
42154OCT     C284308  19.901  20.301  22.669 -0.2655  0.0218  0.4576
42155OCT     C184309   7.921  11.970   0.217  0.2476 -0.0576  0.0209
42155OCT     C284310   7.610  11.804  23.680 -0.2618 -0.1203  0.3428
42156OCT     C184311   9.572   7.802   6.457  0.0704  0.1009 -0.0293
42156OCT     C284312   9.285   7.910   6.722 -0.2860 -0.0672 -0.2655
42157OCT     C184313  20.216  14.259  15.107  0.0991 -0.5578  0.0990
42157OCT     C284314  20.131  14.499  15.500 -0.2775 -0.1266 -0.4049
42158OCT     C184315   2.703   8.512   8.922 -0.1136 -0.1541  0.1298
42158OCT     C284316   3.196   8.470   8.882  0.1892  0.0008 -0.3356
42159OCT     C184317   7.723   0.049   8.968 -0.0631  0.3551 -0.2210
42159OCT     C284318   8.235   0.050   8.882 -0.1805  0.1565 -0.0426
42160OCT     C184319   3.665  21.575   2.324 -0.1570 -0.1010  0.4281
42160OCT     C284320   3.638  21.176   2.586  0.3289  0.0687  0.0702
42161OCT     C184321  13.077   7.640  20.196  0.0640  0.2305 -0.1357
42161OCT     C284322  13.316   7.382  20.487 -0.2734  0.1553 -0.1671
42162OCT     C184323  10.499  11.341   3.041 -0.1343 -0.2513 -0.1193
42162OCT     C284324  10.102  11.244   3.289  0.0075 -0.0907  0.1012
42163OCT     C184325   0.221  13.326   9.228 -0.0273  0.0500  0.0220
42163OCT     C284326  23.565  13.057   9.208 -0.1307 -0.0554  0.2637
42164OCT     C184327  16.352   4.217  12.736  0.0993  0.0607 -0.0016
42164OCT     C284328  16.738   4.039  12.508 -0.1721 -0.2378  0.0698
42165OCT     C184329  14.539   7.458  14.162  0.0288  0.1672 -0.3657
42165OCT     C284330  14.127   7.458  13.966  0.5404  0.2191 -0.0388
42166OCT     C184331   8.181  23.552  22.218  0.1424 -0.2751 -0.2689
42166OCT     C284332   8.231   0.015  21.741 -0.3268  0.0890 -0.3989
42167OCT     C184333   9.896  14.566  22.448 -0.2808  0.1421 -0.1603
42167OCT     C284334  10.248  14.354  22.780 -0.2062 -0.2797  0.1185
42168OCT     C184335  21.802  12.538  13.904 -0.1642  0.1765  0.2251
42168OCT     C284336  21.559  12.692  14.298 -0.1433 -0.0011  0.1705
42169OCT     C184337  20.728   0.211   5.683 -0.0862  0.1129 -0.5146
42169OCT     C284338  21.022   0.575   5.527  0.1514  0.2289  0.1148
42170OCT     C184339  23.506   1.857   3.241 -0.0857 -0.1799  0.1213
42170OCT     C284340  23.486   1.773   3.732  0.2583  0.0120 -0.0037
42171OCT     C184341  16.882  12.712   2.100 -0.0893  0.0618 -0.1214
42171OCT     C284342  16.838  13.121   2.059  0.0176 -0.4317 -0.3943
42172OCT     C184343  18.715   9.637  11.637  0.0004 -0.3288  0.2617
42172OCT     C284344  18.648  10.079  11.379  0.2009 -0.2119 -0.0937
42173OCT     C184345  17.112   6.173   4.763 -0.2030  0.0046 -0.2524
42173OCT     C284346  17.349   6.321   4.363  0.3193  0.1460 -0.0098
42174OCT     C184347  20.983  10.016  13.775 -0.0555 -0.0864 -0.2560
42174OCT     C284348  20.524   9.925  13.806 -0.1413  0.2273  0.1359
42175OCT     C184349   3.869  21.442  22.729 -0.2650  0.1451  0.0078
42175OCT     C284350   3.763  21.487  23.210  0.3230  0.0205 -0.0386
42176OCT     C184351  23.652   2.660  15.835  0.0613  0.0808  0.6345
42176OCT     C284352  23.357   3.027  15.827 -0.0287  0.4844 -0.4553
42177OCT     C184353  20.008  18.637  10.712  0.0481 -0.4674  0.1077
42177OCT     C284354  19.794  18.397  10.390 -0.0437 -0.0627  0.0729
42178OCT     C184355  20.705   3.130  19.806  0.1339 -0.0433  0.1557
42178OCT     C284356  21.042   3.290  20.047  0.4066  0.1886  0.2082
42179OCT     C184357   9.720  17.100  10.524  0.0791  0.0854 -0.0389
42179OCT     C284358   9.521  17.360  10.220 -0.0461 -0.0792 -0.4627
42180OCT     C184359   8.744   3.891   3.254  0.1110 -0.0377 -0.0776
42180OCT     C284360   8.389   3.697   3.008  0.0229 -0.5580 -0.4501
42181OCT     C184361  12.177   0.974   7.418 -0.0301 -0.0883  0.3437
42181OCT     C284362  12.343   0.582   7.410  0.1232 -0.2880 -0.0052
42182OCT     C184363  15.866  14.008  21.115 -0.4527 -0.2356 -0.3304
42182OCT     C284364  15.486  14.199  20.909  0.0383 -0.2539 -0.2488
42183OCT     C184365  18.137   7.490   5.696 -0.1306  0.3276  0.0744
42183OCT     C284366  18.275   7.600   5.275 -0.3547 -0.0371 -0.1786
42184OCT     C184367   7.098  21.218   9.539  0.3214 -0.2819  0.1696
42184OCT     C284368   7.547  21.206   9.310  0.3617  0.4861 -0.0099
42185OCT     C184369   3.473  16.392  12.207 -0.1256  0.2718 -0.4596
42185OCT     C284370   3.691  16.606  12.591  0.1865  0.0390  0.3084
42186OCT     C184371   7.998   6.240   8.574 -0.1294  0.1922  0.5557
42186OCT     C284372   7.576   6.073   8.533  0.0550  0.3245 -0.1428
42187OCT     C184373  11.134  23.081   8.428  0.0696  0.1440  0.4767
42187OCT     C284374  11.421  23.199   8.039  0.1054  0.1016  0.1729
42188OCT     C184375   1.180   7.707   5.118  0.4053  0.2119 -0.0892
42188OCT     C284376   0.950   8.128   5.202 -0.0872  0.1547 -0.1832
42189OCT     C184377  18.289   0.459  10.459 -0.0214  0.2057  0.2677
42189OCT     C284378  18.747   0.544  10.392  0.0395  0.2361  0.1505
42190OCT     C184379   0.057  18.436   7.997  0.0124 -0.0155  0.1780
42190OCT     C284380   0.168  18.654   7.643  0.2146  0.2993  0.1059
42191OCT     C184381  13.653   6.180  11.287  0.1190 -0.1194  0.3117
42191OCT     C284382  14.129   6.101  11.335  0.2233  0.1007  0.0509
42192OCT     C184383  19.086   1.787   3.334  0.7014 -0.1189 -0.2714
42192OCT     C284384  19.110   2.272   3.308  0.0304 -0.1124  0.2241
42193OCT     C184385  13.115  19.643  20.564  0.1033  0.5405 -0.0494
42193OCT     C284386  13.076  19.664  21.052 -0.0546  0.2055  0.4190
42194OCT     C184387   0.793   7.807  13.360  0.2731 -0.2578 -0.1505
42194OCT     C284388   0.454   7.591  13.575  0.2246 -0.0484  0.3311
42195OCT     C184389   4.888  19.722  22.121 -0.0762  0.1705 -0.0682
42195OCT     C284390   5.057  19.273  22.089  0.1587  0.0446 -0.0061
42196OCT     C184391   2.782   4.119  18.604  0.2470  0.1483 -0.0746
42196OCT     C284392   2.964   4.173  19.047 -0.0513  0.1050 -0.0469
42197OCT     C184393  22.364   9.701  23.098 -0.3257 -0.1107 -0.3517
42197OCT     C284394  21.914   9.617  23.278 -0.1273 -0.1674  0.2862
42198OCT     C184395  14.194   0.612  16.036  0.0333  0.1427 -0.2595
42198OCT     C284396  14.622   0.804  15.987 -0.2107 -0.2489  0.3522
42199OCT     C184397  18.515  17.173  23.079  0.0486  0.0244  0.1962
42199OCT     C284398  18.922  17.328  23.175  0.2031  0.2696 -0.1203
42200OCT     C184399  10.627  16.310   0.159 -0.3823  0.3648 -0.0411
42200OCT     C284400  10.793  16.663   0.394 -0.0377  0.4154  0.2883
42201OCT     C184401   5.285  18.735   3.037 -0.0568  0.0107  0.0422
42201OCT     C284402   5.104  18.915   3.418  0.1974  0.2360  0.1761
42202OCT     C184403  17.899  22.683  15.133  0.0659 -0.0271  0.1402
42202OCT     C284404  18.344  22.682  15.071 -0.0046  0.1049 -0.1203
42203OCT     C184405  13.015  21.566   2.488  0.0437 -0.0853 -0.1869
42203OCT     C284406  12.585  21.507   2.651  0.1105 -0.2451  0.0209
42204OCT     C184407  11.973   0.004   6.397  0.0094  0.0866  0.3665
42204OCT     C284408  12.153   0.089   6.797  0.0276 -0.0916 -0.0129
42205OCT     C184409  23.271   9.182  14.794 -0.1509  0.4203 -0.1975
42205OCT     C284410  23.714   9.038  14.685 -0.0604  0.3521  0.3478
42206OCT     C184411  23.230  20.190   4.394  0.1848 -0.0360 -0.1261
42206OCT     C284412  23.272  19.826   4.718  0.2698  0.3560  0.2098
42207OCT     C184413  13.800  21.815  14.927  0.0655  0.0171  0.1825
42207OCT     C284414  13.795  21.338  14.970 -0.2080 -0.1442 -0.0003
42208OCT     C184415  12.191   4.129   6.889 -0.1268  0.0068  0.0165
42208OCT     C284416  12.434   3.832   7.115 -0.0993  0.0731 -0.0259
42209OCT     C184417   1.297  11.096   3.637 -0.1707 -0.0334 -0.2848
42209OCT     C284418   1.009  11.458   3.766 -0.1464  0.0287  0.0775
42210OCT     C184419  18.390  23.157   5.068 -0.1136 -0.4382  0.1311
42210OCT     C284420  18.694  23.091   5.342 -0.2853  0.0426  0.4316
42211OCT     C184421   2.115   7.445  12.731  0.1563  0.2141  0.1801
42211OCT     C284422   1.688   7.388  12.582 -0.2576 -0.0146 -0.1290
42212OCT     C184423  15.609   4.634   2.997 -0.0843  0.0090 -0.2800
42212OCT     C284424  15.783   4.741   2.567  0.2240  0.0175 -0.2173
42213OCT     C184425  16.458  14.896  21.392 -0.0399 -0.4876 -0.0766
42213OCT     C284426  16.629  14.996  21.833 -0.0323 -0.0590  0.1872
42214OCT     C184427   4.204  19.059  13.794  0.1478 -0.4306  0.2225
42214OCT     C284428   4.375  19.312  14.205  0.0807  0.1701 -0.2414
42215OCT     C184429  14.693  16.224   3.105  0.2393  0.0602 -0.0152
42215OCT     C284430  15.008  15.930   2.878  0.6419  0.0189 -0.0136
42216OCT     C184431  18.164  22.102  20.283  0.0281  0.2885  0.1930
42216OCT     C284432  17.810  22.412  20.295  0.4139  0.2450  0.1559
42217OCT     C184433   0.834   3.985   0.655  0.3201 -0.1483 -0.0406
42217OCT     C284434   0.562   4.282   0.957  0.1630 -0.0146  0.2191
42218OCT     C184435  20.155  14.633   2.636  0.1988 -0.1883 -0.1124
42218OCT     C284436  20.365  14.942   2.316 -0.0014 -0.4779 -0.0989
42219OCT     C184437  10.289  20.421  12.262 -0.0878 -0.0658  0.3521
42219OCT     C284438   9.893  20.371  11.994  0.2547  0.0716 -0.5494
42220OCT     C184439   4.650  20.772  15.944 -0.2785  0.0060  0.2025
42220OCT     C284440   4.763  20.789  15.490  0.0667 -0.3958 -0.1038
42221OCT     C184441   6.121  11.608  10.952 -0.3000 -0.2193  0.1772
42221OCT     C284442   5.758  11.702  10.672 -0.0346  0.0881  0.1780
42222OCT     C184443  11.378  14.854  15.391 -0.0723 -0.0337 -0.1004
42222OCT     C284444  11.028  14.634  15.096 -0.3185 -0.2437 -0.2204
42223OCT     C184445  18.440  19.124  13.663  0.4484  0.1694  0.2551
42223OCT     C284446  18.605  18.886  14.074 -0.0663  0.0439  0.2241
42224OCT     C184447  21.083  17.425   9.977  0.1931 -0.0675 -0.4648
42224OCT     C284448  20.718  17.248  10.288  0.1943 -0.1181 -0.2216
42225OCT     C184449   2.207  16.049  16.415  0.3925 -0.2404 -0.3085
42225OCT     C284450   2.202  15.939  16.905  0.2076  0.1572 -0.1685
42226OCT     C184451   5.027   2.504  18.445 -0.1951 -0.1560  0.2006
42226OCT     C284452   5.183   2.663  18.845 -0.2596  0.2822  0.4112
42227OCT     C184453  12.499   0.806  21.143 -0.4425 -0.1287  0.0649
42227OCT     C284454  12.432   0.478  20.866 -0.5002  0.3308  0.3237
42228OCT     C184455   8.074   8.457  17.097  0.1218 -0.0384 -0.1048
42228OCT     C284456   7.814   8.851  17.272 -0.1135  0.1120 -0.3391
42229OCT     C184457  23.042  12.455  20.383  0.1030 -0.3474  0.0475
42229OCT     C284458  22.603  12.369  20.611 -0.1740 -0.0053  0.2124
42230OCT     C184459  10.237   5.338  23.160 -0.0198 -0.0325  0.1834
42230OCT     C284460   9.810   5.631  23.200  0.0210  0.0596 -0.3991
42231OCT     C184461  13.640  22.801   2.945 -0.2628  0.1754 -0.0777
42231OCT     C284462  14.102  22.729   2.861 -0.1850  0.2474 -0.2340
42232OCT     C184463  11.210  16.574   6.067  0.5069  0.0712 -0.1070
42232OCT     C284464  11.451  16.944   5.882  0.2466  0.0045  0.0577
42233OCT     C184465  14.602  12.772  23.631 -0.1478 -0.1666 -0.2892
42233OCT     C284466  14.255  12.890  23.263 -0.1297  0.1124  0.1906
42234OCT     C184467  15.938  18.446  21.921  0.3737 -0.2212 -0.0573
42234OCT     C284468  15.980  18.272  22.359 -0.0600 -0.0654 -0.6935
42235OCT     C184469   6.949   4.444  10.988 -0.2634  0.1558  0.1947
42235OCT     C284470   6.764   4.352  10.611 -0.0539  0.1071  0.0627
42236OCT     C184471  21.183  20.692  16.892  0.0085  0.2043  0.0290
42236OCT     C284472  21.410  20.598  17.292  0.0572 -0.1826  0.0817
42237OCT     C184473  18.366  15.561  14.823 -0.1210 -0.0193 -0.0468
42237OCT     C284474  18.377  15.248  15.219 -0.0873  0.3331  0.2669
42238OCT     C184475  20.129   8.638  11.381 -0.1932  0.2986 -0.0656
42238OCT     C284476  20.328   9.006  11.325 -0.2311  0.0739  0.1120
42239OCT     C184477  11.883  17.293   7.068  0.0300  0.5791  0.3022
42239OCT     C284478  12.351  17.135   7.090  0.0868 -0.3504  0.3194
42240OCT     C184479  20.632  21.397  18.051  0.1525 -0.0154 -0.1154
42240OCT     C284480  20.853  21.333  17.678  0.0191  0.1497  0.2433
42241OCT     C184481   1.633   0.525  16.739  0.1471  0.2272  0.0246
42241OCT     C284482   1.901   0.321  17.114  0.2709  0.0362 -0.1497
42242OCT     C184483   6.879   9.713  15.464  0.1122 -0.2129 -0.4147
42242OCT     C284484   6.951   9.273  15.544 -0.1196 -0.5250  0.0159
42243OCT     C184485  22.264  10.291   1.212  0.1023 -0.0014 -0.1432
42243OCT     C284486  22.262   9.852   1.095 -0.0421  0.1054  0.1124
42244OCT     C184487   7.568   5.984   5.014  0.1537  0.1711  0.1590
42244OCT     C284488   7.624   5.556   5.231 -0.0300  0.0491  0.1163
42245OCT     C184489  11.174  15.788  15.558 -0.0680 -0.1534 -0.2983
42245OCT     C284490  11.207  15.480  15.943  0.2214  0.1828  0.1251
42246OCT     C184491   7.653  18.113  20.913 -0.0440 -0.0306  0.2369
42246OCT     C284492   8.059  18.339  21.084  0.0507  0.0760 -0.0086
42247OCT     C184493  14.600   8.510   2.234  0.0328  0.0979  0.0541
42247OCT     C284494  14.975   8.254   2.185 -0.2037 -0.3649 -0.4486
42248OCT     C184495   6.657  21.564  21.832 -0.1249 -0.3187  0.0737
42248OCT     C284496   6.947  21.408  21.492 -0.1000 -0.0396 -0.0487
42249OCT     C184497  12.931  18.921   2.891  0.0911 -0.1037 -0.0563
42249OCT     C284498  12.646  19.336   3.032  0.1660  0.0130 -0.0350
42250OCT     C184499  22.298   8.672  11.766 -0.1918  0.2701 -0.0853
42250OCT     C284500  21.859   8.602  11.949  0.1548 -0.1494  0.0839
42251OCT     C184501  14.674   6.550  22.247 -0.0248  0.1131  0.2351
42251OCT     C284502  14.572   6.518  21.794  0.2021 -0.2118  0.1432
42252OCT     C184503   2.471  20.350   0.780  0.0244  0.1351 -0.0154
42252OCT     C284504   2.079  20.286   0.579 -0.1431 -0.1086 -0.0413
42253OCT     C184505   5.315  17.728  18.935  0.2030 -0.3983  0.0732
42253OCT     C284506   5.692  17.503  19.126  0.2883 -0.3088 -0.0098
42254OCT     C184507  12.843   9.129   0.121 -0.0207 -0.4535  0.0258
42254OCT     C284508  12.583   8.866   0.406 -0.1145 -0.1297  0.2419
42255OCT     C184509  21.611  13.461   7.712 -0.1321 -0.2837 -0.0270
42255OCT     C284510  21.305  13.466   7.395 -0.0031  0.4215  0.1499
42256OCT     C184511  20.706   7.493  18.596 -0.0397  0.0068  0.1786
42256OCT     C284512  21.024   7.487  18.243 -0.0294 -0.0621  0.0612
42257OCT     C184513   0.226  16.675  23.613  0.1279 -0.0333 -0.3369
42257OCT     C284514   0.024  16.737  23.247 -0.3317 -0.0626 -0.1711
42258OCT     C184515   5.446   2.946   6.178 -0.1881 -0.2868 -0.0018
42258OCT     C284516   5.197   2.599   6.359 -0.2663  0.0494  0.0281
42259OCT     C184517  12.724   0.122  13.801  0.2311 -0.1344  0.0099
42259OCT     C284518  12.690  23.515  13.520 -0.3699  0.2774  0.3752
42260OCT     C184519  18.681  20.394  20.956 -0.2408  0.1108 -0.0889
42260OCT     C284520  18.377  20.129  20.757  0.1113 -0.0665  0.2357
42261OCT     C184521  21.888  13.286   3.717  0.1062  0.1597 -0.2607
42261OCT     C284522  22.156  12.877   3.735  0.2202 -0.0315 -0.2535
42262OCT     C184523  13.651  20.583  11.058 -0.0414 -0.1693  0.0864
42262OCT     C284524  13.864  20.834  11.403 -0.0285 -0.2016 -0.2604
42263OCT     C184525  22.996   3.006   1.775  0.2046 -0.2769  0.1996
42263OCT     C284526  23.113   3.242   1.369 -0.3317 -0.0476 -0.2296
42264OCT     C184527  22.495  21.087  15.575  0.0200  0.5795 -0.0189
42264OCT     C284528  22.388  21.539  15.424 -0.0291 -0.0356  0.1311
42265OCT     C184529   5.144   1.858  20.578 -0.6059  0.0221 -0.1085
42265OCT     C284530   5.318   2.284  20.422 -0.3673 -0.0881  0.0300
42266OCT     C184531  16.794  13.568   7.296 -0.0776  0.1474 -0.1483
42266OCT     C284532  16.947  13.156   7.027  0.1173 -0.0021 -0.1113
42267OCT     C184533   4.731  10.846  17.158  0.0122  0.0747 -0.1842
42267OCT     C284534   4.886  11.038  17.597 -0.0603 -0.0553  0.3482
42268OCT     C184535   9.812   1.226   4.749 -0.0853  0.0130  0.1832
42268OCT     C284536   9.483   1.617   4.829 -0.0815 -0.2235 -0.2068
42269OCT     C184537   0.501   4.637   8.053  0.3927 -0.0257  0.1229
42269OCT     C284538   0.262   4.253   7.990 -0.0011 -0.2286 -0.0493
42270OCT     C184539  10.674  10.785  16.143 -0.0372  0.3003 -0.1472
42270OCT     C284540  10.272  10.584  16.128  0.4508  0.0003 -0.0551
42271OCT     C184541   0.646   4.955  11.260 -0.1314  0.0161  0.3621
42271OCT     C284542   0.684   5.390  11.057 -0.0322  0.0632  0.1113
42272OCT     C184543  16.446   6.471  22.269  0.2663  0.4877 -0.0318
42272OCT     C284544  16.035   6.302  22.143 -0.1556 -0.1794 -0.0197
42273OCT     C184545  17.694  12.466  17.590  0.1119 -0.3671  0.0101
42273OCT     C284546  18.140  12.336  17.639 -0.3713  0.0120 -0.3264
42274OCT     C184547  18.176  12.703  15.737  0.0365  0.1786 -0.2280
42274OCT     C284548  17.848  12.603  16.041  0.2534 -0.2656 -0.0238
42275OCT     C184549  10.163   7.810   2.956  0.0009  0.0357 -0.2716
42275OCT     C284550   9.847   7.614   2.688 -0.0990  0.1526 -0.1478
42276OCT     C184551  17.202  10.672  11.211 -0.0480  0.0687 -0.0410
42276OCT     C284552  17.645  10.711  11.033 -0.3395 -0.1897  0.0880
42277OCT     C184553   3.500  19.516  16.132 -0.1948 -0.1046 -0.1545
42277OCT     C284554   3.425  19.964  16.121 -0.0360  0.0803  0.0431
42278OCT     C184555   4.779   7.433   8.037  0.3061 -0.1281  0.2916
42278OCT     C284556   5.061   7.784   7.927 -0.3204  0.1657 -0.0641
42279OCT     C184557  14.826  15.742   0.014  0.2747 -0.2018  0.1529
42279OCT     C284558  15.281  15.873  23.472 -0.2093  0.1494  0.2213
42280OCT     C184559   0.590  15.310   9.716 -0.3346 -0.0863  0.0346
42280OCT     C284560   0.625  15.080  10.090  0.1074  0.1077 -0.0028
42281OCT     C184561  13.534  11.162   8.892  0.0946  0.3346  0.0908
42281OCT     C284562  13.983  11.198   9.053  0.0933 -0.3298  0.2902
42282OCT     C184563   7.186  20.777  14.436 -0.1033  0.0518  0.3261
42282OCT     C284564   6.862  21.069  14.503  0.1124 -0.1582  0.1094
42283OCT     C184565  20.770   9.050  12.583  0.0471 -0.1323 -0.1470
42283OCT     C284566  20.437   8.960  12.898  0.4414  0.4451 -0.2258
42284OCT     C184567  22.339  21.026   5.888  0.0872  0.1015 -0.1989
42284OCT     C284568  22.167  21.315   6.169 -0.2766 -0.0638 -0.2366
42285OCT     C184569  10.828   8.278  16.056  0.3898  0.2231  0.0301
42285OCT     C284570  10.368   8.234  15.968 -0.0522  0.1094  0.1450
42286OCT     C184571   7.908  18.885  14.210  0.2332 -0.0756 -0.0495
42286OCT     C284572   8.325  18.632  14.234 -0.0052  0.1618 -0.0247
42287OCT     C184573  22.582   4.854  22.889  0.2039  0.3126 -0.0701
42287OCT     C284574  22.995   4.882  22.652  0.0886 -0.0979  0.0370
42288OCT     C184575  15.312  11.200  22.525  0.3452  0.1486 -0.0406
42288OCT     C284576  15.699  11.116  22.302  0.0759  0.1786 -0.3186
42289OCT     C184577  10.525   1.825   7.018 -0.1612  0.0765  0.0345
42289OCT     C284578  11.052   1.610   7.040  0.3030 -0.0212 -0.3020
42290OCT     C184579  21.680  18.394  18.974 -0.1971 -0.1500  0.1261
42290OCT     C284580  21.591  17.966  18.986 -0.2165 -0.1261 -0.4164
42291OCT     C184581  12.550  22.744  20.575 -0.1536  0.0988 -0.0477
42291OCT     C284582  12.710  23.037  20.843 -0.4848  0.0591 -0.1821
42292OCT     C184583   7.028  20.472   7.269 -0.1206  0.0669  0.3754
42292OCT     C284584   7.064  20.032   7.351 -0.2109 -0.2516  0.0670
42293OCT     C184585  19.338   6.027  23.572 -0.3444 -0.2243  0.0293
42293OCT     C284586  19.021   5.774  23.264  0.2982 -0.1549  0.0916
42294OCT     C184587   5.606  15.811  11.218  0.1779 -0.0091 -0.2839
42294OCT     C284588   5.600  15.540  11.543  0.1422 -0.1038  0.1495
42295OCT     C184589  22.941  13.952  18.591 -0.2734 -0.0280 -0.0383
42295OCT     C284590  22.511  13.792  18.484  0.1749 -0.3032 -0.3176
42296OCT     C184591  20.185  21.002  12.335  0.1221  0.1309 -0.1600
42296OCT     C284592  19.735  21.107  12.499  0.3079  0.0735  0.0274
42297OCT     C184593   7.071  22.630  14.284 -0.0613 -0.1436 -0.2092
42297OCT     C284594   7.517  22.715  14.164  0.1632 -0.0411 -0.2302
42298OCT     C184595   1.590  10.477  20.769  0.0032  0.0018 -0.2167
42298OCT     C284596   1.610  10.706  20.356  0.3045  0.2775 -0.1141
42299OCT     C184597  11.816  16.389  18.589  0.1440 -0.6307 -0.0895
42299OCT     C284598  11.504  16.650  18.802  0.1050 -0.2429 -0.0384
42300OCT     C184599   6.246  23.194  17.206 -0.2099  0.4836 -0.0736
42300OCT     C284600   6.097  22.810  17.043  0.0518 -0.0680 -0.2464
42301OCT     C184601  17.723  12.714   1.001  0.0097  0.1625  0.3142
42301OCT     C284602  18.144  12.857   0.924  0.5174  0.0955  0.1379
42302OCT     C184603   5.173  15.921   3.989 -0.5159 -0.1485  0.0467
42302OCT     C284604   4.739  15.917   3.911 -0.0489 -0.2481  0.2363
42303OCT     C184605  11.724  18.027  13.802  0.1263 -0.1203  0.3219
42303OCT     C284606  11.467  17.609  13.771  0.0651  0.0389 -0.2896
42304OCT     C184607  19.510  17.803   3.992  0.1141  0.1602 -0.0565
42304OCT     C284608  19.283  17.750   4.442  0.1164  0.1027 -0.1706
42305OCT     C184609   5.155  14.418  21.405 -0.1236 -0.0280 -0.3839
42305OCT     C284610   4.837  14.167  21.201 -0.4244 -0.2491 -0.0322
42306OCT     C184611  13.184  13.927  19.626  0.1213 -0.2792  0.4594
42306OCT     C284612  13.529  13.655  19.740  0.0075 -0.1002 -0.0623
42307OCT     C184613  22.157  12.162   5.682 -0.1452 -0.2772  0.3047
42307OCT     C284614  21.727  12.285   5.763 -0.2860  0.1085 -0.0994
42308OCT     C184615  23.351  18.685  13.849 -0.3076 -0.2461 -0.1420
42308OCT     C284616  23.497  19.134  13.978  0.1565  0.0924 -0.7054
42309OCT     C184617   5.614  10.696   4.567 -0.0197 -0.5289 -0.1644
42309OCT     C284618   6.090  10.662   4.638  0.6630  0.0329 -0.2609
42310OCT     C184619   8.399   9.218  11.598 -0.2462  0.0872 -0.0864
42310OCT     C284620   8.452   9.340  12.105 -0.1387 -0.0467  0.0623
42311OCT     C184621  22.800  23.691   4.795  0.0565  0.2724  0.6156
42311OCT     C284622  23.167  23.711   5.121  0.0409  0.3089 -0.4040
42312OCT     C184623  12.803   5.719   0.311  0.3291 -0.1950  0.2032
42312OCT     C284624  13.214   5.446   0.354  0.2600 -0.4622  0.1090
42313OCT     C184625  19.361  14.909   6.578  0.1849  0.2868 -0.1655
42313OCT     C284626  19.128  14.690   6.980  0.0237  0.3707 -0.3097
42314OCT     C184627  10.969  22.210   2.095 -0.0492 -0.1374 -0.2485
42314OCT     C284628  10.530  22.310   2.022 -0.1770 -0.5698  0.0550
42315OCT     C184629  12.433   6.790  14.417  0.2388 -0.1225  0.2929
42315OCT     C284630  12.433   6.335  14.573  0.0567  0.0913  0.0616
42316OCT     C184631  17.540   8.360  13.498  0.4406 -0.0430  0.4294
42316OCT     C284632  17.412   8.336  13.000 -0.0491 -0.2057  0.0005
42317OCT     C184633   7.165   4.834   1.317 -0.3423 -0.2176  0.0148
42317OCT     C284634   6.876   4.716   0.969  0.0550  0.0149  0.0702
42318OCT     C184635  16.531  20.869   9.300  0.0989  0.3852 -0.1191
42318OCT     C284636  16.768  21.124   9.019 -0.0232 -0.2802 -0.2953
42319OCT     C184637  16.376   0.180  17.416  0.2255 -0.0017 -0.0417
42319OCT     C284638  16.145   0.586  17.516 -0.4166 -0.2085  0.3038
42320OCT     C184639   1.709   2.952  21.637  0.0181  0.1403 -0.2239
42320OCT     C284640   1.805   3.320  21.371  0.0973  0.0178 -0.2064
42321OCT     C184641   4.795  16.924   9.777 -0.1082 -0.1846 -0.2874
42321OCT     C284642   4.581  17.046   9.373  0.0785 -0.0026  0.1127
42322OCT     C184643   5.714   7.354   8.825  0.2390 -0.2905 -0.1466
42322OCT     C284644   6.111   7.622   8.816 -0.0982  0.2863  0.2438
42323OCT     C184645   5.453   9.491   0.775 -0.1632  0.5130  0.0294
42323OCT     C284646   5.048   9.417   0.977  0.1749  0.0719  0.1339
42324OCT     C184647   3.327   1.777  16.118  0.0611  0.5344  0.1928
42324OCT     C284648   3.193   1.384  15.922  0.0092 -0.2401 -0.0193
42325OCT     C184649  16.030   8.052  18.482 -0.3124 -0.0160  0.2478
42325OCT     C284650  15.901   7.851  18.857  0.2885  0.3244 -0.0926
42326OCT     C184651  22.889  17.196   8.036  0.0933 -0.2153  0.1400
42326OCT     C284652  23.238  17.231   7.726  0.0986 -0.0190 -0.0697
42327OCT     C184653   9.419  20.648   8.965  0.0771  0.2237 -0.0950
42327OCT     C284654   9.022  20.587   8.938 -0.5719 -0.2263  0.0028
42328OCT     C184655  20.378   1.587  10.796 -0.0462  0.0246  0.1048
42328OCT     C284656  20.660   1.524  11.115  0.1136  0.3685  0.2867
42329OCT     C184657  23.221  18.324  17.584  0.0303 -0.2254  0.0697
42329OCT     C284658  22.781  18.519  17.522 -0.0353 -0.1642  0.6000
42330OCT     C184659   2.684  13.174   2.761 -0.5977  0.0072  0.1357
42330OCT     C284660   2.507  13.589   2.842 -0.1076 -0.2122 -0.3552
42331OCT     C184661  16.372   9.477  13.667  0.0433  0.1039 -0.2435
42331OCT     C284662  16.218   9.147  14.010 -0.1441 -0.0961 -0.1076
42332OCT     C184663   9.706   1.119   2.784 -0.1696  0.3283  0.2718
42332OCT     C284664   9.680   1.507   2.499 -0.1193 -0.0803  0.1666
42333OCT     C184665  14.192   9.986  18.524 -0.2910  0.0401  0.1989
42333OCT     C284666  13.747  10.021  18.474 -0.0934 -0.3956 -0.0300
42334OCT     C184667  17.701   1.057  17.383  0.0454  0.4894  0.1996
42334OCT     C284668  17.661   0.831  16.973  0.1988  0.1103 -0.2981
42335OCT     C184669   0.175   3.134  16.666  0.0757 -0.0064 -0.1246
42335OCT     C284670  23.581   2.815  16.754 -0.0202  0.1110 -0.0705
42336OCT     C184671  14.819   4.452   8.859 -0.0632 -0.2709  0.3194
42336OCT     C284672  14.888   4.882   8.730 -0.0110 -0.2722  0.0845
42337OCT     C184673  14.852  21.348   6.118  0.1274  0.0534  0.0048
42337OCT     C284674  14.878  21.274   6.530 -0.1188 -0.5581 -0.1246
42338OCT     C184675  18.885   9.610  17.664 -0.0098 -0.3052  0.2551
42338OCT     C284676  19.048  10.039  17.484 -0.2674 -0.6079  0.2238
42339OCT     C184677  19.853  18.712  14.039  0.1559 -0.1724  0.2567
42339OCT     C284678  20.222  18.594  13.762  0.3828 -0.3340  0.0101
42340OCT     C184679  14.631  20.462  20.393 -0.0019  0.0443  0.1672
42340OCT     C284680  14.786  20.426  20.861 -0.1073  0.3381 -0.0964
42341OCT     C184681  16.713  17.199   6.800 -0.0801  0.1643  0.1074
42341OCT     C284682  16.766  17.399   6.364 -0.0442 -0.1897 -0.2748
42342OCT     C184683  16.532   8.227   8.717  0.1532 -0.0275  0.0392
42342OCT     C284684  16.912   8.131   8.478  0.1131 -0.3287 -0.2342
42343OCT     C184685  18.528   7.577  10.826 -0.0270 -0.0869 -0.2357
42343OCT     C284686  18.963   7.673  10.579 -0.0186 -0.1546  0.0142
42344OCT     C184687  10.641  22.560  12.400 -0.0828 -0.0322 -0.1883
42344OCT     C284688  10.226  22.490  12.602  0.1091  0.0387  0.0044
42345OCT     C184689  13.747  17.783   6.533  0.1422  0.1156 -0.0008
42345OCT     C284690  13.289  17.775   6.767  0.1228 -0.0753 -0.5250
42346OCT     C184691   6.131  20.158  10.237  0.0736  0.0606  0.0190
42346OCT     C284692   5.684  20.028  10.164 -0.1738  0.3760  0.0456
42347OCT     C184693  15.038   9.212   1.136  0.1624 -0.1237  0.3841
42347OCT     C284694  14.806   9.458   0.770  0.1427 -0.1196  0.4333
42348OCT     C184695  17.724  18.174  20.750 -0.0360 -0.2011 -0.0701
42348OCT     C284696  17.557  17.780  20.539 -0.0034  0.3030 -0.2222
42349OCT     C184697   7.465   6.159  11.622  0.5448 -0.2410  0.0099
42349OCT     C284698   7.559   5.737  11.813 -0.1038 -0.2324  0.1372
42350OCT     C184699  19.646   3.649   4.899  0.0798  0.0568  0.0305
42350OCT     C284700  20.107   3.655   4.733  0.3085  0.1804 -0.3706
42351OCT     C184701  23.167   0.908  14.429  0.1745 -0.4101 -0.1507
42351OCT     C284702  23.115   0.902  13.997  0.4900  0.1779  0.0777
42352OCT     C184703  17.097   4.438   5.482 -0.2731  0.1104  0.0142
42352OCT     C284704  17.285   4.134   5.807 -0.3204  0.2400 -0.1739
42353OCT     C184705   7.720  17.260   0.948 -0.3132 -0.1254  0.1242
42353OCT     C284706   8.044  17.010   1.230 -0.3696  0.2056 -0.0239
42354OCT     C184707  17.910  23.073  23.184 -0.1368  0.1192 -0.0075
42354OCT     C284708  17.994  23.200  22.779  0.2564 -0.1511 -0.3241
42355OCT     C184709   7.952  17.837  19.309  0.0866 -0.1602 -0.4511
42355OCT     C284710   7.498  17.887  19.342 -0.0015  0.0575  0.0113
42356OCT     C184711  15.503  22.167  20.909  0.1451  0.1119 -0.1487
42356OCT     C284712  15.525  21.939  21.315  0.2496  0.1467  0.2092
42357OCT     C184713  16.111  21.762  13.312 -0.1735 -0.0844  0.3875
42357OCT     C284714  16.371  21.482  13.076  0.3235  0.2735  0.0589
42358OCT     C184715   3.100  15.283   0.315 -0.1949 -0.2283  0.1545
42358OCT     C284716   3.105  14.831   0.375  0.0865  0.3118  0.1813
42359OCT     C184717   4.811   9.904  22.725 -0.0008  0.1353  0.2453
42359OCT     C284718   4.751   9.521  22.936  0.3377  0.1683  0.1933
42360OCT     C184719  19.000  23.400   3.877 -0.0526 -0.2436  0.0819
42360OCT     C284720  19.336  23.510   4.154 -0.2111 -0.3379  0.2245
42361OCT     C184721   7.386  15.129   1.897 -0.0233  0.0346 -0.1355
42361OCT     C284722   7.581  15.504   2.097  0.0029 -0.2232  0.1447
42362OCT     C184723  21.891   7.532   0.796 -0.1137 -0.0306 -0.3591
42362OCT     C284724  22.061   7.465   0.353 -0.2017  0.1290  0.1369
42363OCT     C184725  14.819   6.958   4.832 -0.5547 -0.0139 -0.0065
42363OCT     C284726  14.983   6.569   5.049  0.3157  0.1097  0.1212
42364OCT     C184727  22.892  17.889  10.786  0.2592 -0.1597 -0.4844
42364OCT     C284728  22.505  17.801  11.111  0.1071  0.1132  0.1971
42365OCT     C184729   9.273  13.714  11.388  0.0292 -0.2990 -0.1473
42365OCT     C284730   9.432  13.329  11.157  0.2712 -0.2816 -0.2426
42366OCT     C184731  19.524   0.831  11.310 -0.1133 -0.1245  0.1185
42366OCT     C284732  19.907   0.959  11.508 -0.3224 -0.3896 -0.3345
42367OCT     C184733  10.193  23.009  19.374  0.1227 -0.0785  0.0996
42367OCT     C284734  10.212  22.537  19.395  0.1492 -0.2239 -0.4237
42368OCT     C184735  13.676  16.878  22.226  0.2041  0.2829 -0.2205
42368OCT     C284736  13.806  16.457  22.409  0.1459  0.1515  0.0219
42369OCT     C184737  10.121   1.475  20.150 -0.0067 -0.1211  0.2538
42369OCT     C284738  10.476   1.167  20.171 -0.1039 -0.1814  0.4216
42370OCT     C184739   9.394  12.580   0.446 -0.2970  0.3349  0.3518
42370OCT     C284740   9.259  12.606   0.884  0.1764  0.0723  0.1331
42371OCT     C184741  20.242  14.308  16.772 -0.1029 -0.0099 -0.0824
42371OCT     C284742  19.804  14.296  16.937  0.0912  0.1555  0.0003
42372OCT     C184743  12.721  21.675  15.802  0.1174  0.1875  0.3512
42372OCT     C284744  12.844  22.076  16.061  0.1263  0.1079 -0.0917
42373OCT     C184745  19.595  11.656  12.615 -0.1602  0.2936 -0.1797
42373OCT     C284746  19.779  11.262  12.504  0.3011 -0.1519  0.2047
42374OCT     C184747   0.661  10.288   2.785  0.2671  0.2069  0.1738
42374OCT     C284748   0.710  10.720   2.594  0.0680 -0.5275 -0.3574
42375OCT     C184749   3.759   8.569  16.963  0.0770 -0.0027 -0.1414
42375OCT     C284750   3.928   8.245  16.740 -0.2250 -0.3245 -0.0193
42376OCT     C184751   8.204   5.453   3.446  0.0928 -0.4442 -0.1021
42376OCT     C284752   7.804   5.236   3.634 -0.3875 -0.1571  0.4316
42377OCT     C184753  10.591  20.557  13.670  0.2553  0.0013 -0.0655
42377OCT     C284754  10.344  20.406  13.304 -0.1475 -0.0506  0.0619
42378OCT     C184755  11.594  12.732   8.639 -0.0983 -0.2025  0.1150
42378OCT     C284756  11.400  13.091   8.893 -0.0326 -0.1398  0.3764
42379OCT     C184757  23.372  17.593  15.808 -0.1306  0.1206 -0.1203
42379OCT     C284758  23.179  17.573  16.235  0.0793 -0.1225  0.1769
42380OCT     C184759  11.024   0.537  23.685  0.1065 -0.0370  0.1003
42380OCT     C284760  10.637   0.380   0.183  0.1267  0.2240  0.1688
42381OCT     C184761   7.427  21.946  23.531 -0.4163  0.0816  0.0997
42381OCT     C284762   7.005  21.977  23.632  0.4020  0.4040  0.2904
42382OCT     C184763  12.534   9.204   4.074  0.1662  0.3151 -0.0048
42382OCT     C284764  12.590   9.346   3.636 -0.2514 -0.0258 -0.2109
42383OCT     C184765   0.343   4.253   5.654 -0.1720  0.2825 -0.1826
42383OCT     C284766   0.485   4.001   5.277 -0.1074 -0.2200 -0.2908
42384OCT     C184767  10.273  22.556  20.784  0.1335  0.0669 -0.0264
42384OCT     C284768   9.982  22.952  20.699 -0.0977 -0.2311 -0.0740
42385OCT     C184769  20.350  14.303   0.263  0.0980  0.2766 -0.1406
42385OCT     C284770  19.957  14.035   0.348  0.0419 -0.1267 -0.2447
42386OCT     C184771  16.372  19.445  15.017 -0.0476  0.4013 -0.0410
42386OCT     C284772  15.958  19.330  14.823  0.1826 -0.2314  0.5198
42387OCT     C184773  15.079  22.010  23.482  0.2677 -0.1471  0.0341
42387OCT     C284774  14.894  21.652  23.273  0.5678 -0.0867  0.2752
42388OCT     C184775  20.292   8.035  10.688  0.1770 -0.0139  0.1654
42388OCT     C284776  20.319   8.515  10.831  0.2369  0.2937  0.0368
42389OCT     C184777  21.872  18.145  22.517  0.2846  0.1294  0.2847
42389OCT     C284778  21.490  18.336  22.629 -0.1728 -0.0423 -0.0582
42390OCT     C184779  21.635  12.814  12.981 -0.0571  0.2220  0.1255
42390OCT     C284780  22.147  12.733  13.057 -0.2208 -0.0865  0.2034
42391OCT     C184781   6.737  20.270  14.898 -0.1645 -0.0116 -0.1230
42391OCT     C284782   6.339  20.174  14.966  0.5570 -0.5499  0.0968
42392OCT     C184783   7.462  17.662   1.022  0.0906  0.0819 -0.1497
42392OCT     C284784   7.593  17.919   1.403 -0.4134  0.3435  0.2099
42393OCT     C184785  13.417   8.524  12.343  0.1344  0.4287 -0.0372
42393OCT     C284786  13.228   8.934  12.291  0.2747  0.0520  0.1390
42394OCT     C184787  13.053   3.721  16.826  0.1206 -0.2069 -0.2084
42394OCT     C284788  13.384   3.451  17.124 -0.4329 -0.2673 -0.0166
42395OCT     C184789  14.395  14.393  12.768 -0.3716  0.3145  0.0976
42395OCT     C284790  13.941  14.334  12.702  0.0007 -0.0914 -0.0374
42396OCT     C184791   8.678  14.485  10.243 -0.3144  0.0184 -0.0439
42396OCT     C284792   9.052  14.309  10.159  0.2489 -0.0986  0.0004
42397OCT     C184793  19.012  23.652  12.862 -0.0464 -0.0376 -0.0736
42397OCT     C284794  18.548   0.068  13.026  0.0304  0.2923  0.3310
42398OCT     C184795  15.910  20.457   0.725  0.2973  0.0541 -0.3234
42398OCT     C284796  15.568  20.429   1.094 -0.1124 -0.2916 -0.1849
42399OCT     C184797  11.316  16.765  23.210  0.0405  0.2483  0.1538
42399OCT     C284798  11.254  17.182  23.415  0.1329  0.1487 -0.0375
42400OCT     C184799  16.534   1.561  11.512 -0.3134  0.5598  0.2214
42400OCT     C284800  16.365   1.722  11.103 -0.0303  0.1527 -0.1096
42401OCT     C184801  13.418  10.958   3.110  0.1135 -0.0242  0.2036
42401OCT     C284802  13.453  11.409   3.278  0.0239  0.0725  0.2284
42402OCT     C184803  15.347  13.607   9.144 -0.0109 -0.6127 -0.3742
42402OCT     C284804  15.609  13.769   9.514  0.0265 -0.0820  0.0339
42403OCT     C184805  17.513  22.937  15.416  0.0889  0.0039  0.1646
42403OCT     C284806  17.682  22.523  15.557  0.3504  0.0886  0.3453
42404OCT     C184807  18.670  22.330  20.847  0.0801 -0.1237  0.2586
42404OCT     C284808  18.643  21.967  21.112 -0.0345  0.1813  0.0176
42405OCT     C184809   5.795   4.891  12.167  0.0109  0.0267 -0.1757
42405OCT     C284810   5.652   4.651  11.801  0.0941  0.2259  0.0383
42406OCT     C184811   6.928  21.875   9.147  0.2665 -0.4345  0.0793
42406OCT     C284812   7.169  21.486   9.074  0.0826 -0.1388 -0.5072
42407OCT     C184813  16.616   8.775   4.405 -0.0363  0.2326  0.5176
42407OCT     C284814  16.423   8.535   4.739 -0.0212 -0.1670 -0.1594
42408OCT     C184815  12.410  17.963  17.533 -0.3176  0.0885 -0.4096
42408OCT     C284816  12.144  18.279  17.467  0.2150 -0.1777 -0.1670
42409OCT     C184817   9.458   9.326  15.969 -0.1671  0.1572 -0.0042
42409OCT     C284818   9.840   9.208  15.703 -0.3987 -0.0630 -0.1899
42410OCT     C184819  17.301   9.759  17.416  0.0164  0.2843 -0.1134
42410OCT     C284820  17.556   9.444  17.584 -0.1105 -0.0195 -0.1563
42411OCT     C184821   7.628  15.673   6.900 -0.0913  0.1355  0.0082
42411OCT     C284822   7.509  15.233   6.810  0.2665  0.2777 -0.1665
42412OCT     C184823   4.747  21.121  19.809  0.1440 -0.1225 -0.0219
42412OCT     C284824   4.660  20.689  19.661  0.2820 -0.0869 -0.1318
42413OCT     C184825   9.062  17.132  21.790 -0.1470 -0.0806  0.4115
42413OCT     C284826   9.222  16.742  21.601  0.0482 -0.1785 -0.0296
42414OCT     C184827  11.986   0.893  16.038  0.0342 -0.2101 -0.0102
42414OCT     C284828  12.231   1.053  15.691 -0.0524 -0.3771  0.2149
42415OCT     C184829   5.014  18.576  23.329  0.2520 -0.0536  0.0171
42415OCT     C284830   4.555  18.540  23.296  0.1932  0.1351  0.0908
42416OCT     C184831  21.766  19.461   5.691  0.0420 -0.2494 -0.0519
42416OCT     C284832  22.132  19.360   5.951  0.3714 -0.2766  0.0788
42417OCT     C184833   8.455   5.821   0.913  0.1019 -0.4256 -0.0837
42417OCT     C284834   8.251   5.737   0.466 -0.0526  0.1864  0.2204
42418OCT     C184835   5.203  17.325   6.870  0.0954 -0.0621  0.0168
42418OCT     C284836   5.029  17.601   7.169  0.1459 -0.1517 -0.1898
42419OCT     C184837  12.143   8.534  22.964 -0.1633 -0.1267 -0.1449
42419OCT     C284838  11.708   8.593  23.068 -0.0637  0.3189 -0.3554
42420OCT     C184839  10.159  14.674   3.347  0.0128 -0.0383  0.3129
42420OCT     C284840   9.722  14.742   3.563 -0.0180 -0.1156  0.1748
42421OCT     C184841  19.326  23.094   1.325  0.1030  0.1643 -0.0808
42421OCT     C284842  19.198  23.047   1.773 -0.0802  0.0598 -0.1948
42422OCT     C184843   3.683  19.745   4.109 -0.4247 -0.0276  0.4443
42422OCT     C284844   4.053  19.484   4.210  0.0469 -0.1009  0.0807
42423OCT     C184845  13.367   9.667   0.608 -0.3551  0.1840 -0.2115
42423OCT     C284846  13.231   9.684   0.127 -0.0319 -0.4863 -0.2288
42424OCT     C184847   4.140  14.277  14.703 -0.5947 -0.2952 -0.2007
42424OCT     C284848   4.269  14.735  14.794 -0.2283 -0.2748  0.1264
42425OCT     C184849  19.964  21.412  21.498 -0.0309  0.1315  0.0869
42425OCT     C284850  20.182  21.012  21.675  0.1883 -0.3936  0.2392
42426OCT     C184851  18.906  22.137   6.477 -0.2656 -0.1134  0.0245
42426OCT     C284852  18.905  22.517   6.770  0.0373  0.2513 -0.1557
42427OCT     C184853   7.816  19.245   5.177  0.6004 -0.2410  0.3027
42427OCT     C284854   7.714  18.822   5.012 -0.0487  0.1057  0.0710
42428OCT     C184855  23.609  22.595  20.028  0.0006  0.0214  0.2928
42428OCT     C284856   0.253  22.506  19.770  0.2784 -0.1524  0.2328
42429OCT     C184857   0.018  14.497  21.862 -0.2379 -0.1966  0.2393
42429OCT     C284858   0.061  14.114  22.012  0.4535  0.2557 -0.1915
42430OCT     C184859  17.666   4.358  10.455 -0.1382 -0.0995  0.1853
42430OCT     C284860  17.903   4.134  10.786  0.0921  0.4139  0.0928
42431OCT     C184861  21.532   8.733  11.465 -0.1444  0.2227  0.2358
42431OCT     C284862  21.736   8.345  11.535 -0.0116  0.3400 -0.0508
42432OCT     C184863  11.156  20.561   2.864 -0.1117 -0.1288  0.3563
42432OCT     C284864  11.288  20.401   3.270  0.2118 -0.3130 -0.2257
42433OCT     C184865  21.228  22.753   0.835 -0.1281 -0.0588 -0.2616
42433OCT     C284866  21.141  23.071   1.190 -0.0318  0.3731  0.1396
42434OCT     C184867   6.675  17.621   6.398 -0.4143  0.0967  0.0018
42434OCT     C284868   6.386  17.921   6.408  0.3408 -0.0082  0.0181
42435OCT     C184869   6.114  20.689  22.651 -0.0124  0.1913 -0.1598
42435OCT     C284870   5.927  20.897  22.275  0.4059  0.6367 -0.1849
42436OCT     C184871   0.304   8.162   5.167 -0.1948 -0.1302  0.2102
42436OCT     C284872   0.194   8.018   5.582 -0.1572 -0.0140  0.3059
42437OCT     C184873  20.851  21.791  17.782  0.2002  0.1659  0.0445
42437OCT     C284874  20.688  22.266  17.774  0.2529  0.1607  0.2949
42438OCT     C184875   1.329   8.471  16.755 -0.1349 -0.0652  0.1206
42438OCT     C284876   1.191   8.279  17.169  0.0097 -0.1704  0.3524
42439OCT     C184877  12.445  23.324  10.393 -0.1343 -0.2375 -0.1302
42439OCT     C284878  12.370  23.542  10.068  0.0703  0.2479  0.1597
42440OCT     C184879  21.278  19.557   5.793  0.3937 -0.0302  0.1751
42440OCT     C284880  20.996  19.226   5.688 -0.0484  0.0842 -0.1370
42441OCT     C184881  13.145   4.414   5.895 -0.0607 -0.2775 -0.2332
42441OCT     C284882  13.170   4.034   6.161  0.0206 -0.0044  0.1831
42442OCT     C184883  21.476   8.595  13.754  0.2924  0.0715  0.0315
42442OCT     C284884  21.894   8.738  13.537  0.2992  0.0667  0.1397
42443OCT     C184885   3.710  12.216  18.654 -0.0458 -0.0564 -0.0251
42443OCT     C284886   3.994  12.431  18.918  0.0545 -0.1375  0.0855
42444OCT     C184887  18.720  23.297  23.571 -0.0371  0.1357 -0.0335
42444OCT     C284888  19.028  23.515  23.311  0.3460 -0.3569  0.0172
42445OCT     C184889  20.699   0.443   7.053 -0.1889 -0.2095 -0.4371
42445OCT     C284890  20.418   0.737   7.065  0.1844 -0.1176 -0.5208
42446OCT     C184891   1.862  23.325  19.580 -0.1999  0.1849 -0.2440
42446OCT     C284892   1.931  23.441  20.023 -0.2971 -0.2300  0.1226
42447OCT     C184893   7.584  10.611   3.499 -0.0483 -0.0787  0.0492
42447OCT     C284894   7.753  11.023   3.472 -0.0635 -0.1887  0.4454
42448OCT     C184895  19.867  18.937  11.677 -0.0066 -0.1762  0.1706
42448OCT     C284896  20.133  18.596  11.609  0.0150 -0.1861  0.1844
42449OCT     C184897   5.443  11.566  11.844 -0.1779 -0.2509 -0.1696
42449OCT     C284898   5.470  12.003  12.045  0.1873  0.1282 -0.1849
42450OCT     C184899   8.836  16.528  21.320  0.1396 -0.3394  0.3761
42450OCT     C284900   9.077  16.888  21.137  0.1062  0.2167  0.0443
42451OCT     C184901  18.780  21.154   9.924  0.1260 -0.1874 -0.1093
42451OCT     C284902  18.455  20.828  10.031 -0.1446 -0.1317  0.0352
42452OCT     C184903   6.153  14.817   6.093  0.1066  0.1905  0.0863
42452OCT     C284904   5.784  14.736   5.828  0.1049 -0.2660 -0.3453
42453OCT     C184905  10.982  19.638   9.053  0.1181  0.2103 -0.0863
42453OCT     C284906  11.236  19.704   9.444 -0.1414  0.4829 -0.5420
42454OCT     C184907  18.833  19.674  23.702  0.2564 -0.1249 -0.0445
42454OCT     C284908  19.205  19.960   0.103  0.3102 -0.0653  0.3557
42455OCT     C184909  19.912   5.087  20.157  0.0070  0.0307  0.0664
42455OCT     C284910  19.994   4.628  20.134  0.1320 -0.2650 -0.2735
42456OCT     C184911   4.461  23.672  11.701 -0.1488 -0.0005  0.1725
42456OCT     C284912   4.636  23.279  11.871  0.3441 -0.0896 -0.4017
42457OCT     C184913   7.582  10.769  22.192  0.0960 -0.0260 -0.1794
42457OCT     C284914   7.190  10.990  22.100  0.3953  0.0783  0.1186
42458OCT     C184915   2.584   5.974   1.778 -0.3691  0.0416 -0.0547
42458OCT     C284916   2.172   6.164   1.894 -0.2363  0.2357 -0.2718
42459OCT     C184917   1.332  14.064  20.235  0.1170  0.1789  0.1465
42459OCT     C284918   1.664  14.096  20.522  0.4569  0.1648  0.0941
42460OCT     C184919  18.947  16.852   7.636  0.4151 -0.0513  0.0668
42460OCT     C284920  18.489  16.988   7.541  0.5053  0.0128 -0.1283
42461OCT     C184921  15.171   2.220   7.081  0.1851 -0.1339  0.0577
42461OCT     C284922  15.590   2.084   7.107 -0.0691  0.0339 -0.2231
42462OCT     C184923  11.746   0.707   9.758 -0.2441  0.3318 -0.1188
42462OCT     C284924  12.083   0.737  10.133  0.2145 -0.1676 -0.5364
42463OCT     C184925  11.270  17.247  12.090  0.1363 -0.1772 -0.4689
42463OCT     C284926  11.452  17.716  12.175 -0.3974 -0.0086  0.3577
42464OCT     C184927   9.641  13.990  20.650  0.0303 -0.2780 -0.1053
42464OCT     C284928   9.580  14.379  20.858  0.0294 -0.0593 -0.0762
42465OCT     C184929   2.724  21.976  21.746 -0.1750 -0.0336  0.3136
42465OCT     C284930   2.399  21.809  22.015  0.1003  0.1715  0.0233
42466OCT     C184931   8.376  11.923   1.495 -0.1471 -0.0512  0.1958
42466OCT     C284932   8.458  11.486   1.471 -0.1113  0.1744 -0.1273
42467OCT     C184933   0.792  19.026  10.626  0.0778 -0.2171  0.4006
42467OCT     C284934   0.658  18.964  11.070 -0.5169 -0.3654  0.1259
42468OCT     C184935  23.407  15.825  20.960 -0.2661  0.2510 -0.2328
42468OCT     C284936  23.590  15.755  21.389 -0.1436 -0.2449 -0.1062
42469OCT     C184937   4.593  23.115  14.374  0.0221 -0.1965  0.0107
42469OCT     C284938   4.694  22.656  14.494  0.3567 -0.0813 -0.1243
42470OCT     C184939  22.825   6.295  21.238 -0.0479 -0.3057 -0.2845
42470OCT     C284940  22.676   6.321  20.828  0.2099 -0.1411 -0.2726
42471OCT     C184941  22.187  14.368  10.965  0.0220  0.0603 -0.0008
42471OCT     C284942  21.745  14.536  11.112 -0.0614  0.0395 -0.1109
42472OCT     C184943   5.812  13.768   2.044  0.3551 -0.5259  0.0042
42472OCT     C284944   5.410  13.998   1.893 -0.3652 -0.3364  0.0412
42473OCT     C184945   4.165  16.988  21.201  0.4479 -0.0204 -0.0740
42473OCT     C284946   3.765  17.146  21.516 -0.3533 -0.2747  0.1086
42474OCT     C184947   0.397   2.437  18.882 -0.0960  0.1147  0.1110
42474OCT     C284948   0.097   2.235  18.570  0.1358  0.0901 -0.0372
42475OCT     C184949   2.803   5.341  11.845 -0.0066  0.0621 -0.1715
42475OCT     C284950   2.750   5.565  11.417 -0.2095  0.4567 -0.1736
42476OCT     C184951  18.526   6.790   9.683 -0.1259  0.1137 -0.4186
42476OCT     C284952  18.414   7.066   9.368 -0.2747 -0.0526  0.2172
42477OCT     C184953  15.950   6.141   7.887 -0.3510 -0.1961 -0.1736
42477OCT     C284954  15.612   6.312   7.552 -0.2783  0.3103  0.1895
42478OCT     C184955   6.037   1.188   6.504 -0.4199  0.0040  0.0788
42478OCT     C284956   6.200   1.653   6.598 -0.3092  0.3669  0.0793
42479OCT     C184957  15.042  22.218   4.040  0.0417 -0.4045 -0.0813
42479OCT     C284958  15.430  22.132   3.772  0.1691  0.1471  0.2266
42480OCT     C184959  16.724  13.759   2.529  0.1156 -0.1451 -0.0611
42480OCT     C284960  16.810  13.965   2.143  0.1818  0.2894 -0.0703
42481OCT     C184961  17.777  21.874   0.718  0.0826  0.1227  0.0051
42481OCT     C284962  18.148  21.838   1.063 -0.0457  0.2608  0.1143
42482OCT     C184963  16.175  16.207  18.200  0.4557  0.0996  0.1211
42482OCT     C284964  16.091  16.665  18.299  0.2622  0.1180  0.1508
42483OCT     C184965   0.386  10.687  18.194 -0.1614  0.0703 -0.0832
42483OCT     C284966  23.652  10.637  18.180  0.3235 -0.0741 -0.1200
42484OCT     C184967   8.013  13.531   4.348 -0.1955 -0.1307  0.4072
42484OCT     C284968   7.570  13.291   4.270 -0.0938 -0.0622  0.2243
42485OCT     C184969   8.731   0.954  11.169 -0.4296  0.2550  0.0650
42485OCT     C284970   8.854   0.825  10.658 -0.0419  0.0194 -0.0738
42486OCT     C184971  17.086  19.491  12.570 -0.0761 -0.0800 -0.1109
42486OCT     C284972  16.783  19.832  12.396 -0.1644  0.1714 -0.0816
42487OCT     C184973  21.274  16.935  19.066  0.4198 -0.3054 -0.1015
42487OCT     C284974  21.039  16.984  18.689 -0.4568  0.0260 -0.0828
42488OCT     C184975   1.256   5.284   8.487 -0.2312 -0.4925 -0.1068
42488OCT     C284976   1.126   5.096   8.074 -0.5916 -0.0682  0.2386
42489OCT     C184977  11.954   8.477  11.756  0.4091 -0.1228  0.1686
42489OCT     C284978  12.079   8.622  12.169 -0.3319  0.1457  0.0296
42490OCT     C184979  20.888  18.512  17.343  0.1211 -0.1100 -0.0682
42490OCT     C284980  20.451  18.560  17.174 -0.1324  0.0556 -0.1895
42491OCT     C184981  13.658   0.284  18.626 -0.1290  0.0710  0.2999
42491OCT     C284982  13.561   0.229  18.181 -0.1040 -0.2325 -0.3207
42492OCT     C184983  13.408  18.436  20.671 -0.2645 -0.1634  0.0466
42492OCT     C284984  13.806  18.191  20.612 -0.2179  0.0477  0.0334
42493OCT     C184985   0.580   4.701  13.435  0.0096  0.1133 -0.0455
42493OCT     C284986   0.330   4.719  12.989 -0.1773  0.0255 -0.2969
42494OCT     C184987  22.906  14.676  11.668  0.2426  0.1211  0.0636
42494OCT     C284988  23.314  14.534  11.816  0.2671  0.1579 -0.1920
42495OCT     C184989  19.197  21.088  15.231  0.2279 -0.4629 -0.1339
42495OCT     C284990  18.860  20.965  15.516 -0.2366 -0.1607 -0.1368
42496OCT     C184991   2.167   7.866  23.152  0.1054 -0.2961  0.2003
42496OCT     C284992   2.074   7.754  22.691  0.1499 -0.0580 -0.0277
42497OCT     C184993  11.846  15.290   7.096 -0.1441  0.2718  0.2622
42497OCT     C284994  12.140  15.639   6.937  0.0778 -0.3163  0.2293
42498OCT     C184995  15.494   1.607   8.112 -0.2042  0.1082  0.0660
42498OCT     C284996  15.714   1.484   7.736  0.2467 -0.0838  0.4081
42499OCT     C184997   0.512  13.642   3.780  0.0758  0.0290  0.0838
42499OCT     C284998   0.919  13.875   3.783 -0.1813  0.1931 -0.2493
42500OCT     C184999  22.647  21.541   4.470  0.2987 -0.1432  0.0948
42500OCT     C285000  22.546  21.559   3.994 -0.1942  0.5810  0.0673
42501OCT     C185001   3.856   9.171   8.071  0.1562  0.2878 -0.3167
42501OCT     C285002   4.129   9.335   7.722 -0.4157  0.2882  0.1284
42502OCT     C185003   5.161  22.538   5.839 -0.1579 -0.2403 -0.1059
42502OCT     C285004   4.927  22.679   6.232 -0.2477  0.0428  0.1321
42503OCT     C185005  13.860   2.409   1.215 -0.0351 -0.1240  0.0058
42503OCT     C285006  14.133   2.070   0.992  0.3920 -0.0627  0.3122
42504OCT     C185007   2.722   7.715   7.826 -0.0182 -0.0074  0.1007
42504OCT     C285008   2.931   8.010   7.465  0.0519 -0.2478  0.1653
42505OCT     C185009   5.319  14.670   4.613 -0.2011 -0.0963 -0.2260
42505OCT     C285010   4.910  14.705   4.403 -0.2017 -0.2855 -0.3339
42506OCT     C185011  11.524  15.550   9.636  0.3419  0.1571  0.0945
42506OCT     C285012  11.986  15.560   9.724 -0.2529  0.2420 -0.0579
42507OCT     C185013  11.927   9.513  23.523  0.0338 -0.1891  0.4045
42507OCT     C285014  11.598   9.736  23.192  0.1725  0.2344  0.0637
42508OCT     C185015   9.387  15.924   1.182  0.1416  0.3129  0.3636
42508OCT     C285016   9.514  15.497   0.935  0.1325  0.0111 -0.1056
42509OCT     C185017  15.418   0.782   5.016  0.1025 -0.1300 -0.0854
42509OCT     C285018  15.638   0.562   4.670 -0.1835 -0.0560 -0.4788
42510OCT     C185019   4.951   3.608  10.034  0.0562 -0.0834 -0.0388
42510OCT     C285020   5.071   3.345  10.378  0.0157  0.2112  0.0415
42511OCT     C185021  13.137  15.430  20.014  0.4107 -0.1771  0.6653
42511OCT     C285022  13.105  15.945  20.152  0.4666  0.4740 -0.0676
42512OCT     C185023  14.404  18.684  10.059  0.1177 -0.1916 -0.0486
42512OCT     C285024  14.753  18.958  10.259  0.1776 -0.1165  0.1162
42513OCT     C185025  13.592   8.197  21.006  0.1131  0.1130 -0.2599
42513OCT     C285026  13.403   8.658  21.073 -0.2259  0.0732  0.1411
42514OCT     C185027   0.174  12.380  12.568  0.4371 -0.0977 -0.0187
42514OCT     C285028  23.504  12.497  12.914 -0.0708  0.0008 -0.5032
42515OCT     C185029  20.509  22.803  16.165 -0.0352  0.1568  0.5039
42515OCT     C285030  20.161  22.641  15.785 -0.2659 -0.1849  0.2513
42516OCT     C185031  14.318   4.166  20.378 -0.0179 -0.2915 -0.0703
42516OCT     C285032  14.452   3.822  20.075 -0.1596 -0.2814 -0.3340
42517OCT     C185033   4.494   0.019   4.180  0.0231 -0.0958 -0.0474
42517OCT     C285034   4.400  23.635   3.758  0.0984  0.2716  0.5370
42518OCT     C185035  12.276   7.943  12.303  0.2609 -0.0721 -0.0568
42518OCT     C285036  12.198   7.793  11.846  0.0027  0.5154  0.2511
42519OCT     C185037  14.174  10.011  13.003  0.1194 -0.2247 -0.2334
42519OCT     C285038  14.382   9.577  13.016 -0.0935  0.3329  0.1352
42520OCT     C185039  21.630   4.867   0.661  0.2599 -0.2050  0.0417
42520OCT     C285040  21.953   4.905   0.296  0.0015 -0.0549 -0.0281
42521OCT     C185041  17.748   6.998   0.731 -0.3243 -0.1833  0.1776
42521OCT     C285042  17.870   7.452   0.714  0.1437 -0.1294  0.1969
42522OCT     C185043   1.952  20.405   9.071 -0.2015 -0.0936 -0.5427
42522OCT     C285044   2.002  20.844   9.296  0.0394  0.0098 -0.3638
42523OCT     C185045   6.256  16.599  12.457 -0.2432 -0.0582  0.0394
42523OCT     C285046   6.190  16.826  12.070 -0.4758  0.1608  0.1729
42524OCT     C185047  21.440   4.753   3.459  0.0313 -0.1616  0.0430
42524OCT     C285048  21.527   4.865   3.030  0.1504 -0.0109 -0.2765
42525OCT     C185049  10.155   5.221  20.888  0.3278 -0.0205  0.1116
42525OCT     C285050  10.495   4.995  20.684  0.2145  0.2819  0.0482
42526OCT     C185051  16.541   5.188   0.213  0.0279 -0.0627  0.2011
42526OCT     C285052  16.220   4.891   0.367  0.1103 -0.2159  0.3803
42527OCT     C185053   7.396  17.385   5.481  0.3094  0.1269 -0.1905
42527OCT     C285054   7.411  17.462   5.962  0.0138 -0.0061 -0.0503
42528OCT     C185055   1.209  13.116  20.351  0.2717 -0.0714 -0.2314
42528OCT     C285056   0.780  13.105  20.573  0.1875 -0.1387 -0.0362
42529OCT     C185057  22.729  22.771  11.550 -0.0022  0.1502  0.4688
42529OCT     C285058  22.911  22.464  11.276  0.2904 -0.1266  0.2420
42530OCT     C185059  21.578  11.329   6.605  0.0888  0.3211  0.0539
42530OCT     C285060  21.920  11.440   6.908 -0.0110  0.0928 -0.2066
42531OCT     C185061  15.987  20.108  13.470 -0.0473 -0.0857  0.3112
42531OCT     C285062  16.327  20.259  13.761 -0.1161  0.1795 -0.4198
42532OCT     C185063  21.934  18.055  17.424  0.4920  0.2982  0.2256
42532OCT     C285064  22.355  17.992  17.273  0.2857 -0.2790 -0.1105
42533OCT     C185065  17.020   1.730  14.639 -0.0557 -0.0496 -0.1515
42533OCT     C285066  17.257   2.006  14.317 -0.1021  0.3684 -0.1959
42534OCT     C185067  12.888   1.065  21.716 -0.1505 -0.2739  0.0893
42534OCT     C285068  13.145   1.400  21.902 -0.4248  0.0700 -0.2769
42535OCT     C185069   4.165   6.297  22.356  0.1661 -0.1260  0.2541
42535OCT     C285070   4.406   6.323  21.962 -0.1073  0.3609 -0.1363
42536OCT     C185071  11.919   0.374  22.588 -0.0127 -0.4171  0.1671
42536OCT     C285072  12.160   0.588  22.183  0.0610  0.1262 -0.1382
42537OCT     C185073  17.372   6.739   3.603 -0.2033  0.0472  0.3479
42537OCT     C285074  17.004   6.960   3.678 -0.1150  0.1340 -0.1911
42538OCT     C185075  19.788  14.153   6.089  0.2275 -0.2837  0.1911
42538OCT     C285076  19.965  14.573   6.109 -0.0060  0.0899  0.1177
42539OCT     C185077   6.857   3.346   0.291  0.2034  0.2221  0.0617
42539OCT     C285078   6.480   3.166   0.400 -0.3649  0.0134 -0.2334
42540OCT     C185079  16.663  23.122  20.629  0.2846 -0.1166 -0.3424
42540OCT     C285080  16.665  23.114  20.195  0.0907  0.1635  0.3688
42541OCT     C185081  11.389  15.413   9.139 -0.0912  0.1075 -0.3844
42541OCT     C285082  11.825  15.654   9.255 -0.0634  0.0975  0.1717
42542OCT     C185083  23.036  12.075   3.018 -0.0959  0.0322  0.1099
42542OCT     C285084  22.973  11.615   2.991 -0.0769  0.1851  0.2328
42543OCT     C185085  22.841  10.713   9.918  0.1892 -0.1030  0.3216
42543OCT     C285086  22.519  10.566   9.613  0.2563 -0.1989  0.0026
42544OCT     C185087  12.719   9.091  23.300 -0.1427  0.0208  0.0611
42544OCT     C285088  12.423   9.383  23.409  0.4490  0.0041  0.1443
42545OCT     C185089   6.848  11.081   4.091  0.2240 -0.1398  0.1749
42545OCT     C285090   6.787  10.627   3.887  0.2546  0.1637  0.1050
42546OCT     C185091  16.772  12.522  22.531 -0.0413  0.1282  0.3265
42546OCT     C285092  17.125  12.879  22.433  0.0567 -0.3585  0.0067
42547OCT     C185093  13.901  23.671  17.969 -0.1033  0.2491 -0.1415
42547OCT     C285094  13.890  23.418  17.551  0.1264 -0.2745 -0.3605
42548OCT     C185095  18.446  10.221  22.040  0.1811 -0.0303 -0.4058
42548OCT     C285096  18.112  10.340  22.358  0.1820  0.0957 -0.2374
42549OCT     C185097  15.170  13.116   8.574 -0.2949  0.0405 -0.3023
42549OCT     C285098  14.974  13.291   8.176  0.0286  0.2084  0.2037
42550OCT     C185099  21.092   0.342   9.559  0.3389 -0.2046 -0.0870
42550OCT     C285100  20.933   0.448   9.158  0.2796  0.2787 -0.2781
42551OCT     C185101  18.740  17.261  16.323  0.1917  0.1681 -0.0314
42551OCT     C285102  18.275  17.379  16.243  0.0836 -0.0676 -0.0427
42552OCT     C185103   1.766  20.237  22.622  0.1146 -0.4250 -0.0924
42552OCT     C285104   1.914  19.971  22.945  0.1386  0.1508 -0.0493
42553OCT     C185105  17.194  11.700  21.543 -0.0277 -0.3269  0.1155
42553OCT     C285106  17.149  12.129  21.723  0.0882  0.1574 -0.0590
42554OCT     C185107  23.530   9.463   5.349  0.0048  0.0347  0.0070
42554OCT     C285108  23.596   9.287   4.877 -0.2498  0.2961  0.0910
42555OCT     C185109   2.897   1.938   0.434 -0.0992  0.0820 -0.1112
42555OCT     C285110   3.168   1.573   0.580 -0.0373 -0.2441  0.1903
42556OCT     C185111  22.194   2.984  16.213 -0.0659  0.1760  0.1233
42556OCT     C285112  22.035   2.553  16.134 -0.1276 -0.1503  0.0681
42557OCT     C185113  14.150  21.219   0.421 -0.1345 -0.1152  0.1429
42557OCT     C285114  14.297  20.783   0.231  0.3606 -0.1158  0.0499
42558OCT     C185115   6.360  22.340  14.556  0.1553 -0.0862  0.0033
42558OCT     C285116   6.485  21.912  14.608  0.3695  0.0020 -0.0193
42559OCT     C185117  12.892  12.210  23.515  0.1000 -0.0150  0.2261
42559OCT     C285118  12.649  11.829  23.539 -0.1345  0.0949 -0.3430
42560OCT     C185119  23.485  18.201   9.642  0.4704 -0.2731 -0.0196
42560OCT     C285120  23.282  18.604   9.491 -0.0464 -0.3844  0.2287
42561OCT     C185121   6.127   9.840   6.362 -0.4257 -0.0959 -0.0198
42561OCT     C285122   6.001  10.197   6.124  0.1470 -0.3244  0.1037
42562OCT     C185123   6.992   6.603  14.348 -0.1951  0.1463  0.0644
42562OCT     C285124   6.756   6.223  14.398  0.0353  0.0530  0.0732
42563OCT     C185125  19.984  13.702   9.237 -0.3243 -0.0914  0.2572
42563OCT     C285126  19.896  13.942   8.888 -0.1480 -0.3886  0.0714
42564OCT     C185127   2.825  19.040  11.637 -0.1021 -0.3351 -0.0414
42564OCT     C285128   2.457  18.946  11.400  0.0944 -0.2028  0.2926
42565OCT     C185129   9.685   3.709   6.792  0.4040  0.1057 -0.2518
42565OCT     C285130  10.122   3.705   7.010 -0.1548  0.0602  0.0184
42566OCT     C185131  10.560   2.252  22.459  0.0279 -0.0267  0.3368
42566OCT     C285132  10.288   1.972  22.757 -0.2684  0.0804  0.1915
42567OCT     C185133  22.679   2.054  20.263 -0.3083  0.0225 -0.1400
42567OCT     C285134  22.764   1.995  20.697  0.0883 -0.1562 -0.0484
42568OCT     C185135  10.944  10.877  12.107  0.2131 -0.1429 -0.2583
42568OCT     C285136  10.503  10.791  12.180 -0.2112  0.2490  0.4526
42569OCT     C185137  14.600  10.334  11.757 -0.2371  0.2419 -0.1438
42569OCT     C285138  14.489  10.654  11.463  0.4323 -0.2613  0.1587
42570OCT     C185139   1.959  10.720  12.373  0.3610  0.0232  0.1198
42570OCT     C285140   1.912  10.275  12.317  0.0220  0.1403  0.4044
42571OCT     C185141  16.932   2.851  23.575 -0.0774  0.1245  0.0899
42571OCT     C285142  16.720   3.047  23.213  0.3441  0.1863  0.0483
42572OCT     C185143   7.604   3.200  10.819  0.1985 -0.0309 -0.1522
42572OCT     C285144   7.738   3.327  10.379  0.0459  0.2223  0.0473
42573OCT     C185145   5.542   0.419   5.563  0.3818  0.0264 -0.0498
42573OCT     C285146   5.478   0.043   5.290 -0.0564 -0.3250 -0.1133
42574OCT     C185147   8.624  19.507  15.061 -0.1276 -0.5437  0.3292
42574OCT     C285148   8.675  19.222  14.738 -0.2797  0.1039 -0.2460
42575OCT     C185149  12.578   3.089  14.170 -0.0177  0.2186  0.3189
42575OCT     C285150  12.219   2.753  14.264 -0.1881 -0.0685 -0.1149
42576OCT     C185151  18.706   2.762  15.359 -0.3989  0.1542 -0.0461
42576OCT     C285152  18.763   2.747  14.916 -0.0417  0.1560  0.3007
42577OCT     C185153   4.182  17.982  20.147 -0.0125 -0.1037 -0.1162
42577OCT     C285154   4.099  17.525  20.082 -0.2162  0.2259 -0.2058
42578OCT     C185155  19.106  17.335  10.787  0.1459 -0.3563 -0.0106
42578OCT     C285156  18.704  17.134  10.702 -0.0789  0.2421  0.0436
42579OCT     C185157  17.478   5.961  21.259 -0.3969 -0.2337 -0.1861
42579OCT     C285158  17.224   5.548  21.150 -0.0686 -0.1539  0.2177
42580OCT     C185159  11.468  13.859  13.775 -0.1795  0.1361 -0.0781
42580OCT     C285160  11.082  13.707  13.655 -0.1149 -0.0155  0.0547
42581OCT     C185161   5.402   4.034  22.818 -0.1824  0.1395 -0.1623
42581OCT     C285162   5.490   3.645  22.601 -0.2138 -0.1993 -0.0736
42582OCT     C185163  21.057   1.828  15.219  0.1697  0.1710 -0.3029
42582OCT     C285164  21.276   1.537  15.581  0.1008  0.0195  0.1143
42583OCT     C185165  10.231  12.138   3.513  0.2651 -0.6032  0.1225
42583OCT     C285166  10.454  12.445   3.254 -0.1198 -0.2363 -0.0103
42584OCT     C185167  12.567   4.111  21.130  0.0184  0.0478 -0.1266
42584OCT     C285168  12.386   3.669  21.201 -0.3729  0.0514 -0.0309
42585OCT     C185169   9.866   6.448   2.668  0.2815 -0.1771  0.3435
42585OCT     C285170   9.659   6.459   2.275 -0.1275 -0.0355 -0.1175
42586OCT     C185171   5.367  18.273   1.000 -0.0848 -0.2967 -0.3001
42586OCT     C285172   5.359  18.560   1.339 -0.4486 -0.2676  0.2092
42587OCT     C185173  23.435  10.840   6.005 -0.0912  0.1821 -0.2876
42587OCT     C285174  23.614  11.267   5.981 -0.0401  0.6098  0.0671
42588OCT     C185175   8.516   2.883  21.420 -0.0296 -0.2606  0.0288
42588OCT     C285176   8.384   3.219  21.737  0.3840 -0.1337 -0.3617
42589OCT     C185177  21.730  11.916  15.397  0.1172 -0.3107 -0.1529
42589OCT     C285178  21.783  11.896  14.959 -0.0436 -0.2635  0.6231
42590OCT     C185179  21.991  10.063   4.625  0.0820  0.5241 -0.1235
42590OCT     C285180  22.299  10.238   4.352  0.2905 -0.0354 -0.2022
42591OCT     C185181  20.884   8.898   7.713 -0.0948 -0.5566 -0.0422
42591OCT     C285182  21.115   9.133   7.964 -0.2944 -0.0637 -0.1352
42592OCT     C185183  23.006   0.850  21.475  0.0342 -0.2436 -0.2168
42592OCT     C285184  22.918   0.702  21.872  0.1127  0.0582 -0.0542
42593OCT     C185185  16.382  12.812  12.850 -0.3588  0.1245 -0.2260
42593OCT     C285186  16.793  12.854  12.992 -0.1277  0.4828 -0.1359
42594OCT     C185187  19.733  22.693   2.267  0.3498  0.2097  0.4000
42594OCT     C285188  19.738  22.380   2.618 -0.0569  0.2804  0.1884
42595OCT     C185189  19.669  23.496  12.178  0.3734  0.5115 -0.0415
42595OCT     C285190  19.570   0.236  12.117 -0.0732  0.2622 -0.0420
42596OCT     C185191  17.817  20.100  15.326 -0.5607 -0.0344 -0.2975
42596OCT     C285192  18.057  19.693  15.306 -0.1109  0.4082  0.2970
42597OCT     C185193   5.003  23.414  14.210  0.2684  0.3773  0.2100
42597OCT     C285194   4.728  23.683  14.020 -0.0757 -0.0637 -0.0093
42598OCT     C185195  15.765  14.182  14.726 -0.4062 -0.0472  0.0311
42598OCT     C285196  15.915  13.805  14.727  0.1988 -0.0207 -0.3653
42599OCT     C185197   0.842  17.541   2.900 -0.0470 -0.0927  0.0585
42599OCT     C285198   0.379  17.501   3.017 -0.1261 -0.0553 -0.1686
42600OCT     C185199  19.609  13.094  18.618 -0.1322  0.0488  0.1567
42600OCT     C285200  19.599  13.012  19.052  0.1769 -0.1327  0.4794
42601OCT     C185201  15.494   4.660   9.451 -0.0696 -0.2146  0.2234
42601OCT     C285202  15.742   4.335   9.703 -0.0541  0.3709  0.1164
42602OCT     C185203  14.571  16.944   3.473 -0.3847 -0.0023 -0.3595
42602OCT     C285204  14.934  17.201   3.674 -0.0528  0.1649 -0.0324
42603OCT     C185205  18.878  18.961  10.998  0.0264 -0.0533  0.1904
42603OCT     C285206  18.796  19.217  10.626  0.2450 -0.0625 -0.0039
42604OCT     C185207   6.544   8.737   6.538 -0.1286 -0.1260  0.1924
42604OCT     C285208   6.601   8.569   6.998  0.0093  0.0426 -0.0914
42605OCT     C185209  23.671   0.012   8.322 -0.1069  0.1068  0.2576
42605OCT     C285210  23.620  23.281   8.172 -0.1504 -0.0846  0.1795
42606OCT     C185211   0.556  12.093   4.829 -0.1830 -0.1100  0.1945
42606OCT     C285212   0.961  11.812   4.675  0.0637  0.2142  0.0512
42607OCT     C185213  23.144   5.375   2.833 -0.1381 -0.0176 -0.0086
42607OCT     C285214  23.247   5.375   3.236 -0.2219 -0.1695  0.0186
42608OCT     C185215  18.214   3.509  14.488 -0.0267  0.0768  0.0028
42608OCT     C285216  18.142   3.116  14.215  0.1671  0.1662 -0.0611
42609OCT     C185217  12.240   3.460   5.695 -0.5029  0.1334  0.2115
42609OCT     C285218  12.651   3.730   5.862  0.3291  0.2503 -0.0464
42610OCT     C185219   8.008  12.079  10.424  0.2938 -0.0920  0.2822
42610OCT     C285220   8.452  12.229  10.511  0.0451 -0.2214  0.2178
42611OCT     C185221  18.254   3.878  18.471  0.1701  0.2243 -0.2682
42611OCT     C285222  17.860   4.146  18.432 -0.0793 -0.1274 -0.1682
42612OCT     C185223  13.413   2.983  16.148  0.1874  0.2133  0.0648
42612OCT     C285224  13.441   3.278  15.761 -0.0560 -0.0757 -0.0922
42613OCT     C185225  10.220  13.578  17.589 -0.2577 -0.2779  0.0659
42613OCT     C285226  10.591  13.773  17.288 -0.3831  0.2215 -0.0719
42614OCT     C185227  18.543  11.614  13.302  0.0108 -0.1301  0.0765
42614OCT     C285228  18.727  11.644  13.732 -0.0620  0.0325  0.0776
42615OCT     C185229  23.053   3.266  14.496  0.2706 -0.4353  0.0201
42615OCT     C285230  23.220   3.648  14.377  0.0573 -0.0712 -0.1643
42616OCT     C185231  16.389   9.664  11.644  0.1405  0.2085 -0.0875
42616OCT     C285232  16.831   9.733  11.455  0.0804  0.2358  0.0848
42617OCT     C185233  10.295   8.612  14.530  0.2376 -0.1578  0.1841
42617OCT     C285234  10.219   8.831  14.943  0.2135  0.0747 -0.0355
42618OCT     C185235   3.509   8.603   7.191  0.1725 -0.2849 -0.1221
42618OCT     C285236   3.756   8.952   7.072  0.0830 -0.5672  0.1081
42619OCT     C185237   3.684   9.470   8.845  0.0826 -0.4668 -0.1779
42619OCT     C285238   3.386   9.156   8.899 -0.0560 -0.7357  0.0106
42620OCT     C185239  15.497   8.433  18.970  0.0656 -0.3345 -0.3616
42620OCT     C285240  15.499   8.090  18.684 -0.1120  0.2574  0.2440
42621OCT     C185241  11.182  14.964   5.871  0.1314  0.1007  0.0864
42621OCT     C285242  10.787  15.137   6.028 -0.1944 -0.0959 -0.0891
42622OCT     C185243  21.289  14.098  17.393 -0.3337 -0.0154  0.1968
42622OCT     C285244  21.606  13.973  17.119 -0.0919 -0.2229  0.3673
42623OCT     C185245  16.034  11.914   3.512 -0.3368  0.0002  0.0607
42623OCT     C285246  15.718  11.645   3.236  0.4460 -0.1742  0.0118
42624OCT     C185247  17.004  11.424  20.493  0.0521 -0.0675  0.0292
42624OCT     C285248  17.173  11.001  20.323  0.4661  0.3837  0.1818
42625OCT     C185249  13.527   6.544  17.415  0.1281 -0.1831 -0.2517
42625OCT     C285250  13.191   6.524  17.766  0.4141 -0.2492  0.0538
42626OCT     C185251   3.627  20.921   9.800 -0.1255  0.1351  0.2759
42626OCT     C285252   3.633  20.650  10.126  0.2676 -0.2936 -0.1774
42627OCT     C185253  15.268  23.227   1.850 -0.5038 -0.3254 -0.1852
42627OCT     C285254  14.974  22.995   1.536  0.3617  0.0326  0.2019
42628OCT     C185255   9.400  19.399   8.277 -0.1146 -0.1287  0.0984
42628OCT     C285256   9.550  19.313   7.812 -0.2743  0.1872 -0.1068
42629OCT     C185257  10.178  10.503  19.169 -0.3898 -0.1107 -0.1975
42629OCT     C285258   9.933  10.680  19.501  0.1083 -0.0201 -0.0662
42630OCT     C185259   0.251   1.348  23.110  0.0554 -0.0785  0.2906
42630OCT     C285260  23.739   0.974  23.038 -0.2362 -0.0976  0.2217
42631OCT     C185261  13.867  21.519   4.141  0.0327 -0.1652 -0.1303
42631OCT     C285262  13.569  21.337   3.843  0.0383 -0.1210 -0.3123
42632OCT     C185263  20.204  18.482   7.925  0.2723 -0.0772 -0.2762
42632OCT     C285264  20.004  18.603   8.359  0.3394  0.2178  0.0868
42633OCT     C185265  13.585  21.837   5.962  0.0022  0.1260  0.3234
42633OCT     C285266  13.726  21.526   6.236 -0.2179 -0.2894 -0.1025
42634OCT     C185267  22.577   5.738  18.762 -0.0136 -0.1095  0.2353
42634OCT     C285268  22.730   5.711  18.293 -0.0461  0.2073 -0.2079
42635OCT     C185269  10.052  19.979  12.426 -0.3277  0.2302 -0.1793
42635OCT     C285270  10.165  19.546  12.207 -0.2871 -0.3055  0.3401
42636OCT     C185271   0.973  13.212   0.784 -0.2516 -0.2835 -0.0835
42636OCT     C285272   1.292  12.961   0.939  0.4927  0.1989 -0.0653
42637OCT     C185273   8.613  11.296  18.509 -0.0547  0.2388  0.1794
42637OCT     C285274   8.886  11.454  18.847 -0.1151 -0.0624 -0.0123
42638OCT     C185275  18.188   4.853   0.085 -0.0176 -0.3020 -0.0445
42638OCT     C285276  17.731   4.893   0.137 -0.3338 -0.1738  0.0198
42639OCT     C185277  10.756   2.995  14.928 -0.0749 -0.1310  0.3523
42639OCT     C285278  10.643   2.872  15.320 -0.0746  0.1073 -0.0775
42640OCT     C185279   2.307  14.431   1.500 -0.3973 -0.1038  0.0148
42640OCT     C285280   2.424  14.710   1.871 -0.1361  0.4297 -0.3210
42641OCT     C185281  22.447  13.420  22.339 -0.0770  0.0625 -0.2077
42641OCT     C285282  22.428  13.876  22.178 -0.1353 -0.1306 -0.1768
42642OCT     C185283   1.370  11.204   7.147  0.0721  0.0315  0.1073
42642OCT     C285284   1.337  11.264   7.612 -0.0858  0.2903  0.2810
42643OCT     C185285  23.021   8.191  18.414 -0.0918  0.1200 -0.2310
42643OCT     C285286  23.151   8.557  18.678  0.0155 -0.6818  0.0971
42644OCT     C185287   3.674   3.600   6.752 -0.2060  0.2562 -0.2358
42644OCT     C285288   3.742   4.042   6.776  0.2343 -0.2200 -0.0023
42645OCT     C185289   3.995  15.650   6.402 -0.3415  0.0083 -0.1574
42645OCT     C285290   3.652  15.768   6.050  0.0998  0.2889 -0.2100
42646OCT     C185291   8.779   3.757   2.721  0.0823  0.2334 -0.0704
42646OCT     C285292   9.210   3.666   2.958  0.1447  0.1781  0.3402
42647OCT     C185293  15.799  21.955  14.860  0.1586 -0.1140 -0.1985
42647OCT     C285294  15.708  21.964  14.395 -0.1004 -0.1302 -0.2229
42648OCT     C185295   6.175   0.272  17.290 -0.2030 -0.0335 -0.3359
42648OCT     C285296   5.998   0.664  17.497 -0.0555 -0.5244  0.4195
42649OCT     C185297  16.474  15.481  14.123  0.0346 -0.3609  0.4116
42649OCT     C285298  16.611  15.634  14.539 -0.2769 -0.1099  0.5562
42650OCT     C185299   6.056  18.444  11.015 -0.0869 -0.0217 -0.2843
42650OCT     C285300   6.332  18.497  10.657  0.0545  0.3389  0.1052
42651OCT     C185301   2.181   8.214   4.131  0.0398 -0.0655  0.3597
42651OCT     C285302   1.897   8.636   4.112  0.3036  0.0894 -0.1609
42652OCT     C185303  21.924   7.060   7.484  0.2346  0.1001 -0.2092
42652OCT     C285304  21.953   7.033   8.000  0.1877  0.2868  0.0008
42653OCT     C185305  18.856  22.935  11.716  0.1156  0.1631  0.0711
42653OCT     C285306  18.747  22.537  11.945 -0.0051  0.0854  0.0425
42654OCT     C185307  11.242   6.249  20.649  0.0204 -0.1006  0.0791
42654OCT     C285308  11.337   5.873  20.996 -0.1449  0.2738  0.1034
42655OCT     C185309   0.199   4.778  10.355  0.0066  0.2239  0.0663
42655OCT     C285310   0.294   5.018  10.753 -0.1103 -0.1076 -0.3479
42656OCT     C185311   3.365  13.631  11.463  0.0932 -0.1358  0.0413
42656OCT     C285312   3.456  14.014  11.717  0.2051  0.1888  0.0732
42657OCT     C185313  13.823  22.567   3.343 -0.0948 -0.2215 -0.1763
42657OCT     C285314  13.903  23.060   3.284  0.2876 -0.0903 -0.0238
42658OCT     C185315   3.273  17.626  15.629  0.0039 -0.2415  0.1722
42658OCT     C285316   2.869  17.428  15.583  0.2695  0.1962 -0.0992
42659OCT     C185317  15.433  20.399  22.956 -0.0621  0.3912 -0.0753
42659OCT     C285318  15.778  20.673  22.855  0.3804 -0.0263  0.4083
42660OCT     C185319   8.780   9.145   5.752  0.1376 -0.0869  0.3326
42660OCT     C285320   8.343   8.924   5.911 -0.0505  0.0844  0.2014
42661OCT     C185321   0.875   1.791   8.894  0.0061  0.1231  0.0864
42661OCT     C285322   1.146   2.158   8.880  0.0041  0.1731  0.0943
42662OCT     C185323  16.059   1.332  20.408 -0.0624  0.1691  0.0838
42662OCT     C285324  16.025   1.077  20.022  0.2040  0.1609  0.2426
42663OCT     C185325  17.589   1.813  10.463 -0.2258  0.0304 -0.1971
42663OCT     C285326  17.506   1.365  10.408 -0.3064 -0.1183 -0.0692
42664OCT     C185327   5.352  15.745   1.081  0.1264 -0.1036  0.1356
42664OCT     C285328   5.182  16.130   0.807 -0.1125 -0.1699  0.1027
42665OCT     C185329   7.633  10.989   0.637  0.0819  0.2580  0.2626
42665OCT     C285330   7.806  11.296   0.935 -0.0812  0.0307 -0.1292
42666OCT     C185331  18.873  14.262   1.220 -0.1878 -0.0323 -0.0265
42666OCT     C285332  18.963  14.401   1.686  0.0879  0.0599  0.1768
42667OCT     C185333  16.963   1.048  18.066 -0.2393  0.1019 -0.0258
42667OCT     C285334  16.821   1.478  18.200 -0.4680  0.0040 -0.0515
42668OCT     C185335   3.979  12.872  23.339  0.0323 -0.0616 -0.1420
42668OCT     C285336   4.120  13.351  23.403  0.0112  0.0511  0.4050
42669OCT     C185337   4.139   8.415   9.669  0.0932 -0.3367 -0.1583
42669OCT     C285338   4.526   8.637   9.509  0.0311  0.2293 -0.1494
42670OCT     C185339  21.475  19.206  19.111 -0.0560 -0.4630  0.3431
42670OCT     C285340  21.631  19.325  19.567  0.1740  0.0140  0.2775
42671OCT     C185341   7.808   7.898  19.163 -0.2296 -0.1863  0.2683
42671OCT     C285342   8.265   7.886  19.063 -0.1978 -0.2710  0.0989
42672OCT     C185343  19.677  22.797  16.312  0.0651 -0.5427  0.1833
42672OCT     C285344  19.585  23.221  16.431 -0.0260  0.1040  0.0823
42673OCT     C185345  19.835   9.225   8.920 -0.1253  0.1207 -0.3449
42673OCT     C285346  19.637   8.853   8.701 -0.1097  0.0318  0.0515
42674OCT     C185347  21.891  18.608   3.189 -0.2550 -0.0165 -0.3612
42674OCT     C285348  21.646  18.262   3.002 -0.0442 -0.0980 -0.0861
42675OCT     C185349   8.936  12.034   3.583  0.1235  0.1484 -0.1374
42675OCT     C285350   9.138  11.591   3.524 -0.0861 -0.5064  0.1482
42676OCT     C185351   4.005  10.504  20.115  0.1361 -0.1587 -0.1065
42676OCT     C285352   3.595  10.533  19.889  0.0694  0.2246 -0.6139
42677OCT     C185353   9.328  10.778  15.707 -0.1499  0.3199  0.1735
42677OCT     C285354   9.149  11.192  15.654  0.4745  0.2502 -0.4427
42678OCT     C185355  23.038  12.321  20.878 -0.0121 -0.2019 -0.1987
42678OCT     C285356  23.018  12.774  20.950  0.2579  0.1048  0.2389
42679OCT     C185357  15.832  16.958   2.778 -0.2616  0.0293 -0.4816
42679OCT     C285358  16.113  16.913   2.442  0.0624 -0.1289  0.1925
42680OCT     C185359  10.461  12.992  12.820  0.0912  0.1760  0.1020
42680OCT     C285360  10.825  13.203  12.851  0.2436 -0.0197 -0.1478
42681OCT     C185361   3.719   8.138  21.566 -0.0683  0.0071 -0.1004
42681OCT     C285362   3.684   8.349  21.986 -0.1003 -0.3418  0.3348
42682OCT     C185363   9.417  13.735  21.144  0.2111  0.4811  0.1887
42682OCT     C285364   9.275  13.688  21.596 -0.3747 -0.1098 -0.4347
42683OCT     C185365  10.334  20.972  12.830  0.1274  0.0385  0.0498
42683OCT     C285366  10.240  20.576  12.755 -0.2152  0.0307  0.1369
42684OCT     C185367  11.539   9.882   6.686 -0.1510  0.0514 -0.0042
42684OCT     C285368  11.715   9.658   7.013  0.0845 -0.0283 -0.0589
42685OCT     C185369  20.687  23.130  18.473 -0.1062 -0.0366  0.2490
42685OCT     C285370  20.531  23.520  18.752 -0.1309  0.1882 -0.1297
42686OCT     C185371   0.505   3.480  16.602 -0.1244  0.0357  0.1832
42686OCT     C285372   0.515   3.812  16.945 -0.3271 -0.0153 -0.2028
42687OCT     C185373   0.471   1.293   5.098 -0.2730  0.2396  0.1316
42687OCT     C285374   0.465   0.876   5.315 -0.0851  0.0175 -0.2973
42688OCT     C185375  12.641   8.412   7.320  0.1654  0.3682  0.3830
42688OCT     C285376  12.684   8.266   7.733 -0.0525  0.0543 -0.3109
42689OCT     C185377   6.983  22.221  11.924  0.4809 -0.1115  0.2114
42689OCT     C285378   6.808  22.618  11.929 -0.0662  0.1113 -0.0457
42690OCT     C185379  21.872  11.415  18.699 -0.3102  0.0902  0.2077
42690OCT     C285380  22.170  11.506  18.372  0.0742 -0.4177  0.0864
42691OCT     C185381  13.085  18.262  15.916  0.0595  0.1233 -0.1552
42691OCT     C285382  12.695  18.513  16.127 -0.3039 -0.0677  0.0865
42692OCT     C185383   5.411  16.778  14.816  0.0732  0.0159  0.0745
42692OCT     C285384   5.430  16.703  15.254  0.4089  0.0739 -0.0471
42693OCT     C185385  18.972   5.625   8.196  0.1877  0.1232 -0.3639
42693OCT     C285386  19.275   5.906   8.070  0.1183 -0.0551  0.2110
42694OCT     C185387  21.493  19.170  12.570 -0.3745 -0.5204 -0.1830
42694OCT     C285388  21.117  18.861  12.565  0.3470  0.1395 -0.1921
42695OCT     C185389  23.197  16.979   4.216 -0.2053 -0.3013  0.1542
42695OCT     C285390  23.070  16.506   4.237 -0.0424 -0.3133  0.0523
42696OCT     C185391  21.878   7.041  13.606 -0.0511  0.2424 -0.1901
42696OCT     C285392  21.670   6.632  13.617 -0.1376  0.2762 -0.5616
42697OCT     C185393  13.385  13.252  12.021 -0.2242  0.2668 -0.2317
42697OCT     C285394  13.772  12.969  12.234 -0.1591 -0.0854  0.4084
42698OCT     C185395  15.340   9.919  15.659  0.1534 -0.2302 -0.4610
42698OCT     C285396  15.254   9.761  15.257 -0.0020 -0.3352  0.0130
42699OCT     C185397   3.481   3.527  18.546  0.0680  0.3684  0.0656
42699OCT     C285398   3.532   3.436  18.073 -0.1829  0.4253  0.1961
42700OCT     C185399   0.699  20.766   0.523 -0.0143  0.3380 -0.0562
42700OCT     C285400   0.976  20.539   0.210  0.1083  0.0291 -0.1180
42701OCT     C185401   7.802   9.095  13.199  0.1744  0.3664  0.1910
42701OCT     C285402   7.460   8.788  13.252 -0.2698  0.4181 -0.0237
42702OCT     C185403   6.537  20.608   0.395  0.5086  0.1866 -0.0976
42702OCT     C285404   6.693  20.442   0.017  0.0082  0.2270  0.2970
42703OCT     C185405  22.879   7.009  19.379 -0.1256 -0.2071  0.1515
42703OCT     C285406  22.830   7.322  19.016  0.1155 -0.1672 -0.0343
42704OCT     C185407  19.391   7.338   7.743  0.1327 -0.4236  0.4383
42704OCT     C285408  19.847   7.517   7.744  0.0303  0.2016  0.0479
42705OCT     C185409  23.667   6.765  18.678 -0.2675  0.1779 -0.0709
42705OCT     C285410  23.599   6.525  19.070 -0.0061  0.0277 -0.2355
42706OCT     C185411   1.986   8.126   7.445  0.0394 -0.2379 -0.1884
42706OCT     C285412   1.661   8.085   7.799  0.0718  0.1557  0.0765
42707OCT     C185413   3.484  11.906  15.268  0.0811  0.4541 -0.2501
42707OCT     C285414   3.249  12.185  14.949  0.0284  0.1143  0.2655
42708OCT     C185415   5.235   3.401   5.114  0.0459 -0.0863 -0.0438
42708OCT     C285416   4.820   3.528   5.057  0.0426 -0.0547  0.0045
42709OCT     C185417  17.771   6.597   3.154 -0.0943  0.0038  0.0509
42709OCT     C285418  17.335   6.773   3.094 -0.1979  0.2347  0.3891
42710OCT     C185419  19.878   5.935   2.009 -0.5232 -0.1417 -0.0872
42710OCT     C285420  20.168   6.132   1.806  0.1041 -0.0656 -0.0829
42711OCT     C185421   3.134  19.830   2.262 -0.1497 -0.1140 -0.1644
42711OCT     C285422   2.790  19.533   2.283  0.1834  0.4701  0.1236
42712OCT     C185423  14.655   7.610  16.360  0.0257  0.1665 -0.0818
42712OCT     C285424  14.862   7.434  16.722 -0.3747  0.1816 -0.0238
42713OCT     C185425   3.151   3.331   2.469  0.0817  0.0048  0.2807
42713OCT     C285426   2.723   3.569   2.540 -0.0180 -0.2502  0.0011
42714OCT     C185427  12.549  12.526   0.431  0.2232 -0.1846  0.0768
42714OCT     C285428  12.095  12.379   0.409  0.0450  0.0232  0.0076
42715OCT     C185429   6.039   4.159   9.104  0.0588  0.0007 -0.1105
42715OCT     C285430   5.651   4.154   8.897  0.0754  0.1361 -0.1867
42716OCT     C185431   7.309  22.522  12.146  0.2817 -0.5181 -0.5305
42716OCT     C285432   7.461  22.261  12.523  0.0662  0.2600  0.2564
42717OCT     C185433   1.537   3.554   0.569 -0.1224 -0.1880  0.1668
42717OCT     C285434   1.779   3.770   0.214  0.2130 -0.0539 -0.2496
42718OCT     C185435   5.179   9.591   8.829  0.1141  0.0371 -0.2937
42718OCT     C285436   5.333  10.014   9.019  0.0339  0.0789 -0.0788
42719OCT     C185437  10.449  18.996   2.940  0.2784  0.0263 -0.1540
42719OCT     C285438  10.905  19.142   2.934  0.0549  0.0580  0.2681
42720OCT     C185439   8.494  20.256  15.626  0.2729  0.0552  0.1619
42720OCT     C285440   8.646  20.115  15.170  0.2571  0.0889 -0.0968
42721OCT     C185441   3.205   8.771   0.692  0.0717  0.2846  0.1230
42721OCT     C285442   3.056   8.866   1.131 -0.3043  0.3151 -0.0429
42722OCT     C185443  16.144  12.840   3.988 -0.0013 -0.3486 -0.2010
42722OCT     C285444  15.952  12.911   3.591  0.0331 -0.0618 -0.2576
42723OCT     C185445  11.877   4.238  20.392  0.2247  0.0482 -0.1202
42723OCT     C285446  12.028   3.791  20.517 -0.1190 -0.1052 -0.1219
42724OCT     C185447  21.904   5.151  20.497  0.0173 -0.1434  0.0138
42724OCT     C285448  21.409   5.149  20.478  0.5099  0.3269 -0.2647
42725OCT     C185449  16.705  20.248   6.867  0.0159  0.0609 -0.0784
42725OCT     C285450  16.669  20.691   6.744 -0.2840  0.2779 -0.1548
42726OCT     C185451   9.619  19.522   2.930 -0.1485 -0.0792  0.3783
42726OCT     C285452   9.642  19.938   2.734  0.1034  0.0028  0.0950
42727OCT     C185453  12.876  11.134  20.989 -0.2320 -0.1417 -0.0753
42727OCT     C285454  12.932  11.525  20.743 -0.1633 -0.1144  0.3461
42728OCT     C185455  18.377  17.975  20.893  0.0699  0.2302  0.2163
42728OCT     C285456  18.580  17.861  20.459 -0.0774  0.1426 -0.1308
42729OCT     C185457  10.739   1.594   4.508  0.0324 -0.0376 -0.0265
42729OCT     C285458  11.125   1.716   4.422 -0.2631  0.1167 -0.1614
42730OCT     C185459  16.172   6.105  10.221 -0.1319 -0.3989 -0.1593
42730OCT     C285460  16.089   5.708  10.005 -0.3196 -0.0508  0.3011
42731OCT     C185461   4.064  17.713  19.587 -0.2667  0.1979  0.1135
42731OCT     C285462   4.320  17.326  19.639 -0.1732 -0.1645  0.0134
42732OCT     C185463  17.226   3.878  19.440 -0.2986 -0.1623  0.2346
42732OCT     C285464  17.221   3.954  19.918  0.2240  0.2045  0.0805
42733OCT     C185465   1.132   4.201   1.406 -0.0773  0.1491 -0.0073
42733OCT     C285466   1.054   4.385   1.018  0.0826  0.0437  0.4119
42734OCT     C185467  15.876   2.677   8.646 -0.0477 -0.5400  0.0903
42734OCT     C285468  15.698   2.580   8.247  0.1558 -0.3930  0.0806
42735OCT     C185469   5.817  20.705   6.927 -0.1321  0.0255  0.2434
42735OCT     C285470   6.225  20.584   6.815  0.0201  0.0038  0.0683
42736OCT     C185471  10.710  19.149  22.493 -0.2064 -0.4877  0.3416
42736OCT     C285472  11.021  19.371  22.187  0.1782 -0.0486  0.0609
42737OCT     C185473   6.443  11.447   3.142  0.1041  0.1789  0.0688
42737OCT     C285474   6.058  11.356   3.337 -0.0738  0.1354  0.0632
42738OCT     C185475   2.647   7.147   9.659  0.3195 -0.4155 -0.2455
42738OCT     C285476   2.926   7.243   9.965  0.1376 -0.4271  0.1115
42739OCT     C185477   3.900  10.660  11.493  0.2339  0.1420  0.1140
42739OCT     C285478   3.706  10.239  11.356  0.2561  0.1287 -0.1125
42740OCT     C185479   6.076  10.262  13.436  0.0468  0.0170 -0.2007
42740OCT     C285480   6.029  10.584  13.778 -0.0009 -0.3789 -0.0194
42741OCT     C185481  10.639  22.020   2.445  0.0227  0.1562 -0.0868
42741OCT     C285482  10.442  21.615   2.425  0.0708  0.1678 -0.2288
42742OCT     C185483  16.521  18.113  18.561  0.1121 -0.1412 -0.3243
42742OCT     C285484  16.763  17.803  18.754 -0.2505 -0.3868 -0.3189
42743OCT     C185485   5.857  10.210   4.811 -0.2153  0.3824 -0.1689
42743OCT     C285486   5.893   9.853   4.484 -0.0352 -0.2823 -0.5542
42744OCT     C185487  10.472   0.022  20.422  0.4217 -0.3513  0.1933
42744OCT     C285488  10.379   0.495  20.418 -0.1548 -0.0715 -0.0306
42745OCT     C185489   8.966   6.924   4.626  0.1122 -0.1078 -0.1859
42745OCT     C285490   9.037   6.625   4.242  0.1225  0.0569 -0.1603
42746OCT     C185491   9.046   0.546  12.944  0.0397 -0.6158 -0.0159
42746OCT     C285492   8.716   0.419  13.222  0.0716 -0.0616 -0.1228
42747OCT     C185493   7.388  23.323  17.136  0.1072 -0.0880  0.3949
42747OCT     C285494   7.064  23.163  16.875  0.2518  0.2090  0.0581
42748OCT     C185495  14.846  22.503  10.592 -0.2768  0.0752  0.1028
42748OCT     C285496  14.916  22.400  10.131  0.0725  0.6069 -0.2612
42749OCT     C185497   9.564  10.744  12.151  0.1572  0.2762  0.0114
42749OCT     C285498   9.182  10.721  12.466 -0.1147 -0.3092  0.1060
42750OCT     C185499  13.580  22.911   4.374  0.0262  0.0822 -0.4333
42750OCT     C285500  13.596  23.383   4.392 -0.0525 -0.0690 -0.0875
42751OCT     C185501   2.013  14.719  21.221  0.0189 -0.1121  0.1147
42751OCT     C285502   2.288  14.860  21.502 -0.0988  0.3743  0.0794
42752OCT     C185503   4.897   1.836  21.510 -0.0299 -0.0332  0.0029
42752OCT     C285504   4.514   2.062  21.325  0.1841  0.1058  0.2951
42753OCT     C185505  19.489   1.722  15.005 -0.1666 -0.1280  0.0807
42753OCT     C285506  19.033   1.920  15.050  0.1494  0.2507 -0.3335
42754OCT     C185507  16.179  21.905   0.543  0.1295  0.3459 -0.0756
42754OCT     C285508  15.885  21.573   0.616 -0.1047 -0.0356 -0.1909
42755OCT     C185509  19.712  14.983   1.208  0.1337 -0.1224  0.1359
42755OCT     C285510  19.841  14.521   1.275 -0.1654 -0.0542  0.0871
42756OCT     C185511   5.526   6.242  19.938 -0.0238 -0.2809  0.0338
42756OCT     C285512   5.885   6.018  19.698 -0.1890  0.2314  0.3328
42757OCT     C185513  18.714  19.434   1.890 -0.1046 -0.0206 -0.0164
42757OCT     C285514  18.941  19.286   2.298  0.3503 -0.3209  0.0864
42758OCT     C185515  16.949  20.848   5.338  0.1500  0.0543 -0.0159
42758OCT     C285516  16.668  20.561   5.219 -0.0192  0.0209  0.3939
42759OCT     C185517   6.125  23.544  21.404  0.2416  0.2721  0.4180
42759OCT     C285518   6.184  23.150  21.508  0.0984 -0.0377  0.0746
42760OCT     C185519   5.898  19.266  17.938 -0.4875 -0.4225 -0.1449
42760OCT     C285520   5.743  19.448  18.378 -0.1335 -0.1497 -0.2781
42761OCT     C185521   1.968  15.838   3.865  0.1020  0.4971 -0.0790
42761OCT     C285522   2.305  16.137   3.645 -0.0128  0.0647 -0.2148
42762OCT     C185523  19.052   2.837   3.486 -0.0558 -0.0336  0.1952
42762OCT     C285524  19.361   3.202   3.414  0.2132  0.1660  0.2508
42763OCT     C185525   9.753   9.026   5.833  0.0376 -0.1206 -0.1860
42763OCT     C285526   9.645   8.639   6.078 -0.0933 -0.0608  0.0745
42764OCT     C185527   4.075  13.609  19.452 -0.0112 -0.1348  0.3663
42764OCT     C285528   4.151  13.789  19.859 -0.0724 -0.1907 -0.1777
42765OCT     C185529   0.092   8.904  18.804 -0.0304 -0.2736  0.4346
42765OCT     C285530   0.512   8.874  18.859  0.2028 -0.1074  0.2935
42766OCT     C185531   3.516  23.660   4.336 -0.2390 -0.0288  0.1270
42766OCT     C285532   3.806  23.269   4.422  0.0492 -0.4531 -0.1297
42767OCT     C185533   1.086   1.441   1.367  0.0944  0.0161 -0.3730
42767OCT     C285534   0.855   1.419   1.783 -0.0219  0.3190  0.1599
42768OCT     C185535  10.763  12.970   2.037  0.3507 -0.0127 -0.2521
42768OCT     C285536  11.039  13.345   2.069  0.1088  0.0889  0.2315
42769OCT     C185537  15.618  19.113   9.860  0.3304 -0.2884 -0.3476
42769OCT     C285538  15.422  19.215  10.272  0.2931 -0.0655  0.3644
42770OCT     C185539  19.717   6.344   2.197 -0.0617  0.0869  0.1868
42770OCT     C285540  19.520   6.694   2.429  0.0548  0.1431 -0.0621
42771OCT     C185541   2.391  19.011  13.787  0.0365  0.3241  0.2788
42771OCT     C285542   2.177  18.949  14.228  0.1008  0.4115 -0.0477
42772OCT     C185543   2.544  20.010  13.815  0.0755 -0.2163  0.0701
42772OCT     C285544   2.066  19.913  13.849 -0.3505  0.0372  0.0330
42773OCT     C185545   7.850  18.843   3.046 -0.3003  0.0534  0.2483
42773OCT     C285546   7.546  18.898   2.720  0.4265  0.2774 -0.2588
42774OCT     C185547   0.311  17.161   5.076  0.1667 -0.0279 -0.2292
42774OCT     C285548   0.313  16.817   5.420  0.3091  0.1390 -0.0049
42775OCT     C185549   2.075  19.795   2.703  0.3208  0.1401  0.2009
42775OCT     C285550   2.246  19.708   2.268 -0.3261  0.3132  0.1901
42776OCT     C185551  12.272   0.398   8.981  0.0513 -0.3157  0.0660
42776OCT     C285552  12.561   0.167   9.263 -0.3026  0.1480  0.0194
42777OCT     C185553  13.754   4.597  15.296 -0.0584  0.0895 -0.1628
42777OCT     C285554  13.712   4.241  14.946 -0.2384 -0.2038  0.0322
42778OCT     C185555   3.361   9.543  20.543 -0.0512  0.1002  0.2244
42778OCT     C285556   3.145   9.619  20.167  0.2938 -0.2372 -0.2569
42779OCT     C185557   2.511  13.575   8.502 -0.0801  0.3756  0.1325
42779OCT     C285558   2.221  13.528   8.119 -0.2212 -0.0797  0.1083
42780OCT     C185559  21.424   1.112  21.009  0.0094 -0.3464 -0.3296
42780OCT     C285560  21.422   0.725  20.771 -0.0490  0.2936  0.1474
42781OCT     C185561   3.174   8.007  15.114 -0.3581 -0.0528 -0.3347
42781OCT     C285562   2.852   8.252  15.377  0.2189  0.1813 -0.1279
42782OCT     C185563  15.582  11.502  16.437  0.2808  0.0061 -0.0976
42782OCT     C285564  15.295  11.279  16.118 -0.0073  0.2202 -0.0493
42783OCT     C185565  23.577   8.426  12.692  0.0575 -0.2835  0.1378
42783OCT     C285566  23.102   8.494  12.580 -0.1318  0.2230 -0.2494
42784OCT     C185567  20.837   5.759  20.765 -0.0346  0.1082 -0.2498
42784OCT     C285568  21.255   5.662  20.652  0.2655 -0.0235  0.2200
42785OCT     C185569   4.618  17.704  19.365  0.2989 -0.2786  0.1165
42785OCT     C285570   4.377  17.572  18.969 -0.2618 -0.1129  0.2605
42786OCT     C185571  15.282   1.184  19.780  0.0160  0.1057 -0.0001
42786OCT     C285572  15.538   1.152  20.183  0.1275  0.1711 -0.1757
42787OCT     C185573   6.195  18.161   6.004  0.0047  0.4157  0.1391
42787OCT     C285574   6.161  17.738   5.750 -0.2458 -0.2530 -0.0645
42788OCT     C185575  20.473  17.622   1.336 -0.1872  0.0528 -0.1574
42788OCT     C285576  20.900  17.594   1.568  0.0163 -0.0028  0.0364
42789OCT     C185577   0.688  16.466  13.627 -0.3542 -0.2297 -0.2804
42789OCT     C285578   1.001  16.797  13.753  0.1858  0.0117  0.3249
42790OCT     C185579   3.891  19.392  14.591  0.0882 -0.3434  0.1727
42790OCT     C285580   4.183  19.731  14.458 -0.1528 -0.1729  0.0395
42791OCT     C185581  11.711  15.765   2.724  0.0814  0.0379  0.0500
42791OCT     C285582  11.451  15.447   2.966 -0.2041 -0.0030  0.1313
42792OCT     C185583  15.012   9.640  17.046  0.1930 -0.1116  0.3805
42792OCT     C285584  14.763   9.568  17.410  0.0301 -0.1070 -0.0408
42793OCT     C185585   4.513   5.273  18.153  0.0593  0.0518 -0.2453
42793OCT     C285586   4.884   5.254  17.971  0.1588  0.2100  0.1139
42794OCT     C185587  19.783   6.586   8.997 -0.4478 -0.0987 -0.1463
42794OCT     C285588  19.954   6.153   9.142  0.0929 -0.1918 -0.0354
42795OCT     C185589  14.655  14.580   1.014  0.0926  0.2787  0.3116
42795OCT     C285590  14.607  14.890   0.694 -0.0961  0.3982  0.0929
42796OCT     C185591   6.229   1.217  12.097 -0.3162  0.0596  0.1277
42796OCT     C285592   5.772   1.239  12.133  0.1424  0.1923 -0.0541
42797OCT     C185593   1.449   1.198   0.112 -0.2668 -0.2592  0.1689
42797OCT     C285594   1.112   1.387   0.390  0.3239 -0.1002  0.0367
42798OCT     C185595  16.451  21.644   8.241  0.1995  0.0674 -0.0877
42798OCT     C285596  16.540  21.795   7.854 -0.1694  0.2467 -0.0047
42799OCT     C185597   2.917  16.257  12.032 -0.0848 -0.0086 -0.1934
42799OCT     C285598   3.204  15.886  12.287 -0.0218 -0.0636  0.1334
42800OCT     C185599  16.040  13.166  11.144 -0.0035  0.1346  0.0291
42800OCT     C285600  16.105  13.445  11.483  0.0853  0.0249  0.2610
42801OCT     C185601   0.318   6.431  17.231 -0.0923 -0.2401 -0.1174
42801OCT     C285602   0.106   6.762  17.473 -0.0595 -0.1520  0.1373
42802OCT     C185603  23.642   4.679  22.245 -0.0653  0.1696  0.0460
42802OCT     C285604   0.079   4.237  22.134  0.2610  0.1325  0.0679
42803OCT     C185605  14.058  10.690  14.949 -0.1351  0.1979 -0.2595
42803OCT     C285606  14.367  11.046  15.020  0.0248 -0.3110  0.2935
42804OCT     C185607   8.188  22.688  12.206 -0.1652  0.1484  0.1730
42804OCT     C285608   8.004  22.633  11.813  0.2513  0.2371  0.0398
42805OCT     C185609  10.147  15.376   1.600  0.0720  0.0885  0.0185
42805OCT     C285610  10.505  15.663   1.787  0.3509 -0.1784 -0.0715
42806OCT     C185611  15.802  15.585   3.184  0.0774 -0.4358 -0.0022
42806OCT     C285612  16.089  15.810   3.493 -0.1179 -0.0171  0.2017
42807OCT     C185613   8.627  15.343   0.785  0.2444 -0.0637  0.3443
42807OCT     C285614   8.590  15.073   1.202 -0.1885  0.3380  0.0903
42808OCT     C185615   0.610  19.667  11.830 -0.3694 -0.0686 -0.0093
42808OCT     C285616   0.419  19.864  11.420  0.1754 -0.1331  0.0441
42809OCT     C185617  16.743  18.201   9.858  0.1474  0.1699 -0.1982
42809OCT     C285618  16.653  18.220   9.388  0.3995  0.0457  0.0511
42810OCT     C185619  12.306  16.948   9.607  0.1051 -0.2946 -0.1910
42810OCT     C285620  11.975  16.578   9.562 -0.1945  0.0113 -0.0057
42811OCT     C185621   9.578  14.063   3.297  0.1695  0.0928 -0.0046
42811OCT     C285622   9.553  14.092   3.790  0.1064  0.4226  0.3449
42812OCT     C185623   9.616   1.184   6.757  0.2313  0.2467 -0.0333
42812OCT     C285624   9.969   1.390   6.453  0.1238 -0.0470 -0.1945
42813OCT     C185625   0.281  18.932  19.483  0.0027  0.2888 -0.1453
42813OCT     C285626  23.599  19.092  19.226 -0.0385  0.6130 -0.3903
42814OCT     C185627  13.864   2.515  17.702 -0.0303  0.1925  0.3238
42814OCT     C285628  14.217   2.547  17.415  0.0817 -0.1382 -0.0290
42815OCT     C185629   2.657  20.925  14.272 -0.1772  0.0442 -0.0305
42815OCT     C285630   2.638  20.438  14.201 -0.0324  0.0329  0.0954
42816OCT     C185631  16.501   8.749   0.703 -0.1006  0.3114 -0.4539
42816OCT     C285632  16.575   8.352   0.772 -0.5178  0.1815 -0.3778
42817OCT     C185633   2.414  15.313   0.968 -0.4092  0.1480 -0.1682
42817OCT     C285634   2.381  15.739   0.801 -0.4365  0.6105 -0.0557
42818OCT     C185635  21.997   0.410  12.709 -0.0507 -0.3461  0.1324
42818OCT     C285636  22.238   0.253  12.384  0.0194  0.2915 -0.2317
42819OCT     C185637   1.276   4.976  15.049 -0.1264  0.0276 -0.3322
42819OCT     C285638   1.670   5.127  15.324  0.0756 -0.1718  0.3563
42820OCT     C185639  13.329  21.050   6.950  0.5093 -0.0574  0.1866
42820OCT     C285640  13.196  21.117   7.444 -0.0477  0.1737 -0.0992
42821OCT     C185641  12.934   2.033   0.194 -0.0355 -0.3852 -0.2208
42821OCT     C285642  13.201   1.698  23.740  0.0961 -0.2605  0.2421
42822OCT     C185643   9.654   5.202   8.481  0.1850  0.3000  0.3455
42822OCT     C285644   9.981   5.323   8.247 -0.3312 -0.0434  0.3420
42823OCT     C185645   2.678   0.111   3.884 -0.2023 -0.2710  0.1903
42823OCT     C285646   2.910   0.459   3.790 -0.1995 -0.0758 -0.3669
42824OCT     C185647  12.912   2.644  17.743 -0.1672  0.1723  0.3735
42824OCT     C285648  12.667   2.765  18.097 -0.0293  0.2743  0.1317
42825OCT     C185649   2.816   6.448  20.466 -0.0508  0.1965  0.0611
42825OCT     C285650   3.025   6.638  20.789  0.1168 -0.1754  0.0313
42826OCT     C185651  20.044  19.092   6.761  0.1605  0.0028  0.0322
42826OCT     C285652  20.333  19.245   6.413  0.1029  0.0299  0.0752
42827OCT     C185653  11.242   9.686  16.488  0.2969  0.0699 -0.0315
42827OCT     C285654  11.066   9.934  16.106  0.0311 -0.3414 -0.1273
42828OCT     C185655  22.674   9.013   9.019 -0.1410 -0.0021  0.2138
42828OCT     C285656  22.778   8.804   8.657 -0.2946  0.1016 -0.1236
42829OCT     C185657  11.616   2.319  23.383  0.2080 -0.0957  0.0914
42829OCT     C285658  11.948   1.981  23.316  0.1854  0.2241  0.1652
42830OCT     C185659  10.887   1.384   6.659  0.0140  0.1007 -0.0839
42830OCT     C285660  11.336   1.301   6.772 -0.1786 -0.0133 -0.0379
42831OCT     C185661   4.436  18.104  19.106  0.3941  0.3408  0.1902
42831OCT     C285662   4.105  18.460  19.183  0.0424  0.0525  0.1759
42832OCT     C185663   8.308   4.293   0.992  0.4370  0.0244  0.3138
42832OCT     C285664   8.124   4.420   1.428 -0.0488  0.2708  0.4600
42833OCT     C185665  16.197  16.335   4.234  0.1848  0.0460  0.0587
42833OCT     C285666  16.631  16.141   4.180 -0.1696 -0.1644 -0.0275
42834OCT     C185667  13.669   7.238  23.035 -0.3603 -0.1313  0.0413
42834OCT     C285668  13.875   7.641  22.906  0.1496 -0.1426 -0.1351
42835OCT     C185669  14.747  17.783  12.992 -0.3320 -0.1340  0.2194
42835OCT     C285670  14.443  17.762  12.732  0.1727 -0.2695  0.2127
42836OCT     C185671  19.936   9.671  16.566  0.4083 -0.3852  0.0637
42836OCT     C285672  20.288   9.431  16.859  0.0599  0.0067 -0.0301
42837OCT     C185673   6.191   4.417  13.094  0.4778 -0.3956 -0.1299
42837OCT     C285674   6.574   4.291  12.880 -0.2054  0.3117  0.1175
42838OCT     C185675   1.029   7.955   1.737 -0.2398  0.1705 -0.1208
42838OCT     C285676   0.963   7.476   1.763  0.0463  0.0570  0.1048
42839OCT     C185677  14.417  17.912  18.255  0.2978 -0.0249 -0.2277
42839OCT     C285678  14.543  17.464  18.286 -0.0540  0.0609 -0.1754
42840OCT     C185679  13.470   9.713   9.665  0.1040  0.1405 -0.1168
42840OCT     C285680  13.663  10.008   9.361  0.2621  0.4097 -0.3277
42841OCT     C185681  19.028   7.319  15.132 -0.0849  0.1647 -0.0919
42841OCT     C285682  19.196   7.550  14.833 -0.1460 -0.1212 -0.0006
42842OCT     C185683   3.313  22.387  22.504 -0.1017  0.3054  0.3450
42842OCT     C285684   3.568  22.693  22.776 -0.2549 -0.1560  0.0836
42843OCT     C185685  12.372   8.117   2.524  0.0618 -0.2368  0.3086
42843OCT     C285686  12.747   8.415   2.363  0.2408 -0.3632 -0.2390
42844OCT     C185687  17.690  21.230   3.370 -0.1112 -0.0080 -0.1647
42844OCT     C285688  17.950  20.847   3.360 -0.2161 -0.3002 -0.1881
42845OCT     C185689  17.399  16.221   2.919  0.0773  0.1157 -0.1552
42845OCT     C285690  17.660  15.929   3.201  0.1530  0.2943  0.0964
42846OCT     C185691  13.725   9.502   6.384  0.0249 -0.4425  0.2350
42846OCT     C285692  13.688   9.232   5.977  0.0977 -0.1277  0.0786
42847OCT     C185693   2.858  16.593   5.777  0.0569 -0.0823  0.2735
42847OCT     C285694   3.069  16.584   6.182 -0.0783 -0.0627 -0.1836
42848OCT     C185695   0.030   7.357   5.708 -0.1486 -0.3392 -0.2353
42848OCT     C285696   0.340   7.598   6.004  0.0533 -0.4502 -0.1855
42849OCT     C185697  19.748   1.061   1.815 -0.1196  0.4816  0.0312
42849OCT     C285698  19.581   1.048   1.358 -0.1826  0.1903 -0.3217
42850OCT     C185699  21.009  16.826  22.554  0.2670 -0.1547  0.0693
42850OCT     C285700  21.448  16.913  22.634 -0.1029  0.3543 -0.1836
42851OCT     C185701   9.656  15.194   2.245  0.2979  0.2574 -0.2700
42851OCT     C285702   9.249  15.395   2.042  0.2974  0.2237  0.1454
42852OCT     C185703  11.732  23.263   7.670 -0.0670 -0.1203 -0.1123
42852OCT     C285704  11.716  23.577   8.100 -0.4037 -0.0024  0.6132
42853OCT     C185705   0.212  22.405  12.760  0.0131  0.0230 -0.1813
42853OCT     C285706  23.595  22.619  12.648  0.0134 -0.0366 -0.0379
42854OCT     C185707   4.393  20.752   4.151 -0.3983 -0.1277  0.3460
42854OCT     C285708   4.484  20.458   3.839  0.1008  0.1220  0.0910
42855OCT     C185709   2.342   0.425   9.042  0.0538  0.0613  0.3731
42855OCT     C285710   2.143   0.838   9.168 -0.1407  0.2061 -0.2322
42856OCT     C185711   8.861   9.847   8.093  0.4652 -0.1241 -0.2460
42856OCT     C285712   9.046   9.442   8.123 -0.0562 -0.1109  0.2106
42857OCT     C185713   2.188  11.628   0.138  0.3971 -0.0069 -0.0504
42857OCT     C285714   2.418  11.362  23.584  0.2164  0.0286 -0.3271
42858OCT     C185715   6.990   2.373   8.019 -0.0615 -0.3409 -0.1064
42858OCT     C285716   7.103   2.501   8.420  0.2516 -0.1088 -0.3970
42859OCT     C185717  11.636  10.350   3.691  0.3113 -0.1311 -0.0118
42859OCT     C285718  11.267  10.669   3.501 -0.0939 -0.0458 -0.0228
42860OCT     C185719   2.368  14.676  23.431  0.1843  0.1934  0.5769
42860OCT     C285720   2.477  15.135  23.597 -0.2716  0.0812 -0.0714
42861OCT     C185721  15.082   2.932  20.188  0.0908 -0.1121  0.1050
42861OCT     C285722  15.052   2.844  20.642  0.1610  0.2081 -0.2171
42862OCT     C185723  12.987  11.840   0.995 -0.1528 -0.1062  0.0779
42862OCT     C285724  13.051  11.555   0.643 -0.1328 -0.2591  0.3923
42863OCT     C185725  11.848  12.047   8.179 -0.3085  0.2058  0.0270
42863OCT     C285726  11.570  12.249   8.515  0.0524  0.4197  0.0164
42864OCT     C185727   2.558  11.366  18.704  0.2626 -0.1690 -0.4366
42864OCT     C285728   2.891  11.556  18.464 -0.0375  0.1377  0.0621
42865OCT     C185729  20.712  13.308   5.544  0.1342  0.2984 -0.0596
42865OCT     C285730  20.679  13.345   6.005 -0.2137 -0.0964 -0.1150
42866OCT     C185731  15.149   0.605  11.554 -0.1875  0.0361  0.2591
42866OCT     C285732  15.313   0.262  11.368 -0.0962  0.1390 -0.2232
42867OCT     C185733   0.390  17.682   6.316 -0.0549  0.0749  0.0808
42867OCT     C285734   0.427  17.956   6.670  0.7059 -0.0600  0.0362
42868OCT     C185735   3.963  12.183  23.395 -0.2498 -0.1221  0.1809
42868OCT     C285736   4.327  12.117  23.125 -0.0211  0.3408  0.0585
42869OCT     C185737   9.999   7.238   7.220  0.1454 -0.1051  0.4931
42869OCT     C285738  10.404   7.387   7.230 -0.1004  0.0058  0.1446
42870OCT     C185739   2.569  13.931   8.037  0.0027  0.0073 -0.4303
42870OCT     C285740   2.454  14.321   7.832  0.1691 -0.0592  0.2978
42871OCT     C185741  13.545  15.811   3.145 -0.2043  0.0881 -0.1370
42871OCT     C285742  13.414  16.110   2.746 -0.2568 -0.1535  0.1620
42872OCT     C185743  23.507   6.657   5.070 -0.1412  0.1336  0.0972
42872OCT     C285744   0.024   6.986   5.267  0.4400 -0.1975  0.1643
42873OCT     C185745   7.839  13.465  14.840  0.3873 -0.0574  0.1076
42873OCT     C285746   7.797  13.324  14.435 -0.2668 -0.0341  0.0462
42874OCT     C185747  13.628  21.877   8.782 -0.1862  0.0255 -0.1707
42874OCT     C285748  13.463  22.281   8.893 -0.3422 -0.3516  0.0730
42875OCT     C185749  22.512   4.211   0.443 -0.0351 -0.2029  0.3175
42875OCT     C285750  22.889   4.517   0.366  0.2860  0.0825 -0.6337
42876OCT     C185751   3.176   0.909  12.711  0.2854 -0.3295 -0.2955
42876OCT     C285752   2.829   0.874  12.982 -0.2518 -0.2736  0.1618
42877OCT     C185753  20.067   1.555  16.417  0.2080 -0.0957 -0.0652
42877OCT     C285754  19.804   1.116  16.406 -0.2288  0.0460 -0.0618
42878OCT     C185755  15.943  14.113   1.819 -0.0649 -0.2058  0.3403
42878OCT     C285756  16.319  14.135   1.507  0.1828  0.0068 -0.4424
42879OCT     C185757  11.641   1.177   8.782  0.2126 -0.0465  0.1383
42879OCT     C285758  11.358   0.907   8.469 -0.5059 -0.1135 -0.2093
42880OCT     C185759   2.511  23.308  15.729 -0.1343 -0.4198 -0.5291
42880OCT     C285760   2.860  23.232  15.429  0.2487 -0.1117 -0.0492
42881OCT     C185761   7.649   9.066   6.467  0.0914 -0.0578  0.0548
42881OCT     C285762   7.672   9.390   6.176  0.0748 -0.2844 -0.1086
42882OCT     C185763   2.971   8.424   0.427 -0.1327 -0.0616 -0.1261
42882OCT     C285764   3.093   8.302   0.860 -0.1039 -0.1453 -0.0457
42883OCT     C185765  21.680  17.163  10.128 -0.0622  0.0601 -0.1089
42883OCT     C285766  21.696  16.725  10.148 -0.0671  0.1756  0.1514
42884OCT     C185767   8.631   9.529  12.939  0.2112  0.0333  0.0048
42884OCT     C285768   8.915   9.171  12.917 -0.2032 -0.0637  0.0989
42885OCT     C185769   1.069   8.954  20.195  0.3202 -0.0596  0.1503
42885OCT     C285770   0.601   9.036  20.362 -0.4658  0.2821  0.4205
42886OCT     C185771  18.511   4.165  20.628 -0.2492  0.0600 -0.1005
42886OCT     C285772  18.463   4.540  20.346  0.2422 -0.3303 -0.2037
42887OCT     C185773  13.350   3.612   6.366  0.3708 -0.3496 -0.0145
42887OCT     C285774  13.608   3.686   6.780 -0.0727  0.0668 -0.1786
42888OCT     C185775  18.677  11.179  13.694 -0.3207  0.1527 -0.1417
42888OCT     C285776  18.707  11.221  14.131  0.1501  0.0295 -0.2930
42889OCT     C185777   4.060   2.977  10.546 -0.2471 -0.0892  0.1439
42889OCT     C285778   4.453   2.672  10.375 -0.1762 -0.0633 -0.1488
42890OCT     C185779  17.719  16.919  19.412 -0.2207  0.1286  0.1177
42890OCT     C285780  17.625  16.459  19.334 -0.0284  0.1682 -0.1144
42891OCT     C185781  18.044   0.062  19.985  0.1300 -0.0479  0.3475
42891OCT     C285782  17.767  23.388  20.161  0.0344  0.1881  0.2094
42892OCT     C185783  17.334  18.574   5.095 -0.0281  0.0627 -0.0042
42892OCT     C285784  17.609  18.222   5.041 -0.0633 -0.2169 -0.2241
42893OCT     C185785  17.473  16.199   2.337  0.4001  0.1552 -0.1878
42893OCT     C285786  17.984  16.287   2.446  0.1035  0.1923 -0.2812
42894OCT     C185787  15.799  23.551   5.817  0.0050  0.1966 -0.0100
42894OCT     C285788  15.787  23.522   5.328 -0.0079  0.3414 -0.1613
42895OCT     C185789  12.104  16.343  19.197 -0.1814  0.4557 -0.2461
42895OCT     C285790  12.204  16.762  19.387  0.0989 -0.0110 -0.0947
42896OCT     C185791  11.291   0.968  14.319  0.1554 -0.2117 -0.1346
42896OCT     C285792  11.766   1.120  14.509  0.1157 -0.1999  0.0269
42897OCT     C185793  16.126   6.236   5.567  0.0137 -0.3616  0.1315
42897OCT     C285794  16.510   6.051   5.796 -0.2950 -0.0396  0.1214
42898OCT     C185795  14.119  23.277   4.974 -0.2081 -0.0031  0.2346
42898OCT     C285796  14.012  23.481   5.396 -0.1230 -0.2211 -0.4249
42899OCT     C185797   6.410  15.192  22.115 -0.4327 -0.0526 -0.2279
42899OCT     C285798   6.869  15.028  22.102 -0.1859 -0.3841 -0.1558
42900OCT     C185799  18.753  14.834  17.626 -0.0321 -0.2791 -0.2234
42900OCT     C285800  18.852  15.254  17.411 -0.1954  0.3756  0.0915
42901OCT     C185801   6.928  20.353  22.813 -0.0388 -0.5687  0.4617
42901OCT     C285802   7.145  19.963  22.947  0.1096  0.1315  0.0876
42902OCT     C185803   2.498   9.527   4.307  0.0766 -0.2501  0.0792
42902OCT     C285804   2.500   9.235   3.880  0.2302  0.0327 -0.0169
42903OCT     C185805   8.845  20.844   3.772 -0.2191  0.0758 -0.2815
42903OCT     C285806   9.214  20.697   4.084 -0.0831 -0.0732  0.2166
42904OCT     C185807  20.819  21.828  23.624 -0.2688 -0.2227 -0.3167
42904OCT     C285808  20.957  21.597  23.196 -0.2050 -0.1310 -0.1586
42905OCT     C185809   0.764  11.246  21.998 -0.5304 -0.1042  0.0530
42905OCT     C285810   0.860  11.252  22.453  0.2411 -0.0347 -0.2207
42906OCT     C185811  12.451  10.963  21.713 -0.2085 -0.3760 -0.2976
42906OCT     C285812  12.918  10.991  21.531  0.1630  0.0855  0.0816
42907OCT     C185813  18.059   8.784  22.149 -0.3979  0.0612 -0.1099
42907OCT     C285814  18.115   9.012  22.523  0.1531  0.0286  0.2235
42908OCT     C185815  11.008   1.142  13.868 -0.1185 -0.0003  0.0352
42908OCT     C285816  10.897   0.909  13.460 -0.0327  0.0192 -0.2375
42909OCT     C185817   9.169  10.422  18.867 -0.0742 -0.1921 -0.1648
42909OCT     C285818   9.317  10.010  19.100 -0.2169 -0.1979  0.1261
42910OCT     C185819  22.271  23.347   0.076  0.3349  0.1052 -0.1405
42910OCT     C285820  22.317   0.091   0.085 -0.0642  0.0954 -0.0994
42911OCT     C185821  12.342  11.948  21.106 -0.1456  0.1997  0.1605
42911OCT     C285822  12.238  12.357  21.000  0.3732  0.0911  0.3710
42912OCT     C185823  17.748   7.915   8.561 -0.0716  0.0956  0.1597
42912OCT     C285824  18.124   7.848   8.811 -0.0394  0.2166  0.1530
42913OCT     C185825   3.108  13.771   3.933  0.1845  0.0358 -0.1611
42913OCT     C285826   3.118  14.215   3.784 -0.0584  0.2204 -0.0778
42914OCT     C185827  19.753   8.404  13.554  0.0922  0.1770  0.2058
42914OCT     C285828  20.012   8.150  13.853 -0.1757  0.0292 -0.1814
42915OCT     C185829  22.838   9.584   9.590 -0.0311 -0.1407 -0.2287
42915OCT     C285830  22.810  10.034   9.624 -0.1931 -0.1108  0.2131
42916OCT     C185831  14.203   7.237  19.218 -0.0900 -0.1136  0.1907
42916OCT     C285832  14.410   7.431  19.647  0.2675  0.1628  0.1200
42917OCT     C185833   0.702  10.371  20.452 -0.0023 -0.1828  0.1813
42917OCT     C285834   0.402  10.290  20.141  0.0374 -0.3716 -0.0818
42918OCT     C185835  13.074  23.424   3.096 -0.0190  0.2743  0.0309
42918OCT     C285836  12.918  23.304   3.479  0.0530  0.2371 -0.0627
42919OCT     C185837  22.301   8.888  14.829  0.1761 -0.3513  0.0295
42919OCT     C285838  22.465   8.508  14.579 -0.2527  0.0076 -0.4535
42920OCT     C185839   6.232   4.682   4.772  0.0854 -0.2042  0.0561
42920OCT     C285840   6.577   4.393   4.523 -0.0087  0.1742  0.0222
42921OCT     C185841   3.214   9.740   0.063 -0.0475  0.0655  0.1583
42921OCT     C285842   3.269   9.678   0.487  0.1475 -0.0435  0.1045
42922OCT     C185843   2.726  15.272   7.964 -0.0067 -0.2399  0.1839
42922OCT     C285844   2.818  14.837   8.062  0.0220  0.0934  0.1657
42923OCT     C185845  10.867  17.880  10.970  0.1985 -0.1513 -0.2631
42923OCT     C285846  10.734  18.280  10.797 -0.0035  0.1362  0.0253
42924OCT     C185847   3.480   5.191   3.615 -0.0691 -0.3282  0.0622
42924OCT     C285848   3.109   5.276   3.842  0.0380  0.4350 -0.2344
42925OCT     C185849   6.605  15.173   4.994  0.0697 -0.1520  0.3648
42925OCT     C285850   6.476  14.918   4.587 -0.0475  0.0603 -0.1797
42926OCT     C185851   6.952  20.732  13.623 -0.3713  0.3122  0.2020
42926OCT     C285852   6.933  21.188  13.533  0.0664 -0.3192  0.1181
42927OCT     C185853  14.115  22.536   7.074 -0.1076 -0.2021 -0.1656
42927OCT     C285854  13.777  22.469   6.816  0.0151  0.2763 -0.2058
42928OCT     C185855  17.263  13.343  20.417 -0.2880 -0.0007 -0.0613
42928OCT     C285856  17.470  13.700  20.483 -0.0969 -0.0867 -0.1509
42929OCT     C185857  10.520  16.001  12.010  0.1674 -0.3118  0.3392
42929OCT     C285858  10.084  16.117  12.217 -0.0779 -0.1460 -0.2010
42930OCT     C185859  17.138   5.092   3.612 -0.3706  0.0197 -0.3624
42930OCT     C285860  17.054   5.049   4.099 -0.1002 -0.2835  0.1970
42931OCT     C185861   3.633  10.051  13.898  0.0082 -0.1049 -0.1131
42931OCT     C285862   3.764   9.623  13.783 -0.0118  0.1577 -0.0793
42932OCT     C185863   3.648   9.802   7.937  0.4102 -0.0261 -0.0384
42932OCT     C285864   3.200   9.738   7.769  0.4032 -0.4529 -0.2362
42933OCT     C185865  22.013   9.610  12.558  0.2777  0.0804 -0.0994
42933OCT     C285866  22.269   9.499  12.210 -0.2717  0.1217 -0.2427
42934OCT     C185867   9.598  14.705  14.398  0.4407 -0.0041 -0.0463
42934OCT     C285868   9.666  15.008  14.050  0.1078  0.0470 -0.0195
42935OCT     C185869   9.438   0.159   6.770 -0.1232 -0.0698 -0.2982
42935OCT     C285870   9.880   0.014   6.695  0.1716  0.1178  0.1115
42936OCT     C185871   5.397  22.562  15.236 -0.0140 -0.0796  0.3184
42936OCT     C285872   5.657  22.507  15.674  0.4987 -0.5068  0.1165
42937OCT     C185873  22.286   4.130   6.517  0.0066  0.1179  0.1024
42937OCT     C285874  22.443   4.204   6.088 -0.0376 -0.1764 -0.0925
42938OCT     C185875  16.246  15.771   7.262 -0.0899  0.2031  0.0572
42938OCT     C285876  16.182  15.997   7.662  0.0402  0.0540  0.1765
42939OCT     C185877   5.398  21.930  16.405  0.0892 -0.1596  0.0184
42939OCT     C285878   5.573  21.650  16.066 -0.0008 -0.4341  0.3666
42940OCT     C185879  15.067  21.145   4.830 -0.1599 -0.3152  0.0518
42940OCT     C285880  15.285  20.828   5.046  0.4734 -0.1189  0.1768
42941OCT     C185881   4.298   2.646  15.030  0.0182 -0.1932 -0.1014
42941OCT     C285882   4.687   2.848  15.153 -0.2583 -0.0285 -0.1165
42942OCT     C185883  11.140   2.494   4.949  0.1458 -0.2588 -0.0555
42942OCT     C285884  11.636   2.555   4.719  0.4078  0.0473  0.0965
42943OCT     C185885   3.299  22.265   4.354  0.1844  0.1454  0.1337
42943OCT     C285886   2.948  22.114   4.636 -0.0227 -0.1056  0.2071
42944OCT     C185887  13.478  13.608   2.465  0.2190  0.4396  0.0353
42944OCT     C285888  13.371  13.763   2.002 -0.1897 -0.0436 -0.4612
42945OCT     C185889  16.283   5.914  21.374 -0.1379  0.1180 -0.0081
42945OCT     C285890  16.059   6.258  21.627 -0.1289  0.1010 -0.0827
42946OCT     C185891  12.476  13.261  20.001 -0.0190 -0.2873  0.0968
42946OCT     C285892  12.171  13.541  20.178 -0.3280 -0.0678 -0.2411
42947OCT     C185893   2.255  16.631  17.082  0.1498 -0.1487 -0.2850
42947OCT     C285894   1.773  16.714  17.176  0.4233  0.0805  0.2096
42948OCT     C185895  17.522  10.891  22.588 -0.1850 -0.2668 -0.0886
42948OCT     C285896  17.193  11.216  22.475 -0.1013 -0.0707 -0.1823
42949OCT     C185897  23.306  21.910   4.243 -0.1925 -0.0251 -0.1469
42949OCT     C285898  23.427  22.279   4.455  0.1459 -0.1267  0.0855
42950OCT     C185899   2.638  14.030  14.469 -0.3807  0.2742 -0.1070
42950OCT     C285900   2.958  14.349  14.332  0.0398 -0.2775  0.0594
42951OCT     C185901  18.865  16.581  15.179  0.2432  0.0829 -0.0583
42951OCT     C285902  18.838  16.788  14.753  0.2620 -0.0027 -0.0825
42952OCT     C185903   7.453   0.491  19.354 -0.0795  0.1313 -0.2164
42952OCT     C285904   7.370   0.916  19.561 -0.1420  0.1879 -0.2260
42953OCT     C185905  20.588   3.198  11.987  0.0659 -0.2200 -0.0632
42953OCT     C285906  20.269   3.254  12.329 -0.0683 -0.0561 -0.3422
42954OCT     C185907   4.834  12.822  19.058  0.2818  0.1012  0.1570
42954OCT     C285908   4.474  12.621  19.125 -0.0418  0.0143  0.1073
42955OCT     C185909  11.808   6.460  13.739 -0.0108  0.0515  0.2193
42955OCT     C285910  11.540   6.333  13.336 -0.2242 -0.1475  0.0776
42956OCT     C185911  11.288   2.231   4.556  0.0444  0.4368 -0.1519
42956OCT     C285912  11.741   2.148   4.354 -0.2489  0.0604  0.0534
42957OCT     C185913  13.537   6.440  14.795 -0.2233 -0.1750  0.1143
42957OCT     C285914  13.149   6.673  14.592 -0.0718  0.0861  0.1803
42958OCT     C185915   9.334   6.078   9.990 -0.1548 -0.3409 -0.0122
42958OCT     C285916   9.772   6.171  10.121  0.3035 -0.2266  0.5400
42959OCT     C185917  19.126   4.019   7.478  0.4419 -0.2322  0.1829
42959OCT     C285918  18.858   4.385   7.513  0.0796 -0.2868 -0.0108
42960OCT     C185919   4.484  17.256  15.358  0.0832 -0.1844 -0.1337
42960OCT     C285920   4.565  16.864  15.578 -0.0555  0.0359  0.2660
42961OCT     C185921  22.844   9.932   6.006 -0.0173 -0.0552  0.4565
42961OCT     C285922  22.546   9.963   5.589  0.4722 -0.2344 -0.2106
42962OCT     C185923   4.086  13.929   4.610 -0.6890  0.1469  0.2774
42962OCT     C285924   3.730  13.799   4.411 -0.3697 -0.1462  0.4521
42963OCT     C185925  16.725  23.113   9.442 -0.0447 -0.3834  0.0980
42963OCT     C285926  16.958  23.319   9.087  0.0786  0.0673  0.2891
42964OCT     C185927   6.357  11.837   5.306 -0.1053  0.0178 -0.0597
42964OCT     C285928   6.533  12.287   5.124  0.1020 -0.0532 -0.4525
42965OCT     C185929  13.844   1.629   5.576  0.3095  0.2208  0.0993
42965OCT     C285930  13.586   1.314   5.355  0.0778 -0.0065 -0.0468
42966OCT     C185931   2.623   7.651  12.482  0.1889  0.0610  0.1577
42966OCT     C285932   2.564   7.914  12.087 -0.0436  0.1958 -0.0764
42967OCT     C185933   0.288  16.466   1.860  0.0127  0.3758  0.1327
42967OCT     C285934   0.721  16.726   1.761  0.0318 -0.0604  0.1344
42968OCT     C185935  14.167  12.077  19.790 -0.1394  0.4033  0.5292
42968OCT     C285936  14.351  12.332  20.191  0.0796  0.0876  0.2035
42969OCT     C185937  14.443   4.382  12.241  0.1887  0.1239  0.1109
42969OCT     C285938  14.548   3.984  12.002  0.1964 -0.1412  0.0304
42970OCT     C185939  21.749   8.602   4.875  0.4382  0.0044 -0.3085
42970OCT     C285940  21.432   8.962   4.835  0.1461  0.0275  0.2431
42971OCT     C185941  18.343  15.489   5.870 -0.4420 -0.1888  0.2226
42971OCT     C285942  18.054  15.101   5.978 -0.2357 -0.3180 -0.0537
42972OCT     C185943  11.102  17.655  23.199 -0.0869 -0.0483  0.1099
42972OCT     C285944  11.137  17.608  23.710  0.0159  0.3526 -0.0813
42973OCT     C185945   2.693   1.749   8.538  0.2619 -0.2619 -0.0351
42973OCT     C285946   2.555   1.814   8.972  0.1945 -0.1996  0.2120
42974OCT     C185947  17.163  17.728  10.970  0.0007 -0.0006 -0.2398
42974OCT     C285948  17.270  17.395  11.260 -0.0980  0.0358 -0.0390
42975OCT     C185949   0.330  20.689   4.346  0.0486  0.0195  0.1161
42975OCT     C285950   0.276  21.141   4.180  0.0140 -0.2633 -0.0547
42976OCT     C185951  11.723   8.074  21.506 -0.2071 -0.1774 -0.2832
42976OCT     C285952  12.115   8.171  21.740  0.1133 -0.0250  0.1345
42977OCT     C185953   0.465  14.613   7.309 -0.1563 -0.0636 -0.1283
42977OCT     C285954   0.395  14.272   7.628 -0.0211 -0.2392 -0.4204
42978OCT     C185955  12.077   4.579   7.010  0.0779 -0.0217  0.1310
42978OCT     C285956  11.903   4.694   7.416 -0.5750 -0.0294  0.0656
42979OCT     C185957  14.326  17.169  23.716  0.1344  0.2277 -0.1069
42979OCT     C285958  14.201  17.514   0.283 -0.1340 -0.0616  0.2010
42980OCT     C185959  22.878   6.133  16.273  0.0085 -0.1136 -0.2247
42980OCT     C285960  22.921   5.854  15.915 -0.2303  0.0528 -0.2784
42981OCT     C185961   1.397   8.666  11.572 -0.0511  0.0982 -0.5012
42981OCT     C285962   1.029   8.854  11.430  0.3699  0.1687  0.0301
42982OCT     C185963   0.519   6.088  23.220 -0.0845 -0.0562 -0.1013
42982OCT     C285964   0.022   6.061  23.237  0.2344  0.2765  0.2416
42983OCT     C185965  21.211  17.672   3.263  0.1364  0.2199  0.0407
42983OCT     C285966  21.219  17.485   2.848  0.0146  0.0258  0.0425
42984OCT     C185967  14.710   6.435   1.171 -0.0753  0.0830 -0.0409
42984OCT     C285968  15.124   6.551   0.913 -0.0705  0.0362  0.0396
42985OCT     C185969  14.211   2.086   3.865  0.3458 -0.0770  0.0336
42985OCT     C285970  14.444   1.718   4.056  0.0447  0.1952  0.3568
42986OCT     C185971  13.394   0.852   6.599  0.4285 -0.0554 -0.0487
42986OCT     C285972  13.176   0.498   6.306  0.0065  0.2495 -0.1499
42987OCT     C185973  21.687   4.237  15.848 -0.1043  0.1532  0.0617
42987OCT     C285974  21.213   4.364  15.792 -0.0977  0.0725  0.2564
42988OCT     C185975  18.087  16.794  19.761  0.0293  0.1647 -0.1055
42988OCT     C285976  18.000  16.545  20.138 -0.2706 -0.1750  0.3812
42989OCT     C185977   7.063  16.905   7.174  0.4344  0.0566  0.1098
42989OCT     C285978   7.133  16.452   7.058 -0.0525 -0.2295 -0.2280
42990OCT     C185979   2.536   8.241  18.507 -0.1982  0.0412  0.0571
42990OCT     C285980   2.257   7.930  18.266  0.3066  0.2096 -0.0502
42991OCT     C185981   8.046   1.542  13.277  0.3361  0.1158 -0.1583
42991OCT     C285982   8.084   1.156  13.467 -0.2041 -0.2398  0.3183
42992OCT     C185983  22.732   1.336   3.704  0.2262  0.0540 -0.0760
42992OCT     C285984  22.823   0.890   3.532  0.2112  0.3549 -0.2011
42993OCT     C185985  19.557  16.329   4.639  0.3450 -0.1675 -0.1255
42993OCT     C285986  19.253  16.618   4.734 -0.2380  0.3412 -0.1367
42994OCT     C185987  17.384   2.263   8.869 -0.0076 -0.2519 -0.1595
42994OCT     C285988  17.267   1.808   8.746 -0.1249  0.3257 -0.0431
42995OCT     C185989  16.353  20.050   8.331  0.0260 -0.1747  0.5366
42995OCT     C285990  16.679  19.822   8.588  0.0915 -0.2153 -0.2591
42996OCT     C185991   2.454  13.846   1.254 -0.1241 -0.1436 -0.1441
42996OCT     C285992   2.051  13.651   1.119 -0.1799  0.4045 -0.2921
42997OCT     C185993   5.934  17.637  22.568  0.1186 -0.5244  0.0334
42997OCT     C285994   5.628  17.327  22.731 -0.0584 -0.1157 -0.2987
42998OCT     C185995  17.980   1.756  20.457  0.0043 -0.3441 -0.2506
42998OCT     C285996  18.266   1.930  20.198  0.0951 -0.2726  0.2610
42999OCT     C185997   0.418   6.490   8.323  0.1079 -0.1273  0.2762
42999OCT     C285998   0.495   6.094   8.093  0.2489  0.2802  0.0254
43000OCT     C185999  20.123  18.108  20.078 -0.0411 -0.1418  0.1768
43000OCT     C286000  19.847  17.849  20.320  0.1175  0.1716 -0.2033
43001OCT     C186001  14.757  20.087   8.279  0.0318  0.3436  0.0630
43001OCT     C286002  14.713  20.489   8.358  0.2561  0.2800 -0.1270
43002OCT     C186003   6.577   1.859  10.085  0.0274  0.0023  0.0782
43002OCT     C286004   6.419   2.244  10.364  0.3254 -0.0809  0.1204
43003OCT     C186005   6.211  15.622  15.963  0.1416 -0.1217 -0.3073
43003OCT     C286006   6.364  15.397  16.324  0.1048 -0.0055 -0.0732
43004OCT     C186007   2.602  14.605   9.463 -0.2447  0.0873  0.0944
43004OCT     C286008   2.532  14.615   9.013  0.2757  0.0534 -0.0535
43005OCT     C186009  20.020  16.202  10.341 -0.0251 -0.2995 -0.2085
43005OCT     C286010  20.100  15.931  10.755  0.2260 -0.0725 -0.0945
43006OCT     C186011  22.684   6.883  12.113 -0.0792  0.2854  0.1325
43006OCT     C286012  22.317   6.762  11.888 -0.2462  0.0326 -0.0214
43007OCT     C186013  11.275   8.849  21.924 -0.3076  0.5285  0.2488
43007OCT     C286014  11.018   9.073  21.602  0.1909 -0.2944 -0.1965
43008OCT     C186015   0.950  15.937  13.825  0.2439 -0.0389 -0.0916
43008OCT     C286016   0.524  15.765  13.764  0.1082 -0.1392 -0.1841
43009OCT     C186017   8.851  17.523  21.430  0.1645  0.0844  0.3130
43009OCT     C286018   8.817  17.913  21.588  0.2551 -0.1765  0.0367
43010OCT     C186019  14.245   0.717   7.759  0.0186  0.4195  0.0772
43010OCT     C286020  14.365   0.724   7.261  0.3448  0.2752 -0.0834
43011OCT     C186021  20.793  15.670   6.747  0.0954 -0.0386 -0.2907
43011OCT     C286022  21.139  15.724   7.067  0.2289  0.0290  0.2091
43012OCT     C186023  13.866   8.006  21.702 -0.0773 -0.1923  0.2015
43012OCT     C286024  14.223   7.724  21.589 -0.0307  0.2802  0.3391
43013OCT     C186025   1.331   6.715   2.009  0.0043  0.3778 -0.3748
43013OCT     C286026   1.660   6.765   2.371  0.0265 -0.4241  0.1262
43014OCT     C186027  15.765  21.250  15.789 -0.2853 -0.3865 -0.0595
43014OCT     C286028  15.495  21.133  16.138  0.2332  0.0497 -0.4575
43015OCT     C186029  15.175  17.694  18.384  0.7180 -0.0956  0.1128
43015OCT     C286030  15.437  17.681  17.977 -0.0859  0.1587 -0.0534
43016OCT     C186031  14.259  19.454   4.925 -0.0192  0.0515 -0.3649
43016OCT     C286032  14.533  19.370   4.515 -0.0687 -0.0121 -0.0894
43017OCT     C186033  22.262  21.624   8.095 -0.1466  0.3494  0.0240
43017OCT     C286034  21.943  21.550   8.432  0.2409 -0.2265 -0.1727
43018OCT     C186035  23.275  12.743  19.911  0.2041  0.1309  0.1043
43018OCT     C286036  23.703  12.636  19.994  0.0013 -0.0512 -0.1355
43019OCT     C186037  17.401   2.888  17.421  0.5090 -0.0241 -0.3114
43019OCT     C286038  17.624   3.195  17.740  0.2251  0.4366  0.0111
43020OCT     C186039  14.937   1.871   3.242  0.0380 -0.2968  0.0253
43020OCT     C286040  14.792   1.936   3.663  0.2598  0.2118  0.1587
43021OCT     C186041  20.012  13.106   9.254  0.4492 -0.4670 -0.0047
43021OCT     C286042  19.561  13.306   9.238  0.1682  0.0751 -0.0162
43022OCT     C186043  21.309  14.260  11.337  0.0143 -0.0062 -0.2032
43022OCT     C286044  21.403  14.121  10.876  0.0052  0.0834 -0.1084
43023OCT     C186045   6.047   2.920  16.712 -0.1218  0.1535  0.0622
43023OCT     C286046   6.287   2.707  16.340 -0.4743 -0.1886 -0.0176
43024OCT     C186047  18.427   6.841  12.623  0.1631  0.0757 -0.2417
43024OCT     C286048  18.058   6.863  12.932 -0.4299 -0.0438 -0.0947
43025OCT     C186049   8.156  22.222   9.526 -0.1691 -0.0345  0.1251
43025OCT     C286050   7.894  21.878   9.615  0.1043  0.3883 -0.1589
43026OCT     C186051  12.244  17.649   4.195 -0.0608 -0.3161 -0.1093
43026OCT     C286052  12.417  17.285   4.487 -0.2251 -0.1300  0.0326
43027OCT     C186053  23.733   6.696   4.309  0.1775 -0.1370  0.1077
43027OCT     C286054  23.698   7.015   4.675 -0.2309 -0.1267 -0.3433
43028OCT     C186055  19.405  20.669  19.926 -0.1871  0.3212 -0.1725
43028OCT     C286056  19.231  21.072  20.071 -0.3430 -0.0493  0.2874
43029OCT     C186057   3.748  17.785   4.167  0.1419  0.4291 -0.1564
43029OCT     C286058   3.938  18.135   4.073  0.0211 -0.0811 -0.2130
43030OCT     C186059  16.668   0.738   3.430  0.1815 -0.1941  0.1120
43030OCT     C286060  16.493   1.062   3.770  0.0727 -0.0155 -0.1028
43031OCT     C186061  10.818  15.337  10.332 -0.0231 -0.1613  0.0642
43031OCT     C286062  10.609  15.780  10.293 -0.2894 -0.2240 -0.3907
43032OCT     C186063   6.776  16.664  16.557 -0.0469 -0.5315 -0.2484
43032OCT     C286064   6.588  16.591  16.943  0.0450 -0.3525  0.1573
43033OCT     C186065  11.050  16.790  10.167 -0.1267 -0.0442 -0.2283
43033OCT     C286066  10.863  16.894  10.607  0.0138  0.1755 -0.0633
43034OCT     C186067  23.349   1.517   5.798  0.3386  0.6616  0.2732
43034OCT     C286068  22.883   1.635   5.944  0.1870 -0.0795  0.2153
43035OCT     C186069   7.462  15.037  13.378  0.0879 -0.1011 -0.0725
43035OCT     C286070   7.628  15.461  13.281  0.2786  0.3556  0.0941
43036OCT     C186071   6.450   3.496  10.480 -0.2549  0.0313 -0.1869
43036OCT     C286072   6.151   3.735  10.268  0.4306  0.1066  0.4769
43037OCT     C186073   2.531  19.374   3.662  0.0719  0.0045 -0.0902
43037OCT     C286074   2.242  19.437   4.012  0.0985 -0.2414 -0.4741
43038OCT     C186075  14.698   2.743   1.527  0.2686  0.0157  0.2971
43038OCT     C286076  14.500   2.801   1.964  0.2744 -0.0715  0.2591
43039OCT     C186077   1.643  15.225   5.124 -0.0176  0.0746  0.0955
43039OCT     C286078   1.797  15.658   5.183 -0.2396  0.3380 -0.2661
43040OCT     C186079  18.617   4.475   6.539 -0.1816 -0.4376  0.1050
43040OCT     C286080  18.572   4.952   6.606  0.2299 -0.0015 -0.1358
43041OCT     C186081  19.615  13.878  20.130  0.3530 -0.3253 -0.3368
43041OCT     C286082  19.781  13.641  19.759  0.1933 -0.0492 -0.0302
43042OCT     C186083  17.677   1.679  22.627  0.0184  0.1777 -0.5063
43042OCT     C286084  17.821   1.983  22.996 -0.2498  0.1614  0.1105
43043OCT     C186085  21.917   9.232  13.184  0.0379  0.2775 -0.1856
43043OCT     C286086  21.606   9.008  12.887  0.2561  0.3480  0.1411
43044OCT     C186087  13.205   6.932   3.603 -0.1349  0.1286  0.1085
43044OCT     C286088  13.522   6.617   3.590 -0.1915  0.0156 -0.0980
43045OCT     C186089  17.366  10.998  17.275 -0.1868  0.0342 -0.0279
43045OCT     C286090  17.789  10.840  17.491  0.0075  0.0425  0.1117
43046OCT     C186091   6.572  15.988   7.712 -0.1592 -0.2694  0.4170
43046OCT     C286092   6.440  16.390   7.875  0.0266 -0.2424 -0.1483
43047OCT     C186093   9.965   3.795   2.413  0.0818 -0.0754 -0.5345
43047OCT     C286094  10.408   3.658   2.435  0.0203 -0.2199  0.3245
43048OCT     C186095   0.662  15.319  20.113 -0.0290  0.0804  0.2346
43048OCT     C286096   1.014  15.074  20.331 -0.3208 -0.1303  0.2346
43049OCT     C186097   2.973  17.027  18.586  0.0902 -0.1567 -0.0540
43049OCT     C286098   2.848  16.809  18.948 -0.1025 -0.1716 -0.0368
43050OCT     C186099  18.527   8.255  12.165 -0.1975  0.1559  0.0874
43050OCT     C286100  18.435   8.613  11.939  0.1918  0.4484 -0.0999
43051OCT     C186101   3.005  17.089  19.750  0.0048  0.1026  0.0970
43051OCT     C286102   3.084  17.498  19.540 -0.2647 -0.0653 -0.0167
43052OCT     C186103  18.028  11.318  16.070  0.3768  0.0562  0.0254
43052OCT     C286104  17.899  11.590  16.467  0.1196  0.2114  0.0980
43053OCT     C186105  14.728  22.368  12.545 -0.0511  0.3500  0.1645
43053OCT     C286106  14.777  21.963  12.372 -0.2808  0.2625 -0.1487
43054OCT     C186107  14.712  20.001   0.916 -0.0968  0.3531  0.3435
43054OCT     C286108  14.394  20.343   0.885  0.0438 -0.3085  0.1340
43055OCT     C186109  17.290  14.205  16.895 -0.1508  0.0736 -0.5545
43055OCT     C286110  17.382  14.595  17.147  0.1541  0.1227  0.0149
43056OCT     C186111   0.851   5.546  12.187  0.1084 -0.1532 -0.2791
43056OCT     C286112   1.298   5.639  12.212  0.1452  0.0352  0.2823
43057OCT     C186113   6.330  20.866   8.942  0.0166  0.4401  0.2536
43057OCT     C286114   6.310  20.490   8.729  0.0602 -0.0358 -0.4222
43058OCT     C186115   1.098   0.041   8.973  0.1625 -0.3691  0.0124
43058OCT     C286116   0.804  23.538   8.743 -0.1832 -0.0492  0.0167
43059OCT     C186117   5.561   5.870  12.473 -0.5055  0.2087  0.4522
43059OCT     C286118   5.666   5.684  12.041  0.1071  0.1724 -0.0185
43060OCT     C186119   7.166  11.297   2.120 -0.7553 -0.4508 -0.2324
43060OCT     C286120   7.579  11.036   1.947 -0.0115 -0.4830 -0.0621
43061OCT     C186121  13.809  13.327   2.108 -0.2582  0.0180  0.0323
43061OCT     C286122  13.933  13.829   2.046  0.4211 -0.3031 -0.2394
43062OCT     C186123  16.471  10.007  19.412  0.1176 -0.1333  0.0978
43062OCT     C286124  16.621   9.608  19.232  0.4558 -0.1960  0.3653
43063OCT     C186125   0.021   0.336  18.469  0.1051 -0.4126 -0.4834
43063OCT     C286126   0.005  23.663  18.392  0.2261 -0.1049 -0.3104
43064OCT     C186127   5.300   4.725   9.172  0.1590 -0.2067 -0.1580
43064OCT     C286128   5.769   4.688   9.076  0.0117 -0.5913  0.3081
43065OCT     C186129  19.904   9.982  16.975 -0.2250  0.0673  0.1067
43065OCT     C286130  20.294  10.189  17.038 -0.2512 -0.0794  0.6019
43066OCT     C186131  15.261   4.436   8.530 -0.1141  0.2446 -0.0850
43066OCT     C286132  15.336   4.654   8.931 -0.1630  0.2779  0.0901
43067OCT     C186133   1.181  16.464  12.518 -0.1183 -0.1009 -0.0521
43067OCT     C286134   1.050  16.834  12.788  0.4416 -0.0635 -0.1106
43068OCT     C186135  17.724  16.147  14.399  0.1120 -0.0996  0.2057
43068OCT     C286136  17.952  15.953  14.022 -0.2262  0.4519  0.3054
43069OCT     C186137  19.507  18.750  10.630  0.1524 -0.0075  0.1809
43069OCT     C286138  19.233  18.384  10.515 -0.2070  0.2425  0.0005
43070OCT     C186139  17.794   7.415  16.327  0.1379  0.0410  0.3267
43070OCT     C286140  18.157   7.625  16.050  0.0584  0.2435  0.0429
43071OCT     C186141   9.074   6.256   7.881 -0.1051  0.0763 -0.2143
43071OCT     C286142   8.930   6.375   7.446  0.5399 -0.0794 -0.1003
43072OCT     C186143   6.645   3.246  13.091 -0.1637 -0.2033  0.0759
43072OCT     C286144   6.498   2.824  13.138 -0.0176 -0.5562  0.2264
43073OCT     C186145   0.427   8.902   1.868 -0.1223  0.1422 -0.0287
43073OCT     C286146   0.672   8.906   2.278 -0.3626  0.0321  0.1719
43074OCT     C186147  23.592   8.507  21.652 -0.0179 -0.1732 -0.3333
43074OCT     C286148  23.321   8.539  21.304 -0.0607 -0.0770 -0.1319
43075OCT     C186149  17.028  10.366  21.006  0.1831  0.0915  0.1773
43075OCT     C286150  17.313  10.168  21.291  0.0127 -0.1094  0.1549
43076OCT     C186151  16.264   2.525  13.428  0.3527  0.1112 -0.3705
43076OCT     C286152  16.197   2.272  13.746 -0.0144 -0.1093 -0.3068
43077OCT     C186153  14.832  16.400  18.743 -0.1385 -0.3410  0.1182
43077OCT     C286154  15.284  16.560  18.574  0.0141 -0.4154  0.2230
43078OCT     C186155  22.502  16.421  21.066 -0.0879 -0.0155  0.0870
43078OCT     C286156  22.425  15.975  21.058 -0.0921  0.2152 -0.1254
43079OCT     C186157  12.450  20.937  23.313 -0.0640 -0.2745  0.0717
43079OCT     C286158  12.327  21.145  23.677 -0.0267 -0.0045  0.0302
43080OCT     C186159  18.398  13.146  10.399  0.1910 -0.0988  0.3473
43080OCT     C286160  18.222  13.556  10.341 -0.0526 -0.2050 -0.0033
43081OCT     C186161   2.061  19.660  17.693  0.1973  0.1740 -0.0801
43081OCT     C286162   2.082  19.475  18.131  0.1338  0.1289  0.2452
43082OCT     C186163   3.048  17.282  12.517  0.0312 -0.0141  0.1601
43082OCT     C286164   2.602  17.219  12.657  0.0002  0.0076  0.3069
43083OCT     C186165   5.541   0.019   2.830  0.0506 -0.0571  0.1874
43083OCT     C286166   5.531   0.298   2.459 -0.0525  0.1540 -0.2067
43084OCT     C186167   7.083  14.750   0.968  0.0239  0.1251  0.0843
43084OCT     C286168   7.326  14.977   1.299 -0.2615 -0.3150 -0.1117
43085OCT     C186169   4.151   4.019  13.895  0.2633  0.0004 -0.1253
43085OCT     C286170   3.930   3.864  13.546 -0.0837  0.2710 -0.0934
43086OCT     C186171   7.460   2.338  20.208  0.3289  0.3911  0.0878
43086OCT     C286172   7.321   2.784  20.275  0.0710 -0.1220 -0.1500
43087OCT     C186173  18.911   2.999  19.879  0.2569  0.1059  0.0055
43087OCT     C286174  19.067   3.144  19.481  0.2178 -0.4165 -0.1099
43088OCT     C186175   8.408  22.592  16.916  0.1902 -0.0637  0.6474
43088OCT     C286176   8.414  23.099  16.833  0.0370  0.0744 -0.1453
43089OCT     C186177  16.177   0.880   8.433 -0.1788 -0.0940  0.0064
43089OCT     C286178  16.080   0.916   7.994  0.0932  0.1067  0.0794
43090OCT     C186179   0.468   0.310  16.835  0.0685 -0.3101  0.0358
43090OCT     C286180   0.842   0.551  16.893  0.2961 -0.0311  0.4263
43091OCT     C186181   5.123  14.370  17.431  0.2647 -0.0385 -0.1709
43091OCT     C286182   4.911  14.525  16.988 -0.0519 -0.0238  0.1284
43092OCT     C186183  16.751   4.155  10.761  0.3795 -0.0675 -0.0055
43092OCT     C286184  16.959   4.281  11.121  0.2113 -0.3221  0.0728
43093OCT     C186185  18.558   8.920  22.255 -0.2788  0.2957 -0.0659
43093OCT     C286186  18.647   9.184  21.836  0.3032 -0.0811 -0.1718
43094OCT     C186187  11.660   6.907   7.827  0.4728 -0.0315 -0.0790
43094OCT     C286188  11.611   6.948   7.324 -0.0501 -0.1521  0.0871
43095OCT     C186189  10.757   4.365  12.469 -0.0662 -0.1617 -0.0819
43095OCT     C286190  10.487   4.263  12.827 -0.1102 -0.3659  0.0787
43096OCT     C186191  15.363  12.921   1.279 -0.1279  0.0717  0.4446
43096OCT     C286192  15.231  12.502   1.162 -0.0480  0.0370  0.1364
43097OCT     C186193  19.516  21.292  21.721  0.3215 -0.1883  0.1056
43097OCT     C286194  19.344  21.427  22.115 -0.2553 -0.1791  0.2519
43098OCT     C186195   6.763  11.599  14.900 -0.2163 -0.1265 -0.2798
43098OCT     C286196   6.816  11.380  14.449  0.1485  0.2033  0.0802
43099OCT     C186197  14.622   0.772   6.685  0.1741  0.1370 -0.3915
43099OCT     C286198  14.205   0.531   6.768 -0.0795 -0.3812  0.2014
43100OCT     C186199  20.658   7.536   8.378  0.0960 -0.1243  0.1016
43100OCT     C286200  20.916   7.695   8.698 -0.1313 -0.1699 -0.4910
43101OCT     C186201   4.718  20.376   6.203  0.0938  0.2130  0.1979
43101OCT     C286202   5.155  20.278   6.309  0.0238 -0.0510  0.2695
43102OCT     C186203  21.066  21.161  16.994  0.1809 -0.1910  0.1506
43102OCT     C286204  20.744  20.988  17.157 -0.0305 -0.0397  0.0254
43103OCT     C186205   9.936   3.791  20.368 -0.3397  0.3235  0.0550
43103OCT     C286206   9.636   4.093  20.177 -0.3446  0.1806  0.1135
43104OCT     C186207  20.042   0.351  18.445  0.2650 -0.1061  0.1182
43104OCT     C286208  20.479   0.260  18.549 -0.2406  0.0387  0.0426
43105OCT     C186209  12.706   0.876   2.728  0.2485 -0.0076 -0.1730
43105OCT     C286210  12.822   1.297   2.754  0.1530 -0.3269 -0.2107
43106OCT     C186211  12.401   7.908   6.480  0.1745 -0.1395 -0.0772
43106OCT     C286212  11.974   8.046   6.710  0.0459 -0.0063  0.0268
43107OCT     C186213  13.428  16.734  22.732 -0.4425  0.1943 -0.1417
43107OCT     C286214  13.910  16.788  22.869 -0.2752  0.0647 -0.3580
43108OCT     C186215  11.134  12.755   7.839  0.1447 -0.0277  0.1033
43108OCT     C286216  10.730  12.876   7.940 -0.0910  0.0857  0.2203
43109OCT     C186217   7.305  14.428  21.794  0.3359 -0.1637 -0.1561
43109OCT     C286218   7.170  14.848  21.728  0.0703  0.0998  0.0852
43110OCT     C186219  11.339  11.553   9.689  0.2789 -0.0907  0.0337
43110OCT     C286220  11.143  11.749   9.324  0.1058  0.0436  0.1976
43111OCT     C186221  11.843  10.561   1.451 -0.0421 -0.2870 -0.1480
43111OCT     C286222  12.165  10.585   1.110 -0.0649  0.1020 -0.1087
43112OCT     C186223  18.696   8.138  14.303  0.0591 -0.0565 -0.1362
43112OCT     C286224  18.298   7.878  14.242 -0.1859  0.0731 -0.0766
43113OCT     C186225  13.622   1.051  16.732  0.0606 -0.0602  0.1290
43113OCT     C286226  13.221   1.017  16.953  0.1022  0.0957 -0.1102
43114OCT     C186227  22.382   6.693   1.032  0.2422 -0.1701 -0.1206
43114OCT     C286228  22.104   6.384   0.890  0.1594  0.3672 -0.0776
43115OCT     C186229   2.012  10.887  20.113  0.1629  0.3047 -0.4295
43115OCT     C286230   1.641  10.908  19.813 -0.2709  0.3253  0.1322
43116OCT     C186231   0.129   5.083  18.044 -0.0911 -0.1583 -0.2179
43116OCT     C286232   0.248   5.457  17.801 -0.2266  0.3302  0.2761
43117OCT     C186233  20.766   2.349  20.321 -0.0899  0.2135 -0.0932
43117OCT     C286234  20.702   2.275  20.795 -0.1585  0.0688 -0.0637
43118OCT     C186235  16.839   0.624  21.793 -0.1704 -0.1237 -0.0920
43118OCT     C286236  16.496   0.362  21.959  0.0909 -0.2838 -0.2792
43119OCT     C186237   8.943  19.051  11.815 -0.0473  0.1619 -0.2309
43119OCT     C286238   9.324  19.260  11.850 -0.4993  0.2664 -0.1106
43120OCT     C186239  20.637   3.352   4.011 -0.0310  0.1449  0.2648
43120OCT     C286240  20.759   3.200   4.438  0.2212  0.1423 -0.4892
43121OCT     C186241  14.645  15.435  23.367  0.3908  0.2563 -0.0508
43121OCT     C286242  14.890  15.746  23.132  0.1448  0.2639 -0.0706
43122OCT     C186243   4.618  15.527   3.605  0.0902 -0.0692 -0.2666
43122OCT     C286244   4.902  15.158   3.566 -0.0654 -0.0142 -0.0390
43123OCT     C186245   1.769   8.621   1.628  0.2198  0.0232 -0.2191
43123OCT     C286246   1.599   8.924   1.286 -0.0831  0.0625  0.0858
43124OCT     C186247  17.399   2.120   4.719  0.0263  0.2793 -0.3679
43124OCT     C286248  17.336   2.302   4.300 -0.0289  0.0378  0.0970
43125OCT     C186249  13.384   0.514  20.935  0.2806  0.0548  0.2724
43125OCT     C286250  13.318   0.389  20.465 -0.0443 -0.2493 -0.4063
43126OCT     C186251  18.613  19.245   4.853  0.0101 -0.1313  0.2354
43126OCT     C286252  18.671  18.835   4.929 -0.0726  0.2698 -0.0087
43127OCT     C186253  18.039   0.611   8.557 -0.1427  0.0229  0.0014
43127OCT     C286254  18.144   0.870   8.174 -0.4631  0.1664 -0.0631
43128OCT     C186255  21.415  23.170  21.220  0.1864 -0.1130  0.1887
43128OCT     C286256  21.399  23.316  21.676 -0.3815  0.0011 -0.2761
43129OCT     C186257  14.235   3.994  18.202  0.3253 -0.2067  0.1717
43129OCT     C286258  14.400   3.768  18.563 -0.0148  0.1777  0.1521
43130OCT     C186259   3.068  23.208   9.729  0.1544  0.3055  0.3767
43130OCT     C286260   2.697  23.509   9.526  0.2519  0.1573 -0.2142
43131OCT     C186261   2.192  22.481   8.255 -0.0824  0.2976 -0.0185
43131OCT     C286262   2.330  22.895   8.105 -0.0983 -0.1012 -0.0864
43132OCT     C186263  19.783   0.610  16.721  0.0647 -0.4875  0.1211
43132OCT     C286264  20.069   0.355  16.499 -0.3265 -0.0968 -0.1821
43133OCT     C186265  21.114   2.865  12.933  0.0138  0.0251  0.0082
43133OCT     C286266  21.182   3.305  12.795  0.1140 -0.0557 -0.3957
43134OCT     C186267  10.719   1.245   4.174  0.3338  0.1310  0.3137
43134OCT     C286268  10.670   0.854   4.456 -0.3303  0.0613 -0.5297
43135OCT     C186269  21.023   7.501  11.286 -0.0546 -0.3041  0.1311
43135OCT     C286270  21.406   7.620  11.059 -0.2114  0.0240 -0.4308
43136OCT     C186271   7.540  20.975   4.453 -0.0029 -0.2908  0.1450
43136OCT     C286272   8.012  21.030   4.507  0.1196  0.1301 -0.0119
43137OCT     C186273  13.384  15.182   3.599  0.1501  0.2647 -0.2736
43137OCT     C286274  13.677  15.304   3.262 -0.0758 -0.0561  0.0780
43138OCT     C186275  21.883   7.339   5.199 -0.4844 -0.3126  0.1948
43138OCT     C286276  22.117   7.701   5.020 -0.0868  0.2219 -0.0638
43139OCT     C186277  20.796   7.974  12.495 -0.2531 -0.0936 -0.2449
43139OCT     C286278  20.858   8.345  12.158 -0.0430  0.0147 -0.3066
43140OCT     C186279  18.515  19.743  12.351  0.0059  0.2154 -0.0480
43140OCT     C286280  18.487  19.387  12.006  0.0472  0.1184  0.4762
43141OCT     C186281  16.625   4.179  14.323  0.0605  0.1309 -0.1569
43141OCT     C286282  16.461   3.743  14.212 -0.0887  0.1859 -0.0656
43142OCT     C186283   1.514  19.574   2.622 -0.0419 -0.3873  0.2150
43142OCT     C286284   1.106  19.770   2.582  0.2423 -0.0118 -0.0728
43143OCT     C186285   1.435  14.676   5.816  0.0430  0.1719  0.2742
43143OCT     C286286   1.161  14.806   5.435  0.1469  0.1995  0.2020
43144OCT     C186287  20.093   1.414   7.694 -0.2390 -0.1015 -0.0741
43144OCT     C286288  20.311   1.282   7.265  0.1848  0.1854  0.2271
43145OCT     C186289   2.471   9.124  14.892 -0.2122  0.0029 -0.1795
43145OCT     C286290   2.619   8.892  14.502  0.2639 -0.2592  0.0686
43146OCT     C186291  18.237  18.475  17.895 -0.3179  0.0138  0.0297
43146OCT     C286292  18.148  18.267  17.456 -0.1070  0.2078 -0.0241
43147OCT     C186293  14.116   1.646   8.410  0.1797 -0.4031 -0.2942
43147OCT     C286294  14.229   1.276   8.622  0.2078  0.0341 -0.1139
43148OCT     C186295   2.041   6.354  18.641 -0.0250 -0.2313  0.2450
43148OCT     C286296   2.199   6.734  18.854 -0.1476  0.0936 -0.2806
43149OCT     C186297  14.286  18.596   4.640 -0.1404  0.0084 -0.2876
43149OCT     C286298  14.763  18.461   4.593  0.0653 -0.0822 -0.2157
43150OCT     C186299  10.444   7.989  10.942  0.0537  0.0769 -0.2206
43150OCT     C286300  10.405   7.702  11.312 -0.0149  0.1008  0.1801
43151OCT     C186301  13.433  11.740  20.696 -0.3491 -0.3117 -0.2423
43151OCT     C286302  13.699  12.112  20.805  0.0294 -0.0264  0.0490
43152OCT     C186303  22.664  19.457  14.098 -0.2622 -0.0900 -0.1815
43152OCT     C286304  22.605  19.194  14.493  0.3163 -0.1933  0.2587
43153OCT     C186305   0.230   9.971   0.297 -0.0812 -0.0701  0.3185
43153OCT     C286306   0.146  10.155  23.649  0.1209  0.3418  0.0377
43154OCT     C186307  18.073  14.921   7.498  0.2308  0.2379  0.3372
43154OCT     C286308  18.037  15.192   7.851 -0.1669 -0.0217 -0.0691
43155OCT     C186309   1.302  19.919  20.283 -0.4770 -0.0901  0.0206
43155OCT     C286310   1.658  20.155  20.538 -0.0039  0.0977  0.2532
43156OCT     C186311  23.067   6.498  21.906  0.6161  0.3193 -0.0661
43156OCT     C286312  23.040   6.052  22.044  0.1510 -0.0057  0.1428
43157OCT     C186313  19.999  11.549  17.467 -0.0290  0.1178 -0.1260
43157OCT     C286314  20.410  11.793  17.385  0.0127 -0.0063  0.1476
43158OCT     C186315   0.163   8.925   5.047 -0.1351  0.1064 -0.0498
43158OCT     C286316   0.549   8.624   5.086 -0.1563 -0.0889 -0.1697
43159OCT     C186317  19.144  15.845  18.695  0.2369  0.2793 -0.0664
43159OCT     C286318  19.116  15.735  19.105  0.3241  0.3356 -0.0578
43160OCT     C186319  22.576  11.253   3.075 -0.0848  0.2932 -0.1452
43160OCT     C286320  22.140  11.104   2.889 -0.0569  0.2169  0.0382
43161OCT     C186321  19.663   0.254  19.291 -0.2671  0.2339  0.2426
43161OCT     C286322  19.806  23.547  19.347  0.0175 -0.2361  0.3138
43162OCT     C186323  15.839  15.506  23.476  0.3091  0.4599  0.0006
43162OCT     C286324  16.092  15.565   0.191  0.2556 -0.0067 -0.1988
43163OCT     C186325  14.773  23.199   3.127 -0.1085 -0.1991 -0.0857
43163OCT     C286326  14.442  23.050   3.349  0.1719 -0.0972 -0.0193
43164OCT     C186327  15.776   6.105   1.639 -0.2246 -0.0799  0.1190
43164OCT     C286328  15.817   5.909   2.059 -0.1912  0.3159 -0.0897
43165OCT     C186329   9.770  16.355  12.912  0.1612 -0.1153 -0.0683
43165OCT     C286330   9.805  16.783  12.751 -0.0636  0.2462  0.3000
43166OCT     C186331   6.863  22.577  18.754 -0.1164  0.2115 -0.3790
43166OCT     C286332   6.816  22.787  18.348 -0.0903  0.2016  0.3448
43167OCT     C186333  18.684  17.345   3.304  0.0448  0.2076 -0.0254
43167OCT     C286334  18.560  17.765   3.412  0.1347 -0.1564  0.0753
43168OCT     C186335  22.227   3.718   7.124 -0.2887 -0.0271 -0.0015
43168OCT     C286336  22.011   3.550   6.721 -0.2457  0.0786 -0.2612
43169OCT     C186337  14.741   9.391   8.171  0.2175 -0.3219 -0.1527
43169OCT     C286338  14.707   9.245   7.697 -0.2238 -0.2090 -0.0054
43170OCT     C186339  19.304   1.428   1.136 -0.0590  0.0226  0.1869
43170OCT     C286340  18.843   1.309   1.121 -0.0297 -0.1671 -0.1558
43171OCT     C186341  21.124  20.366   8.010 -0.0472 -0.0365  0.3647
43171OCT     C286342  21.210  20.075   7.655  0.0606 -0.0627 -0.2492
43172OCT     C186343  15.810  14.114  11.084 -0.1821  0.0912 -0.1919
43172OCT     C286344  15.504  13.926  10.955  0.0657 -0.0644 -0.1498
43173OCT     C186345  16.531   2.621   0.693 -0.0229 -0.2861  0.2303
43173OCT     C286346  16.270   2.406   1.046  0.0557  0.1234 -0.0486
43174OCT     C186347  17.882  10.868  15.821 -0.0066 -0.0793  0.1551
43174OCT     C286348  18.033  10.398  15.723  0.0403  0.2901  0.2523
43175OCT     C186349  11.419  10.477  17.916 -0.4620  0.0029 -0.3089
43175OCT     C286350  11.621  10.454  18.359  0.0697 -0.3409 -0.2178
43176OCT     C186351   5.670  11.557  13.824  0.0150  0.2321 -0.1169
43176OCT     C286352   6.011  11.894  13.955 -0.1021  0.1458 -0.3121
43177OCT     C186353  19.660   2.396  23.543 -0.1955  0.0163 -0.1623
43177OCT     C286354  19.413   2.711   0.024  0.0337  0.1497  0.2336
43178OCT     C186355   4.695  19.925  23.012 -0.3581 -0.3424 -0.1101
43178OCT     C286356   4.295  20.108  23.175  0.0136  0.0385  0.1962
43179OCT     C186357  12.670   2.703  11.433 -0.2806 -0.0593  0.1551
43179OCT     C286358  12.985   2.474  11.189 -0.1694 -0.3152  0.0554
43180OCT     C186359  12.453   7.019  12.930  0.3031 -0.3151  0.0430
43180OCT     C286360  12.572   7.383  13.044  0.3420  0.3003 -0.0100
43181OCT     C186361   0.334  21.983  22.899  0.0389  0.0592  0.0658
43181OCT     C286362  23.678  22.142  23.078  0.0009  0.2133  0.0640
43182OCT     C186363   6.421  10.673   3.459  0.1229 -0.0603  0.1404
43182OCT     C286364   6.641  10.220   3.571  0.2581  0.2157 -0.4302
43183OCT     C186365   7.284   0.311  21.414  0.0803  0.0179 -0.2370
43183OCT     C286366   7.293   0.398  20.954  0.0918  0.2346 -0.0175
43184OCT     C186367  14.519  21.444  14.590  0.0530 -0.0183 -0.2165
43184OCT     C286368  14.820  21.535  14.284 -0.1037  0.2178  0.2725
43185OCT     C186369   1.735  21.317  13.914  0.1993 -0.3584  0.0329
43185OCT     C286370   1.594  20.896  13.703  0.0587 -0.0748  0.2710
43186OCT     C186371  21.656   2.775  19.775  0.5342  0.1415  0.0556
43186OCT     C286372  21.754   2.349  19.908 -0.0450 -0.0314 -0.3172
43187OCT     C186373  16.778  10.332  13.742 -0.1763 -0.1411  0.0651
43187OCT     C286374  16.912   9.912  13.860  0.1891 -0.1280  0.1621
43188OCT     C186375  20.862   2.423  22.757 -0.3043  0.0799  0.1604
43188OCT     C286376  21.075   2.865  22.877  0.0275 -0.1957 -0.2587
43189OCT     C186377  21.795   3.284   3.056  0.0447 -0.0605 -0.1009
43189OCT     C286378  21.458   2.974   2.881 -0.2531  0.2380  0.0685
43190OCT     C186379  21.538   3.352  14.106 -0.1186 -0.0072 -0.0618
43190OCT     C286380  21.544   3.033  14.462 -0.0224 -0.0939  0.4497
43191OCT     C186381   2.559  22.849  12.053  0.0795  0.1472  0.0782
43191OCT     C286382   2.929  22.849  11.754  0.2071 -0.6479 -0.2982
43192OCT     C186383   9.761  12.097  15.502 -0.0674 -0.1766  0.0305
43192OCT     C286384  10.184  12.051  15.708 -0.3257 -0.4994 -0.0187
43193OCT     C186385  11.023  15.599   3.340 -0.0860 -0.1396  0.1848
43193OCT     C286386  10.566  15.533   3.483  0.1097 -0.0589 -0.1032
43194OCT     C186387  16.149  23.108  20.788 -0.4154  0.0637 -0.2425
43194OCT     C286388  16.241  23.389  21.229  0.0674 -0.1067  0.2768
43195OCT     C186389   4.224  16.866  10.248  0.2548 -0.1951 -0.3473
43195OCT     C286390   4.155  16.895  10.715 -0.2209 -0.2980  0.1166
43196OCT     C186391  17.499  11.432   6.703  0.1104 -0.2157  0.3155
43196OCT     C286392  17.209  11.608   7.065 -0.0578  0.0963 -0.2326
43197OCT     C186393  16.410  14.554   3.871  0.1460 -0.2293 -0.0502
43197OCT     C286394  16.702  14.491   4.216 -0.3863  0.0427 -0.1469
43198OCT     C186395   0.934   4.591  15.055  0.0892  0.0745 -0.1184
43198OCT     C286396   0.837   4.091  14.954 -0.0348 -0.1870 -0.2789
43199OCT     C186397   9.742   8.051   8.728 -0.0423  0.1995 -0.0761
43199OCT     C286398  10.209   8.133   8.793 -0.2419  0.1746  0.0549
43200OCT     C186399   9.918  11.318   8.712 -0.0367 -0.1157 -0.4281
43200OCT     C286400   9.783  10.944   8.976 -0.1352  0.0091 -0.2181
43201OCT     C186401  23.668  23.672   1.829  0.2798  0.1292  0.1076
43201OCT     C286402   0.262   0.215   2.002 -0.0823  0.1639 -0.1183
43202OCT     C186403   1.454   0.988  13.222  0.0997  0.0241  0.0226
43202OCT     C286404   1.752   0.887  12.905  0.2170  0.0703  0.2957
43203OCT     C186405  18.878  21.656  19.388  0.2714  0.1620  0.4088
43203OCT     C286406  18.952  22.120  19.283  0.2044 -0.4263  0.2593
43204OCT     C186407  12.538   0.962   9.797 -0.1837 -0.0973  0.1523
43204OCT     C286408  12.127   1.228   9.778 -0.2058  0.0632  0.1096
43205OCT     C186409   7.631   8.368  10.988  0.1905 -0.1103 -0.0407
43205OCT     C286410   8.024   8.421  11.116 -0.1442  0.1263  0.3254
43206OCT     C186411   7.831   9.818   1.985 -0.0077  0.0408  0.0016
43206OCT     C286412   7.659  10.151   1.739 -0.1579  0.5054 -0.0151
43207OCT     C186413   3.367  11.528   9.711 -0.1992  0.0443  0.5125
43207OCT     C286414   3.186  11.938   9.473  0.4395 -0.1237  0.4333
43208OCT     C186415   7.545  19.848   2.728  0.5346  0.1242  0.1421
43208OCT     C286416   7.313  19.901   2.375 -0.3787  0.2348 -0.1827
43209OCT     C186417  16.920   9.213   3.095  0.0371 -0.0495  0.2126
43209OCT     C286418  16.999   9.672   2.975 -0.0065  0.2123 -0.0147
43210OCT     C186419  12.763  15.637   3.524 -0.2900  0.1589 -0.0843
43210OCT     C286420  12.338  15.591   3.438  0.1992 -0.1184 -0.1058
43211OCT     C186421  13.231  17.482   2.060 -0.2327  0.1170 -0.0840
43211OCT     C286422  12.808  17.650   2.145  0.1611  0.0236  0.2606
43212OCT     C186423  21.930  17.870  16.288  0.0867  0.0244 -0.4053
43212OCT     C286424  21.727  18.085  15.939 -0.1573  0.1258  0.2128
43213OCT     C186425  19.186  11.257   2.232  0.0740  0.4392 -0.1978
43213OCT     C286426  18.753  11.147   2.374  0.2267 -0.0124 -0.1936
43214OCT     C186427  15.211   3.147  22.628 -0.0492 -0.3938  0.0831
43214OCT     C286428  15.223   3.680  22.689  0.0782 -0.2459  0.2468
43215OCT     C186429  21.498  19.392   4.442 -0.0475  0.3636 -0.2510
43215OCT     C286430  21.892  19.127   4.211 -0.3182 -0.2020 -0.0141
43216OCT     C186431  21.522  23.124  23.188 -0.0374 -0.0116  0.0431
43216OCT     C286432  21.746  23.319  23.563  0.0654  0.0646 -0.1461
43217OCT     C186433   8.279   9.634  22.496 -0.1885  0.0622 -0.0298
43217OCT     C286434   7.856   9.518  22.379  0.1733 -0.4217  0.0369
43218OCT     C186435   6.141   2.589   2.840  0.2738  0.0737 -0.2663
43218OCT     C286436   6.068   2.507   3.312  0.2144 -0.4276  0.2016
43219OCT     C186437   6.175  21.193  19.390  0.2491  0.0938 -0.2544
43219OCT     C286438   6.249  20.843  19.024  0.2713 -0.3224  0.2990
43220OCT     C186439   6.002   4.498   6.061 -0.0985  0.2448  0.1119
43220OCT     C286440   5.550   4.258   6.116 -0.2356  0.2425  0.2106
43221OCT     C186441  18.944  13.244  13.631 -0.1113 -0.0596 -0.2108
43221OCT     C286442  18.737  12.959  13.299  0.0671  0.0115 -0.2034
43222OCT     C186443  14.563   3.077  11.086  0.1819 -0.0516  0.0373
43222OCT     C286444  14.197   3.002  10.806 -0.0994 -0.2061  0.1068
43223OCT     C186445   3.349   1.127  13.679 -0.2017 -0.1711  0.3523
43223OCT     C286446   3.294   1.151  13.194 -0.1986 -0.3591 -0.0541
43224OCT     C186447  14.235   7.063   6.704 -0.0850 -0.0790 -0.1419
43224OCT     C286448  14.649   7.086   6.617 -0.0137  0.1143  0.0359
43225OCT     C186449  12.413   7.980  13.771  0.1796  0.2533 -0.2159
43225OCT     C286450  12.215   7.559  13.924  0.0057 -0.4569 -0.0628
43226OCT     C186451   3.220   0.714  18.850  0.3080  0.3412 -0.1060
43226OCT     C286452   2.838   0.940  18.600 -0.2792 -0.0360 -0.0167
43227OCT     C186453   9.239  11.377  17.678 -0.1290  0.0909  0.1102
43227OCT     C286454   8.824  11.269  17.784  0.0860 -0.0168 -0.3630
43228OCT     C186455  16.909   0.841   5.203  0.1711  0.2470  0.3416
43228OCT     C286456  17.340   0.851   4.994 -0.0003 -0.0165 -0.0773
43229OCT     C186457  21.276   5.427  16.637  0.2236  0.0219 -0.2673
43229OCT     C286458  21.166   5.261  16.206  0.0014  0.3888  0.0763
43230OCT     C186459   4.367  14.130  16.013 -0.3303  0.1770 -0.3067
43230OCT     C286460   3.993  13.847  16.156 -0.2232 -0.2493  0.1753
43231OCT     C186461  12.998  22.907  19.269 -0.0375 -0.4085 -0.0666
43231OCT     C286462  13.289  22.516  19.339 -0.0129 -0.2477  0.0313
43232OCT     C186463   7.010  19.209  12.895 -0.0875 -0.0204 -0.0462
43232OCT     C286464   6.668  19.260  13.247 -0.1828 -0.1431 -0.0447
43233OCT     C186465  23.490   1.326  13.113 -0.0852 -0.3685  0.0853
43233OCT     C286466  23.205   1.082  12.758 -0.1213 -0.2488  0.0680
43234OCT     C186467  12.764   1.505  11.517  0.1529 -0.1175  0.0397
43234OCT     C286468  12.914   1.921  11.500  0.0291 -0.1928  0.3181
43235OCT     C186469  11.773   4.995  15.727 -0.2937 -0.3512  0.3422
43235OCT     C286470  12.229   5.061  15.725  0.0836 -0.1119 -0.2617
43236OCT     C186471   1.657   4.007  15.848 -0.1091 -0.1338 -0.1266
43236OCT     C286472   1.820   4.129  15.428  0.0074 -0.0584 -0.1159
43237OCT     C186473  18.493  21.155  20.391 -0.0883  0.0628  0.1446
43237OCT     C286474  18.888  20.855  20.350  0.4222  0.0030 -0.2636
43238OCT     C186475  16.265   5.267  17.919 -0.1395 -0.6036 -0.2812
43238OCT     C286476  16.109   5.264  18.363 -0.0691  0.0301  0.3313
43239OCT     C186477  18.370  21.268   0.626 -0.0409  0.2171  0.0476
43239OCT     C286478  18.005  21.481   0.397  0.3800 -0.0155 -0.0343
43240OCT     C186479   4.636   1.747  15.724 -0.0697 -0.1962 -0.2185
43240OCT     C286480   4.951   1.503  15.581  0.2846  0.0004  0.1929
43241OCT     C186481  13.205   4.668  14.694 -0.1257  0.0704 -0.1960
43241OCT     C286482  12.938   4.896  14.378 -0.2820 -0.0750 -0.1722
43242OCT     C186483  23.007  10.479   6.262  0.0087  0.1498  0.1031
43242OCT     C286484  23.423  10.314   6.065 -0.1225 -0.0392  0.0759
43243OCT     C186485  18.984  15.689  13.592 -0.1190  0.1575 -0.2701
43243OCT     C286486  19.262  15.936  13.908  0.0428  0.5323 -0.3244
43244OCT     C186487  21.612  10.079   9.797 -0.0614 -0.2397  0.1668
43244OCT     C286488  21.596   9.704   9.607  0.1775  0.5217  0.1919
43245OCT     C186489   9.770  13.089  10.500 -0.2551 -0.0707  0.3199
43245OCT     C286490   9.938  12.715  10.279 -0.2997 -0.0540 -0.2738
43246OCT     C186491  16.929  16.567  17.313  0.0995  0.3497 -0.1596
43246OCT     C286492  17.332  16.604  17.093 -0.0396 -0.2064 -0.3695
43247OCT     C186493  12.251  14.428   9.953  0.2230  0.3288 -0.1842
43247OCT     C286494  12.012  14.599   9.644  0.1584  0.1525  0.1934
43248OCT     C186495   0.997  19.159   1.776  0.2817  0.1725 -0.0675
43248OCT     C286496   1.041  18.883   1.416 -0.2138 -0.0573 -0.0196
43249OCT     C186497  21.372  19.754  16.711 -0.0577 -0.3595  0.0484
43249OCT     C286498  21.218  19.978  16.285 -0.2197  0.0571 -0.1227
43250OCT     C186499  13.421   0.634  18.963  0.3330  0.0938  0.0913
43250OCT     C286500  13.732   0.783  19.285 -0.1552  0.2676 -0.1665
43251OCT     C186501   6.664  19.012   4.720 -0.2453  0.1116  0.0774
43251OCT     C286502   7.075  19.177   4.755  0.0205 -0.2327 -0.4617
43252OCT     C186503  20.896  18.923  10.526 -0.1373  0.1511 -0.2404
43252OCT     C286504  20.804  18.512  10.631 -0.0204 -0.0828  0.0477
43253OCT     C186505  10.143  20.775  10.360  0.1371 -0.2136 -0.1069
43253OCT     C286506   9.910  20.727   9.949 -0.2675  0.5451  0.0678
43254OCT     C186507  23.189  18.133   4.300 -0.0407 -0.0255  0.0148
43254OCT     C286508  23.020  18.537   4.326  0.3681 -0.1147 -0.1470
43255OCT     C186509  19.764  17.628  12.123  0.1230  0.2212  0.1891
43255OCT     C286510  19.615  17.185  12.112  0.2067  0.3617  0.0597
43256OCT     C186511  23.132   9.510   3.932  0.5725 -0.2227 -0.3159
43256OCT     C286512  22.697   9.674   3.765  0.3406 -0.1006 -0.3377
43257OCT     C186513  10.097  14.218  17.974 -0.2745 -0.0990  0.0172
43257OCT     C286514  10.120  14.573  18.288  0.2121 -0.1493  0.2675
43258OCT     C186515  11.504  16.545  17.953  0.0925  0.0343  0.2835
43258OCT     C286516  11.128  16.733  17.797 -0.1837 -0.2647  0.0732
43259OCT     C186517   3.687   4.161  17.848  0.2132  0.1823 -0.0628
43259OCT     C286518   3.351   3.806  17.860  0.1263 -0.2180 -0.1882
43260OCT     C186519   5.316  23.254  16.223  0.2666 -0.2247 -0.0665
43260OCT     C286520   5.574  22.984  15.906  0.1417  0.0066 -0.2729
43261OCT     C186521  13.214   8.869  22.579  0.3029 -0.0520  0.1106
43261OCT     C286522  13.416   8.456  22.623 -0.1156 -0.3200  0.3820
43262OCT     C186523  17.282   0.428   8.000 -0.0535  0.1138 -0.1130
43262OCT     C286524  17.754   0.404   8.089 -0.0339 -0.0613  0.2342
43263OCT     C186525  21.557   1.786   6.839  0.2665  0.4543 -0.1249
43263OCT     C286526  21.088   1.858   6.698  0.1117 -0.0051  0.2979
43264OCT     C186527   4.024  20.347   3.774 -0.1541 -0.2064 -0.0259
43264OCT     C286528   3.641  20.445   3.485 -0.0258  0.0662  0.1558
43265OCT     C186529   2.644  22.148   6.955  0.0571  0.4362  0.2535
43265OCT     C286530   2.827  22.044   6.560 -0.0919 -0.2104  0.4530
43266OCT     C186531  10.859  14.921   5.477 -0.0588  0.0393 -0.1573
43266OCT     C286532  10.910  14.617   5.064  0.1644  0.0480  0.1429
43267OCT     C186533  14.440   4.976  19.562 -0.1700  0.2880  0.2547
43267OCT     C286534  14.468   5.172  19.929 -0.0831 -0.2172  0.3949
43268OCT     C186535   9.975  17.091   7.176 -0.1419  0.1014 -0.0983
43268OCT     C286536  10.234  17.452   7.238 -0.2385 -0.2225  0.2591
43269OCT     C186537  13.255   9.400   4.339  0.0829 -0.1121 -0.3684
43269OCT     C286538  13.572   9.070   4.277 -0.1370 -0.1875 -0.0360
43270OCT     C186539   6.470  12.842   7.625 -0.1530 -0.2062  0.3416
43270OCT     C286540   6.498  13.211   7.951 -0.1962 -0.1322 -0.0627
43271OCT     C186541  13.736   9.612   2.799  0.0629 -0.0959 -0.1565
43271OCT     C286542  14.041   9.300   2.702 -0.0405  0.0256 -0.0475
43272OCT     C186543  16.285  21.825  11.280  0.4208  0.2432  0.1263
43272OCT     C286544  16.737  21.847  11.278 -0.1619  0.0267  0.5792
43273OCT     C186545   8.287   0.143   5.341 -0.3876  0.0022  0.0350
43273OCT     C286546   8.200  23.424   5.485 -0.1028  0.2758  0.1210
43274OCT     C186547   1.445   2.328   5.842 -0.0740 -0.3424  0.1584
43274OCT     C286548   1.598   2.285   5.424 -0.0705  0.0500 -0.2401
43275OCT     C186549  23.621   2.726   0.068  0.2580  0.0652  0.1953
43275OCT     C286550   0.048   2.271  23.677  0.0426 -0.2912 -0.2662
43276OCT     C186551   5.714  15.631  10.778  0.1111  0.3037  0.2272
43276OCT     C286552   5.591  15.250  11.024  0.2193  0.0847 -0.2423
43277OCT     C186553   1.607   5.126   5.675  0.1994 -0.1554  0.1110
43277OCT     C286554   1.415   5.515   5.717 -0.2765 -0.0477  0.0188
43278OCT     C186555  14.889  12.893  10.306 -0.0122 -0.0792 -0.0872
43278OCT     C286556  15.259  13.055  10.495  0.0736  0.2301 -0.2910
43279OCT     C186557   1.311   5.934  19.444  0.0311  0.0590  0.1594
43279OCT     C286558   0.901   5.760  19.221 -0.0771  0.1122  0.0697
43280OCT     C186559  11.110   7.632   3.232  0.1922 -0.0503 -0.3094
43280OCT     C286560  10.664   7.783   3.239  0.2474 -0.0083  0.0937
43281OCT     C186561  12.764  18.941  14.152 -0.1870  0.1234 -0.0680
43281OCT     C286562  12.482  18.973  14.519 -0.2382 -0.0185  0.1124
43282OCT     C186563  11.916  11.764  19.945  0.0471  0.0123  0.1157
43282OCT     C286564  12.081  11.271  19.891  0.0037  0.0032  0.2203
43283OCT     C186565  22.113   8.921  10.834 -0.0065 -0.1809  0.1512
43283OCT     C286566  22.444   8.852  10.502  0.3020  0.2102 -0.0395
43284OCT     C186567  23.133  10.166  11.343  0.2969  0.2634  0.0977
43284OCT     C286568  22.979   9.917  11.701  0.0093 -0.0668  0.1551
43285OCT     C186569  14.060  11.686  11.958  0.2070  0.3711  0.0428
43285OCT     C286570  14.131  11.991  12.202  0.4143  0.2044 -0.2208
43286OCT     C186571   3.117  21.453  14.046 -0.4219  0.2031  0.6381
43286OCT     C286572   2.967  21.365  14.484  0.0777  0.2404  0.0445
43287OCT     C186573   0.083  13.913   7.623  0.0930  0.1108  0.3213
43287OCT     C286574   0.325  13.802   8.005 -0.1050 -0.0320  0.0563
43288OCT     C186575  19.757   7.097  17.959  0.0207  0.0299 -0.1375
43288OCT     C286576  19.871   6.683  17.706 -0.1154  0.3088 -0.0063
43289OCT     C186577   8.225   2.422  12.880  0.0236 -0.2342  0.1811
43289OCT     C286578   8.019   2.045  13.054 -0.0151  0.1973 -0.1882
43290OCT     C186579  13.529   6.678   8.573  0.1700  0.0028  0.0693
43290OCT     C286580  13.732   6.669   8.181 -0.1372  0.2898  0.2911
43291OCT     C186581  13.997  13.824  21.788 -0.0147 -0.2774  0.0728
43291OCT     C286582  13.840  13.702  21.360  0.1657 -0.1467 -0.2828
43292OCT     C186583   5.676  23.042  17.713  0.1603 -0.0294  0.1466
43292OCT     C286584   5.726  22.570  17.948  0.0731  0.0573  0.2596
43293OCT     C186585   1.406   6.451  21.635 -0.2765  0.0073  0.1822
43293OCT     C286586   1.610   6.502  21.169 -0.0308 -0.0215  0.0665
43294OCT     C186587   1.152  16.127   5.816 -0.1181 -0.1056 -0.0519
43294OCT     C286588   0.934  16.552   5.670  0.2704  0.0731  0.4667
43295OCT     C186589  11.798   3.439  15.496  0.0899 -0.0062  0.5578
43295OCT     C286590  11.318   3.422  15.374 -0.1632 -0.4166  0.0002
43296OCT     C186591  10.612   8.172  15.520 -0.0203 -0.0230  0.2537
43296OCT     C286592  10.800   7.818  15.366 -0.0148  0.2816  0.0603
43297OCT     C186593  21.152   8.659   2.264 -0.1474 -0.3676 -0.1269
43297OCT     C286594  20.879   8.679   1.910 -0.3729 -0.1330 -0.3217
43298OCT     C186595  16.874   5.222  12.084 -0.0970  0.1939  0.2278
43298OCT     C286596  16.982   5.441  11.710 -0.0625  0.2023  0.0773
43299OCT     C186597   5.825  18.699   8.105 -0.0919 -0.1533 -0.1006
43299OCT     C286598   6.098  18.310   8.013  0.0890 -0.1394  0.0855
43300OCT     C186599  10.939  18.218  18.349  0.1761 -0.0866  0.0221
43300OCT     C286600  11.119  18.499  18.686  0.0548 -0.3362 -0.4013
43301OCT     C186601  16.266  14.206  11.847 -0.2864  0.0647 -0.0284
43301OCT     C286602  15.977  13.999  11.545 -0.3368 -0.2756  0.1814
43302OCT     C186603  15.894   5.814   3.454 -0.2237 -0.3244 -0.1218
43302OCT     C286604  15.641   5.423   3.569  0.1937  0.3404 -0.1897
43303OCT     C186605  12.906  11.932  14.989  0.1604 -0.0213 -0.0865
43303OCT     C286606  13.239  11.610  14.905 -0.4915  0.3656 -0.3885
43304OCT     C186607   6.971   3.642   3.279  0.0802 -0.0738  0.0159
43304OCT     C286608   7.085   3.998   3.569 -0.0745 -0.0499 -0.5159
43305OCT     C186609   4.671  14.700  10.604  0.1608  0.1724  0.3609
43305OCT     C286610   4.700  14.289  10.351 -0.0589  0.1128  0.2831
43306OCT     C186611   9.280  17.941  15.347  0.2051  0.2030  0.0306
43306OCT     C286612   9.286  17.461  15.367  0.3616  0.2490 -0.1344
43307OCT     C186613   2.000  13.645   3.300 -0.0739  0.0499  0.1139
43307OCT     C286614   2.134  13.643   3.691 -0.1909  0.0793 -0.1455
43308OCT     C186615   4.727   1.255  17.918  0.1093  0.0072  0.2076
43308OCT     C286616   4.644   1.705  17.891 -0.1859 -0.0038  0.2825
43309OCT     C186617  15.168  21.640  18.836  0.4580 -0.2099 -0.0999
43309OCT     C286618  15.435  22.006  18.687  0.3607  0.1258 -0.1046
43310OCT     C186619  14.098  12.182  11.789 -0.0655  0.1419  0.2938
43310OCT     C286620  14.579  12.187  11.784  0.0093  0.1090  0.3595
43311OCT     C186621   5.539  13.727   6.042 -0.0616  0.4192 -0.0177
43311OCT     C286622   5.902  13.869   5.798 -0.5387  0.1223  0.1170
43312OCT     C186623   4.158   4.519  13.057  0.0119  0.2590  0.0285
43312OCT     C286624   3.782   4.724  13.022 -0.0950 -0.0807  0.2241
43313OCT     C186625   0.037   0.448  15.160  0.2641  0.5162 -0.1266
43313OCT     C286626  23.537   0.109  15.328  0.0475 -0.3053 -0.3610
43314OCT     C186627   9.072  15.497  17.485  0.1264 -0.3579  0.5328
43314OCT     C286628   8.820  15.123  17.672  0.2668  0.2036  0.1869
43315OCT     C186629   3.828   6.714  12.110  0.0092  0.0630  0.0797
43315OCT     C286630   4.306   6.889  12.138  0.1971  0.1922 -0.0458
43316OCT     C186631  17.439   9.364  21.906  0.2362 -0.0063 -0.0427
43316OCT     C286632  17.781   9.247  22.236 -0.3549 -0.0473 -0.1800
43317OCT     C186633  18.752  10.892  14.771 -0.2467 -0.3113 -0.0768
43317OCT     C286634  18.870  10.723  14.398  0.2441  0.0367 -0.0998
43318OCT     C186635   0.349   2.506  18.288  0.0865 -0.2498  0.1829
43318OCT     C286636   0.770   2.616  18.323 -0.0036 -0.2129  0.2602
43319OCT     C186637  20.876  16.036   5.541  0.0080  0.2956  0.1232
43319OCT     C286638  21.059  16.359   5.254 -0.1524 -0.0421 -0.3708
43320OCT     C186639   1.046  10.358  17.945 -0.0791  0.2425  0.0816
43320OCT     C286640   0.722  10.236  18.266  0.0212 -0.3152 -0.1464
43321OCT     C186641   6.737  18.253  20.182 -0.0403 -0.0718 -0.3362
43321OCT     C286642   6.377  18.265  19.956  0.1048  0.2194 -0.1817
43322OCT     C186643  15.509   3.618   5.677 -0.1756  0.1885 -0.1311
43322OCT     C286644  15.081   3.383   5.705 -0.0197 -0.3148 -0.2221
43323OCT     C186645  17.899  11.384  10.434  0.3374 -0.0504  0.5533
43323OCT     C286646  17.987  11.733  10.698 -0.1769  0.2172  0.1895
43324OCT     C186647   6.698  12.932   1.388  0.1578  0.1628  0.1657
43324OCT     C286648   6.538  12.847   0.950  0.1094 -0.1178 -0.3407
43325OCT     C186649   2.224   4.620  11.711  0.2816  0.0879 -0.0371
43325OCT     C286650   2.092   4.557  12.159 -0.0282 -0.1090  0.1708
43326OCT     C186651  18.925  21.066  23.532 -0.0368  0.2002 -0.2850
43326OCT     C286652  19.140  20.914   0.203 -0.0231 -0.2020  0.1521
43327OCT     C186653  15.495  20.304   4.925  0.1292  0.0575 -0.4735
43327OCT     C286654  15.036  20.324   5.116 -0.3601  0.4202 -0.5829
43328OCT     C186655   0.284  22.235   7.017  0.1769  0.1846 -0.0494
43328OCT     C286656  23.644  22.160   7.279  0.1942 -0.1873 -0.0545
43329OCT     C186657   6.098  11.408  16.092  0.0166  0.0775  0.0896
43329OCT     C286658   5.856  11.048  16.249 -0.2103  0.3325 -0.0745
43330OCT     C186659   5.084   1.765   1.824 -0.2792 -0.2708 -0.0501
43330OCT     C286660   5.197   1.445   2.110 -0.2258 -0.3497  0.0342
43331OCT     C186661   5.288  12.831  13.428  0.2177  0.0860  0.2242
43331OCT     C286662   5.332  12.439  13.152 -0.1790 -0.1523  0.0279
43332OCT     C186663  11.045   0.961  21.106 -0.2187  0.0229 -0.0749
43332OCT     C286664  11.310   1.038  20.760 -0.1379 -0.1239 -0.0141
43333OCT     C186665  12.368  20.061  12.925 -0.1835  0.2415 -0.2836
43333OCT     C286666  12.111  20.342  12.645 -0.1197 -0.0413  0.1847
43334OCT     C186667   4.278  18.602   0.722 -0.0360  0.2654  0.2132
43334OCT     C286668   4.041  18.299   0.450  0.0137 -0.2778  0.0978
43335OCT     C186669   2.051  17.379   2.488 -0.2038  0.1087  0.1091
43335OCT     C286670   1.860  17.598   2.832  0.1611 -0.2043  0.2878
43336OCT     C186671  14.737  10.435   9.116  0.0907 -0.1987  0.0322
43336OCT     C286672  15.042  10.439   9.413  0.0080  0.0949  0.2650
43337OCT     C186673   0.771  18.963  21.510  0.2019 -0.2161  0.2500
43337OCT     C286674   0.355  18.841  21.727  0.1324 -0.1636  0.0088
43338OCT     C186675  21.803   1.888   8.731 -0.0700 -0.2020  0.0378
43338OCT     C286676  22.075   2.123   9.016  0.4226 -0.1229 -0.0621
43339OCT     C186677  22.884  16.059   5.581  0.0914  0.2951  0.0440
43339OCT     C286678  23.156  15.926   5.989 -0.0075  0.1085 -0.1283
43340OCT     C186679   4.721   5.131   1.602 -0.0926 -0.2321  0.0489
43340OCT     C286680   4.450   5.505   1.635 -0.0068 -0.2339 -0.1250
43341OCT     C186681  22.218  12.260  16.674  0.0691 -0.0216  0.1351
43341OCT     C286682  22.647  12.443  16.797 -0.0797  0.0752 -0.0293
43342OCT     C186683   7.103   4.639  18.721 -0.3616 -0.0764  0.2944
43342OCT     C286684   7.467   4.853  18.490 -0.2868  0.1855 -0.1670
43343OCT     C186685   5.806   2.470   7.462 -0.4940  0.3111  0.0411
43343OCT     C286686   6.124   2.554   7.735  0.0793 -0.0614 -0.2761
43344OCT     C186687   8.058   6.258  18.375 -0.1069 -0.1227  0.1409
43344OCT     C286688   8.021   6.482  18.754  0.0541  0.1462  0.1895
43345OCT     C186689  14.905  10.550  21.889  0.2888  0.4641 -0.0839
43345OCT     C286690  15.186  10.188  21.690 -0.0301  0.0979  0.0975
43346OCT     C186691  17.144  22.844   8.801 -0.1082  0.1345  0.0733
43346OCT     C286692  17.522  23.078   8.765 -0.1471 -0.0843 -0.2626
43347OCT     C186693  20.328   7.386   1.496  0.1785 -0.2043 -0.1979
43347OCT     C286694  20.154   7.551   1.866 -0.1208 -0.0001 -0.1031
43348OCT     C186695   0.242   6.157  11.605  0.3361  0.2131 -0.1526
43348OCT     C286696  23.649   6.363  11.456  0.1908  0.0928 -0.4242
43349OCT     C186697  16.269   6.231  16.397  0.3306  0.1824 -0.0718
43349OCT     C286698  16.743   6.249  16.385  0.1355  0.2955 -0.3330
43350OCT     C186699  19.307  22.536   6.483  0.4941  0.0429  0.1888
43350OCT     C286700  19.523  22.851   6.755  0.0215  0.0235  0.2085
43351OCT     C186701   7.937   6.703   7.231 -0.2747  0.3545 -0.2045
43351OCT     C286702   7.769   6.318   7.127  0.0655  0.0200 -0.0237
43352OCT     C186703  11.858   1.474   4.978  0.0405  0.3182  0.2033
43352OCT     C286704  12.330   1.289   4.988 -0.1579  0.4616  0.2279
43353OCT     C186705   8.079  13.196  20.897  0.2539  0.2715 -0.1266
43353OCT     C286706   8.346  13.581  20.762 -0.5157  0.1228 -0.1260
43354OCT     C186707  10.198   1.662   7.390 -0.0852 -0.2793  0.2973
43354OCT     C286708   9.720   1.730   7.248  0.1017 -0.0990  0.2730
43355OCT     C186709   8.301  20.836   6.448 -0.0499 -0.4020  0.0518
43355OCT     C286710   8.076  21.092   6.136 -0.0575 -0.2704  0.0235
43356OCT     C186711  21.015  19.453  14.723 -0.1997 -0.2731 -0.1553
43356OCT     C286712  20.871  19.216  14.347 -0.0526  0.0312  0.1253
43357OCT     C186713  12.296  11.632   1.950 -0.0405 -0.3990  0.0042
43357OCT     C286714  11.954  11.873   1.727 -0.1471 -0.5621  0.2660
43358OCT     C186715  17.249  17.429   7.301  0.3124 -0.0134 -0.1699
43358OCT     C286716  17.536  17.415   6.910 -0.1565 -0.0303 -0.1253
43359OCT     C186717  13.851  17.829   4.719 -0.1661 -0.1424  0.1001
43359OCT     C286718  14.254  17.628   4.902 -0.0170 -0.1410 -0.1763
43360OCT     C186719  19.432  18.261  12.453  0.0298  0.1243 -0.2761
43360OCT     C286720  19.591  18.381  12.886  0.1809 -0.0834 -0.3016
43361OCT     C186721  20.947  11.036  20.881 -0.0030  0.2179 -0.0581
43361OCT     C286722  20.991  11.242  20.491  0.4301  0.1494  0.0282
43362OCT     C186723  23.182   4.930   5.005 -0.2719  0.1600  0.0304
43362OCT     C286724  22.990   5.289   5.193  0.0336  0.1509 -0.0776
43363OCT     C186725   5.606   0.423   9.054  0.0188 -0.0788 -0.2068
43363OCT     C286726   5.433   0.403   9.495 -0.0798 -0.0660 -0.2246
43364OCT     C186727  20.224  22.518   2.578 -0.2332 -0.0143 -0.0128
43364OCT     C286728  20.607  22.600   2.316  0.2801 -0.2720 -0.1471
43365OCT     C186729  18.934  19.037  13.733 -0.0311 -0.0490 -0.1935
43365OCT     C286730  19.293  19.231  13.485  0.4083  0.5101 -0.2667
43366OCT     C186731  18.866   7.421  11.194 -0.0099 -0.2486  0.0493
43366OCT     C286732  18.748   7.013  11.053 -0.0470 -0.0343  0.2643
43367OCT     C186733   4.079  18.889   0.302  0.1147  0.3069 -0.0155
43367OCT     C286734   4.276  18.915  23.577 -0.0979  0.1946  0.2383
43368OCT     C186735   3.261  23.473   5.825  0.1082 -0.0555  0.0498
43368OCT     C286736   2.923  23.244   5.618 -0.3646 -0.0700  0.2185
43369OCT     C186737  18.253   0.352  18.469 -0.2857 -0.1357  0.0278
43369OCT     C286738  17.865   0.543  18.236 -0.0171  0.0647  0.0740
43370OCT     C186739  14.801   6.355  18.599 -0.0592  0.0704  0.2072
43370OCT     C286740  14.958   6.736  18.818 -0.0880 -0.3751 -0.1188
43371OCT     C186741   4.864  21.949   2.372  0.1475 -0.1548  0.0908
43371OCT     C286742   5.266  22.080   2.157  0.1374  0.2775 -0.1947
43372OCT     C186743   2.877  23.156  21.222  0.2599 -0.0599 -0.1368
43372OCT     C286744   3.331  23.120  20.993 -0.5158  0.0253  0.3581
43373OCT     C186745   0.848   9.607   5.534 -0.1280  0.0859 -0.0825
43373OCT     C286746   0.732  10.037   5.814  0.0218  0.1548  0.2190
43374OCT     C186747   9.437   9.960   4.293 -0.2734 -0.0198  0.1005
43374OCT     C286748   9.494   9.876   4.767 -0.0150 -0.0541  0.0244
43375OCT     C186749  10.396  12.486   1.441  0.2605 -0.1129 -0.3234
43375OCT     C286750  10.718  12.164   1.607 -0.3160  0.0560  0.0595
43376OCT     C186751  22.460   3.579  15.121  0.3251 -0.0380 -0.2693
43376OCT     C286752  22.316   3.592  14.708 -0.0513  0.0474  0.0762
43377OCT     C186753   1.155   5.010  17.785  0.2670  0.2182  0.0994
43377OCT     C286754   0.839   4.806  18.068 -0.1798 -0.4779  0.3476
43378OCT     C186755  20.655   7.976   2.331 -0.5564 -0.2196  0.2537
43378OCT     C286756  20.562   7.503   2.303  0.3042  0.0468  0.1243
43379OCT     C186757  12.496   3.380  16.962 -0.0571 -0.1007 -0.0433
43379OCT     C286758  12.823   3.307  17.283  0.3380 -0.2067  0.1487
43380OCT     C186759   4.058  13.354  18.962 -0.2722  0.0302  0.0239
43380OCT     C286760   3.814  13.149  18.618  0.1596  0.0977  0.2332
43381OCT     C186761  20.683  19.453  20.790 -0.0490  0.1904  0.3354
43381OCT     C286762  20.774  19.234  21.193 -0.1012  0.0707  0.1118
43382OCT     C186763  17.882  11.411   1.016 -0.3186  0.2168  0.0847
43382OCT     C286764  18.067  11.694   0.668  0.0225  0.1085 -0.2110
43383OCT     C186765   4.116  19.449  16.494  0.0582  0.6062  0.1596
43383OCT     C286766   4.474  19.502  16.826 -0.0632  0.1029  0.1197
43384OCT     C186767   5.894   5.087  23.498  0.3561  0.0896  0.0532
43384OCT     C286768   6.245   4.804  23.451 -0.0246  0.4288  0.3666
43385OCT     C186769   2.959  22.877  20.220 -0.0558 -0.0212 -0.0279
43385OCT     C286770   2.508  22.696  20.039  0.0262 -0.3377 -0.0130
43386OCT     C186771   4.669  16.454  16.212  0.2855 -0.3560  0.0655
43386OCT     C286772   4.397  16.745  16.011  0.1574  0.0361 -0.0174
43387OCT     C186773   3.796  19.049   7.974  0.2814 -0.3081 -0.0370
43387OCT     C286774   3.988  19.346   8.306  0.0742  0.0788  0.2284
43388OCT     C186775  12.576   5.234   2.593  0.2534  0.1868  0.1048
43388OCT     C286776  12.613   5.480   3.003  0.0961 -0.1184 -0.1452
43389OCT     C186777   9.539  10.411  22.205  0.1052 -0.0723  0.0857
43389OCT     C286778   9.674  10.893  22.143 -0.0184  0.4637 -0.0097
43390OCT     C186779   7.747   9.071  22.359  0.2655 -0.2469 -0.1943
43390OCT     C286780   7.922   8.783  22.721  0.1502 -0.3855  0.1918
43391OCT     C186781   3.811   5.769   6.150  0.3432  0.1575 -0.2762
43391OCT     C286782   3.695   5.865   6.634  0.2591  0.1619 -0.0663
43392OCT     C186783   4.963   9.899  17.349  0.5140 -0.2968 -0.0947
43392OCT     C286784   4.658  10.284  17.317  0.3453  0.0873  0.4303
43393OCT     C186785   5.735  13.583  21.798 -0.1609 -0.1581 -0.0228
43393OCT     C286786   5.809  13.214  22.079  0.0325 -0.1081 -0.3187
43394OCT     C186787  13.943   3.926  10.654  0.2428  0.0486 -0.2656
43394OCT     C286788  13.796   4.102  10.279  0.2430 -0.3262 -0.3896
43395OCT     C186789  15.338   1.257   0.629 -0.2260  0.0833  0.0101
43395OCT     C286790  15.685   1.036   0.919  0.0704 -0.3872  0.0806
43396OCT     C186791  12.170  19.332  23.067 -0.0449  0.0383  0.0398
43396OCT     C286792  12.263  19.768  22.838  0.2412 -0.1981 -0.0081
43397OCT     C186793   3.250  12.624  17.867  0.0560 -0.0173 -0.1335
43397OCT     C286794   2.930  12.859  17.618 -0.1385  0.2228 -0.0011
43398OCT     C186795  23.533   2.804  12.622  0.3065 -0.3340  0.2061
43398OCT     C286796  23.204   2.560  12.381 -0.5800  0.3669  0.2854
43399OCT     C186797   2.635   7.142  10.750  0.0181 -0.0117 -0.1160
43399OCT     C286798   2.191   6.909  10.753  0.4668 -0.2946 -0.1320
43400OCT     C186799  21.168  18.830   7.977  0.2691  0.2024 -0.3420
43400OCT     C286800  21.151  19.268   8.081  0.0999  0.1621  0.2524
43401OCT     C186801  14.717  21.598  18.330 -0.0110  0.1165  0.0988
43401OCT     C286802  14.834  21.291  18.671  0.1543  0.3216 -0.0989
43402OCT     C186803   3.358  15.416  17.859  0.3148 -0.0385  0.2941
43402OCT     C286804   3.707  15.701  17.727 -0.1741  0.3494 -0.1023
43403OCT     C186805   4.290  18.797  18.791 -0.0284  0.0064  0.0281
43403OCT     C286806   4.317  19.059  19.195  0.1221  0.1668 -0.2206
43404OCT     C186807  22.239  16.963   9.400 -0.1826  0.1604 -0.1760
43404OCT     C286808  22.740  16.862   9.564  0.1771 -0.2054 -0.2260
43405OCT     C186809  12.093   4.943   6.647 -0.3081  0.0495  0.0890
43405OCT     C286810  11.753   4.683   6.486 -0.1965  0.1553  0.1033
43406OCT     C186811   7.621  15.537  14.726 -0.1087 -0.3108 -0.0267
43406OCT     C286812   7.765  15.124  14.639 -0.1549  0.2862 -0.1436
43407OCT     C186813  17.327   7.973  11.556 -0.0074 -0.1169  0.1373
43407OCT     C286814  17.473   7.505  11.443 -0.1341  0.0071  0.1499
43408OCT     C186815   6.220  10.421  19.367 -0.1438  0.0560  0.0596
43408OCT     C286816   6.565  10.216  19.641 -0.3755 -0.2976 -0.0145
43409OCT     C186817  22.921  19.387  22.378  0.3987 -0.2468  0.1279
43409OCT     C286818  22.470  19.384  22.584 -0.1107 -0.1498 -0.0570
43410OCT     C186819   2.437   6.188  20.751 -0.2388  0.0967 -0.1720
43410OCT     C286820   2.180   5.855  20.571 -0.3254 -0.1669 -0.4459
43411OCT     C186821  21.664   6.322  23.523 -0.1396 -0.2429  0.0056
43411OCT     C286822  21.384   5.990  23.738  0.3483 -0.1030  0.3478
43412OCT     C186823  14.272   6.739   8.097 -0.1171 -0.0972 -0.5300
43412OCT     C286824  14.373   6.875   7.654 -0.3203  0.2039  0.1365
43413OCT     C186825   7.647   1.336   2.025  0.2534 -0.0712 -0.2091
43413OCT     C286826   7.688   1.642   1.730 -0.1305 -0.1176 -0.1340
43414OCT     C186827  23.355  11.241  18.084  0.0036  0.0268 -0.1743
43414OCT     C286828  23.131  10.852  18.180  0.2158 -0.1510 -0.2761
43415OCT     C186829  14.754  16.268   8.517 -0.0716  0.3280  0.0396
43415OCT     C286830  14.411  16.341   8.223 -0.1931 -0.0487  0.0096
43416OCT     C186831  13.772   1.514  15.854 -0.0028  0.0861 -0.2260
43416OCT     C286832  14.014   1.109  15.984 -0.0360 -0.0642  0.0341
43417OCT     C186833  13.946   7.365   2.091  0.2880  0.1816  0.1072
43417OCT     C286834  13.630   7.446   2.448 -0.0232 -0.1581 -0.0076
43418OCT     C186835  20.128  10.894  13.146 -0.0380 -0.2028  0.0040
43418OCT     C286836  19.760  11.120  12.978 -0.4232  0.2108  0.2847
43419OCT     C186837   4.169  15.462  22.898 -0.2618  0.4279  0.1741
43419OCT     C286838   4.604  15.606  23.031  0.1092 -0.0907  0.1052
43420OCT     C186839  12.913  15.733   1.081  0.1791  0.1662  0.0359
43420OCT     C286840  12.735  15.332   1.325  0.2036  0.1659  0.0575
43421OCT     C186841  21.586  22.896   2.660  0.2412  0.2278  0.0945
43421OCT     C286842  21.950  22.590   2.719 -0.1452 -0.2930  0.0766
43422OCT     C186843   1.944  15.293   7.906 -0.1361  0.0125 -0.0397
43422OCT     C286844   2.288  15.426   7.683  0.0268 -0.1358 -0.1912
43423OCT     C186845  11.380   4.941   1.615 -0.2028 -0.0745  0.1185
43423OCT     C286846  11.823   4.827   1.500 -0.1230 -0.0456 -0.1148
43424OCT     C186847   2.877  10.201  16.415  0.0055 -0.3180 -0.5321
43424OCT     C286848   2.879  10.595  16.638  0.4218  0.1210 -0.3562
43425OCT     C186849  11.429  22.201   2.870  0.1118  0.1896 -0.0714
43425OCT     C286850  11.104  22.081   2.543  0.2132 -0.1983 -0.3050
43426OCT     C186851   5.510   4.720  10.473 -0.4452 -0.0774 -0.5680
43426OCT     C286852   5.340   5.107  10.394  0.1568  0.3254 -0.3352
43427OCT     C186853  14.210  17.349   3.661 -0.2750 -0.2678  0.2151
43427OCT     C286854  14.070  17.696   3.919 -0.1570  0.1232  0.0612
43428OCT     C186855  18.433  22.376   7.980 -0.2407 -0.1236  0.1013
43428OCT     C286856  18.279  22.270   7.602  0.1561  0.4879  0.0290
43429OCT     C186857  12.776  14.682   6.323  0.0876  0.0012  0.0687
43429OCT     C286858  13.004  14.626   6.716  0.2327  0.3188 -0.3191
43430OCT     C186859   3.708   7.811  14.924 -0.1024 -0.0082 -0.0482
43430OCT     C286860   3.999   8.026  14.639 -0.1288  0.0708  0.2695
43431OCT     C186861   1.479   8.078  21.510 -0.0086  0.0791  0.1051
43431OCT     C286862   1.335   8.483  21.648  0.1648 -0.1955 -0.0973
43432OCT     C186863  22.103  12.982  12.535 -0.4120 -0.1864 -0.1684
43432OCT     C286864  22.508  13.192  12.482  0.5466  0.0935  0.1857
43433OCT     C186865   1.698   8.327   0.684 -0.1320 -0.0502  0.0440
43433OCT     C286866   2.040   8.217   0.387 -0.0843  0.2565  0.2521
43434OCT     C186867   8.744   5.239  12.769  0.2518 -0.2236  0.0525
43434OCT     C286868   8.914   4.780  12.843 -0.1370 -0.1788 -0.0093
43435OCT     C186869   6.516   8.174   1.114 -0.0133  0.3273 -0.0227
43435OCT     C286870   6.608   8.004   1.511  0.0458 -0.2405 -0.2102
43436OCT     C186871  11.803  16.081  16.815 -0.0007 -0.4251  0.0724
43436OCT     C286872  12.258  15.929  16.754  0.0759  0.4415  0.0541
43437OCT     C186873   2.803   8.006  11.311 -0.5200 -0.1966  0.0338
43437OCT     C286874   2.798   7.751  10.921  0.3561 -0.1136  0.0982
43438OCT     C186875   6.458   0.178  23.438 -0.1871 -0.2107 -0.1286
43438OCT     C286876   6.545  23.583   0.001 -0.1381 -0.0665  0.3875
43439OCT     C186877   0.536  13.754   9.809  0.1825  0.0763 -0.0668
43439OCT     C286878   0.540  14.173   9.950  0.3365  0.0986  0.0304
43440OCT     C186879  17.296   2.551  23.431 -0.1200 -0.1365 -0.0382
43440OCT     C286880  17.460   2.396  22.997 -0.5293  0.0632  0.0388
43441OCT     C186881  15.368   6.129  10.655 -0.0809  0.2105  0.0383
43441OCT     C286882  15.537   5.756  10.435 -0.3109 -0.0320 -0.0413
43442OCT     C186883  15.738  20.248   3.843 -0.0027  0.1003 -0.1470
43442OCT     C286884  15.829  20.374   4.295 -0.1006  0.0841  0.5600
43443OCT     C186885  10.170   3.256  14.197 -0.2654 -0.1649  0.0755
43443OCT     C286886  10.042   3.687  14.151  0.0192 -0.1137 -0.0127
43444OCT     C186887  11.427   8.675  15.410  0.2691  0.0422  0.4045
43444OCT     C286888  11.507   8.251  15.329  0.3805  0.0368  0.2624
43445OCT     C186889  12.766   5.510   8.342  0.0900  0.0159 -0.3236
43445OCT     C286890  13.052   5.205   8.478  0.3315  0.1254  0.1084
43446OCT     C186891  22.741  20.761  11.753 -0.1272 -0.2271  0.0620
43446OCT     C286892  23.061  20.924  11.993 -0.2539 -0.0537  0.1108
43447OCT     C186893   7.048   5.783  16.366 -0.1118  0.1753 -0.0892
43447OCT     C286894   6.803   6.168  16.385  0.3094 -0.1656 -0.0845
43448OCT     C186895  16.961  13.664   0.728  0.2377 -0.0080  0.1525
43448OCT     C286896  16.999  13.232   0.874 -0.0266 -0.0674 -0.5231
43449OCT     C186897  22.109  14.382  21.341  0.1045  0.0309  0.1372
43449OCT     C286898  21.699  14.237  21.203 -0.1901 -0.4339 -0.2109
43450OCT     C186899  12.960   8.850  20.899  0.2426  0.1725  0.1021
43450OCT     C286900  12.580   9.111  20.758  0.1141  0.2358  0.3087
43451OCT     C186901  22.080  22.602   2.181  0.3408  0.0283 -0.0710
43451OCT     C286902  21.813  22.942   1.990 -0.1989 -0.2410  0.1113
43452OCT     C186903   6.734   6.814   9.369 -0.2221 -0.1938 -0.1670
43452OCT     C286904   6.788   6.805   9.840  0.1806 -0.0033 -0.2876
43453OCT     C186905   7.599  22.928  13.559 -0.1304 -0.0169  0.0390
43453OCT     C286906   7.693  23.197  13.946  0.1110 -0.1739  0.0010
43454OCT     C186907  13.727   1.439   9.727  0.0860 -0.0217  0.1437
43454OCT     C286908  14.129   1.435   9.950 -0.0438 -0.0605  0.0162
43455OCT     C186909  15.352   3.799  23.186  0.1500  0.0318  0.0784
43455OCT     C286910  15.476   3.377  23.076 -0.0728 -0.2712  0.0841
43456OCT     C186911  13.906  15.949  10.400  0.1570 -0.0162 -0.1439
43456OCT     C286912  14.195  16.256  10.180  0.0182  0.0244  0.3069
43457OCT     C186913  18.473   9.886   6.281 -0.3665  0.1480 -0.0774
43457OCT     C286914  18.413   9.937   6.768 -0.2679  0.0000 -0.0502
43458OCT     C186915   3.780   1.537  16.622  0.1054  0.1649  0.1850
43458OCT     C286916   3.488   1.417  16.934 -0.2268  0.2414 -0.1073
43459OCT     C186917   3.651   3.635   9.931  0.1979  0.2480 -0.2248
43459OCT     C286918   3.421   3.842   9.569 -0.3281 -0.0873  0.1601
43460OCT     C186919   6.175  19.431   0.738 -0.1171 -0.2639  0.1838
43460OCT     C286920   5.884  19.418   1.125  0.1287 -0.3092  0.1471
43461OCT     C186921   2.958   2.206   5.407  0.3992 -0.0637 -0.2442
43461OCT     C286922   3.055   1.893   5.695 -0.2119 -0.2134 -0.1531
43462OCT     C186923   8.738  17.221   4.151  0.0720 -0.0780  0.0967
43462OCT     C286924   8.552  17.597   4.234 -0.1287 -0.0782  0.0864
43463OCT     C186925  13.125  20.752  14.383  0.2463  0.2822 -0.2130
43463OCT     C286926  13.580  20.732  14.282  0.2270 -0.5948  0.1004
43464OCT     C186927  13.890  23.620   3.260 -0.0649 -0.0764 -0.2379
43464OCT     C286928  13.600   0.265   3.183  0.1527  0.0175  0.1123
43465OCT     C186929  22.188  23.439  13.808 -0.1634 -0.1283 -0.0348
43465OCT     C286930  22.396  23.148  13.481  0.3564  0.2081 -0.0519
43466OCT     C186931   9.052   1.576   0.365  0.2578  0.0435 -0.3146
43466OCT     C286932   9.281   1.811   0.666  0.1235 -0.1966  0.0138
43467OCT     C186933  10.087  23.440   2.213  0.1344  0.2673 -0.3311
43467OCT     C286934  10.509  23.328   2.200 -0.0761  0.0831  0.0103
43468OCT     C186935   1.593   9.598   2.552 -0.0767 -0.2269 -0.1096
43468OCT     C286936   1.350   9.647   2.957 -0.2504 -0.2792 -0.3207
43469OCT     C186937   8.136   3.595  10.463  0.0518 -0.0884  0.0665
43469OCT     C286938   8.309   3.405  10.053  0.2009 -0.0158  0.2023
43470OCT     C186939  13.937  14.422  10.857 -0.0205  0.3402 -0.0820
43470OCT     C286940  14.129  14.779  11.030 -0.2379 -0.1039 -0.3127
43471OCT     C186941   3.945   3.083   4.554  0.0036  0.1022 -0.2717
43471OCT     C286942   3.785   3.403   4.871 -0.0379 -0.1848  0.3742
43472OCT     C186943  22.178   1.379  13.269  0.1184  0.2888 -0.1167
43472OCT     C286944  22.498   1.593  13.079  0.0008  0.0414 -0.1659
43473OCT     C186945  20.483  11.374   8.575 -0.0204  0.1942 -0.2127
43473OCT     C286946  20.576  11.306   8.121  0.2412  0.0908  0.0007
43474OCT     C186947  14.674   5.629  20.120 -0.0166 -0.1803  0.2523
43474OCT     C286948  14.427   5.909  20.376 -0.0524 -0.0415 -0.1377
43475OCT     C186949  16.622   0.436   2.789 -0.3365 -0.0971 -0.0315
43475OCT     C286950  16.448   0.819   2.579  0.0392  0.3984 -0.0804
43476OCT     C186951   9.762  22.130  21.622 -0.4789 -0.0969  0.1923
43476OCT     C286952  10.113  21.844  21.503 -0.0930 -0.3820 -0.1344
43477OCT     C186953  18.437  15.342  23.081 -0.1817 -0.1488 -0.1359
43477OCT     C286954  18.357  14.916  22.937 -0.0321  0.2894 -0.0952
43478OCT     C186955   5.274  18.314   3.295  0.0643 -0.1526 -0.0623
43478OCT     C286956   5.166  18.478   3.725  0.3464  0.0705  0.0113
43479OCT     C186957  22.022   0.704  20.243  0.2094  0.3998  0.0919
43479OCT     C286958  21.841   0.531  19.844 -0.2543  0.0135 -0.0181
43480OCT     C186959  23.132  19.988  23.491  0.1506 -0.1954  0.1494
43480OCT     C286960  23.090  20.420  23.320  0.0036  0.0337  0.1097
43481OCT     C186961   7.873   5.533   0.639 -0.0765  0.0027  0.0998
43481OCT     C286962   7.877   5.966   0.723  0.0186  0.0142 -0.1938
43482OCT     C186963  21.838   4.944  22.258  0.2537 -0.0478  0.0015
43482OCT     C286964  21.703   4.684  22.608  0.1188 -0.1375 -0.0172
43483OCT     C186965   3.893  19.467   6.835  0.1424  0.2777 -0.3455
43483OCT     C286966   3.529  19.228   7.039 -0.6389 -0.1894 -0.0192
43484OCT     C186967  15.885  19.176  21.525  0.0117  0.0606 -0.2719
43484OCT     C286968  15.928  19.482  21.812 -0.1907  0.2287 -0.3162
43485OCT     C186969  20.244   4.518  21.338 -0.0451  0.4928  0.0612
43485OCT     C286970  20.544   4.196  21.094 -0.0039  0.0814 -0.1988
43486OCT     C186971  14.111   6.701  12.736 -0.2062  0.1121 -0.0582
43486OCT     C286972  13.714   6.564  12.568  0.2795  0.0704  0.2484
43487OCT     C186973  17.142   2.833   2.885 -0.0096 -0.0023  0.1700
43487OCT     C286974  17.082   2.400   2.760  0.0772  0.1910  0.0381
43488OCT     C186975   2.219   6.627  16.031 -0.2671  0.4445  0.0795
43488OCT     C286976   2.016   6.987  16.112  0.0862 -0.2140 -0.0620
43489OCT     C186977   7.977   3.920  16.600 -0.1557  0.0368 -0.2052
43489OCT     C286978   7.784   3.538  16.450 -0.0784 -0.1085  0.2510
43490OCT     C186979   5.957   3.730   8.155 -0.1780 -0.3724 -0.5195
43490OCT     C286980   5.571   3.875   8.362 -0.1907  0.2797  0.0992
43491OCT     C186981  22.030  19.846   3.473 -0.0141 -0.0093  0.2548
43491OCT     C286982  22.228  19.762   3.932 -0.2317  0.0261  0.0350
43492OCT     C186983   9.867  12.955  19.801  0.4324  0.0477  0.2228
43492OCT     C286984  10.312  12.985  19.875  0.1203 -0.2676 -0.2478
43493OCT     C186985   6.632  16.757  12.931 -0.0810 -0.0180 -0.5738
43493OCT     C286986   6.872  16.368  13.019 -0.2802 -0.2725  0.0267
43494OCT     C186987   6.454   2.236  18.762 -0.2090  0.1276  0.0505
43494OCT     C286988   6.175   2.609  18.883  0.0253 -0.0431  0.0192
43495OCT     C186989   1.032  13.785   9.897  0.0238  0.0935  0.3994
43495OCT     C286990   0.870  13.393   9.976  0.0594 -0.0550  0.2294
43496OCT     C186991   3.220  16.004  13.640  0.0153  0.0968  0.0496
43496OCT     C286992   3.360  15.609  13.824 -0.1750 -0.1482  0.1434
43497OCT     C186993  10.311  17.232   9.674  0.2292  0.3705  0.0429
43497OCT     C286994  10.301  16.967   9.202 -0.2728  0.2504  0.0795
43498OCT     C186995   1.313   5.912  13.205  0.0573 -0.1601  0.4236
43498OCT     C286996   0.922   6.147  13.108  0.1540 -0.1516  0.1014
43499OCT     C186997  21.945  16.599  22.265  0.0607 -0.0912 -0.2193
43499OCT     C286998  22.118  16.193  22.406 -0.4352  0.3084 -0.3612
43500OCT     C186999  17.193  14.845  21.205 -0.1446  0.2386 -0.2304
43500OCT     C287000  17.477  14.488  21.129 -0.2634 -0.0834  0.0791
43501OCT     C187001  15.544   8.959   1.060  0.2474  0.2291 -0.2274
43501OCT     C287002  15.893   9.106   1.380 -0.1926 -0.1448  0.1200
43502OCT     C187003  10.611   4.589   8.062  0.0999  0.0966 -0.1079
43502OCT     C287004  11.024   4.547   7.867 -0.1646 -0.3999  0.1660
43503OCT     C187005  13.996   2.106   4.364 -0.0884 -0.4994  0.2799
43503OCT     C287006  13.656   2.074   4.688  0.2037 -0.0451 -0.3050
43504OCT     C187007  18.716   4.683   9.433  0.0329 -0.0103 -0.1324
43504OCT     C287008  18.586   5.140   9.389  0.1265  0.0033  0.2622
43505OCT     C187009  21.938   6.085  21.270  0.3785  0.0506 -0.0379
43505OCT     C287010  22.009   6.351  20.873  0.4020 -0.2973 -0.1017
43506OCT     C187011   0.127  15.481   5.432  0.0969  0.2679  0.1474
43506OCT     C287012   0.056  15.247   5.881  0.2117 -0.0299 -0.0786
43507OCT     C187013   8.927   5.149   9.098 -0.5271 -0.0205  0.1830
43507OCT     C287014   9.055   5.069   9.513  0.0808 -0.1709  0.0998
43508OCT     C187015  19.630   9.914  20.409  0.0267 -0.1119  0.1361
43508OCT     C287016  19.662   9.430  20.466  0.1524 -0.0460  0.0354
43509OCT     C187017  12.461  19.759   8.925  0.1485  0.1718  0.4932
43509OCT     C287018  12.407  19.291   8.942  0.0237  0.0988  0.3977
43510OCT     C187019   8.121  13.323  18.108  0.4107  0.0554  0.0886
43510OCT     C287020   8.477  13.503  18.269 -0.0937  0.1110 -0.1124
43511OCT     C187021   5.884   3.793   4.245  0.2863  0.3698 -0.2126
43511OCT     C287022   5.991   3.380   4.006  0.0369 -0.0157  0.2102
43512OCT     C187023   6.535   3.104   8.626  0.1438  0.1424  0.0616
43512OCT     C287024   6.218   3.256   8.915  0.3557  0.1377  0.1320
43513OCT     C187025  19.756   5.343   4.077  0.0854 -0.4458 -0.0468
43513OCT     C287026  19.548   5.661   4.300  0.1024 -0.0266  0.3891
43514OCT     C187027   4.660  10.095   8.240 -0.1529 -0.1456  0.2003
43514OCT     C287028   4.437  10.061   8.636  0.2507  0.2151  0.1730
43515OCT     C187029   1.056  12.945   0.323  0.0047  0.0730 -0.0627
43515OCT     C287030   0.663  12.966   0.139 -0.1185  0.0288 -0.1753
43516OCT     C187031  21.233   6.432   1.516  0.2788 -0.2498  0.2517
43516OCT     C287032  21.220   6.021   1.616 -0.4629  0.2146 -0.1929
43517OCT     C187033   8.166  11.518  13.204 -0.0557  0.0607 -0.1433
43517OCT     C287034   7.921  11.856  13.442 -0.1869  0.2587  0.1383
43518OCT     C187035  13.379  22.470   1.550 -0.4006 -0.0379 -0.3877
43518OCT     C287036  13.528  22.668   1.980  0.2807  0.1619  0.2359
43519OCT     C187037  17.152  12.751  18.423 -0.1361 -0.1216  0.1097
43519OCT     C287038  16.892  13.088  18.109 -0.2048  0.0498 -0.0439
43520OCT     C187039   8.654  16.360  11.690 -0.2460 -0.4595  0.1534
43520OCT     C287040   8.786  16.193  11.309 -0.0201  0.0879 -0.1493
43521OCT     C187041   9.454  20.523  15.495  0.3085  0.2619 -0.0369
43521OCT     C287042   9.530  20.478  14.993  0.2734  0.0276  0.0476
43522OCT     C187043  23.120   1.777  17.481  0.1750  0.4306  0.0413
43522OCT     C287044  23.311   1.999  17.142 -0.0882  0.3037  0.1924
43523OCT     C187045  12.843  22.747   5.966 -0.2974 -0.4026 -0.1747
43523OCT     C287046  12.481  22.979   6.203 -0.0737  0.0684  0.2848
43524OCT     C187047   9.239  14.108  13.914  0.2218  0.1149 -0.1956
43524OCT     C287048   9.385  14.557  13.908 -0.2720 -0.2069 -0.1069
43525OCT     C187049  23.286  12.971  15.164 -0.2550  0.1489  0.4180
43525OCT     C287050  23.197  13.044  15.570 -0.1113 -0.3502  0.0350
43526OCT     C187051  16.978  17.602  15.488 -0.1311  0.0815  0.0677
43526OCT     C287052  16.857  17.596  15.001  0.0660  0.1458  0.1638
43527OCT     C187053  21.539  10.666   9.322  0.2302  0.0216  0.1392
43527OCT     C287054  21.618  10.400   8.994  0.1837  0.2439 -0.1576
43528OCT     C187055   7.217  17.976  23.178  0.1943 -0.4239  0.0845
43528OCT     C287056   7.525  17.832  22.873 -0.0696 -0.2654 -0.2487
43529OCT     C187057   0.672  12.667   5.171  0.0310  0.1091  0.0963
43529OCT     C287058   0.852  12.294   5.441 -0.1116 -0.2252 -0.0344
43530OCT     C187059  20.619  20.761   9.271 -0.2533  0.0718 -0.0888
43530OCT     C287060  20.914  20.678   8.971  0.1032 -0.2491  0.2348
43531OCT     C187061  23.716   5.336  16.919 -0.0124 -0.1755  0.2861
43531OCT     C287062  23.447   5.164  16.597  0.2414  0.1573 -0.1824
43532OCT     C187063   3.743  14.600  22.979  0.2403 -0.0525  0.2342
43532OCT     C287064   3.916  14.308  22.708  0.0246 -0.0431  0.0945
43533OCT     C187065  12.803   7.256   9.637 -0.2029  0.0045 -0.1558
43533OCT     C287066  12.837   7.247   9.144  0.1267  0.1149  0.1402
43534OCT     C187067   6.506   6.548   3.145  0.4580 -0.1226 -0.0678
43534OCT     C287068   6.746   6.944   3.174  0.1174 -0.4054 -0.1818
43535OCT     C187069  22.432  15.136   8.997  0.1537 -0.0816  0.0426
43535OCT     C287070  22.620  15.268   8.599  0.3648  0.0058 -0.1016
43536OCT     C187071   1.239  18.370  13.419 -0.2498  0.1755  0.2419
43536OCT     C287072   1.493  18.736  13.516  0.5145  0.0215  0.0762
43537OCT     C187073  13.738   5.445  16.645 -0.0442  0.0873 -0.2226
43537OCT     C287074  13.373   5.711  16.642  0.2672 -0.0529  0.1261
43538OCT     C187075  14.398  17.575   6.347 -0.1621 -0.1193  0.0186
43538OCT     C287076  14.205  17.443   6.753 -0.1136  0.0817 -0.1324
43539OCT     C187077   3.206   0.411   5.801  0.5212  0.3778 -0.1092
43539OCT     C287078   3.044   0.139   6.117 -0.2059 -0.4439  0.0320
43540OCT     C187079  19.982   6.307   8.572  0.3352 -0.0596  0.1658
43540OCT     C287080  20.317   6.543   8.434 -0.1198 -0.3047 -0.2387
43541OCT     C187081  11.856   5.306  17.212 -0.0463 -0.0963 -0.2184
43541OCT     C287082  11.467   5.053  17.194 -0.5072  0.2049  0.1779
43542OCT     C187083  20.620   8.783   4.671 -0.1578  0.1594 -0.0145
43542OCT     C287084  20.951   8.807   4.428  0.0434 -0.1383 -0.1657
43543OCT     C187085   9.824   9.245  22.936 -0.1054  0.2360 -0.2681
43543OCT     C287086   9.757   9.702  22.910 -0.3310 -0.0925  0.2810
43544OCT     C187087  18.661   8.480   8.477  0.1514  0.0584  0.1745
43544OCT     C287088  18.241   8.335   8.563 -0.0996 -0.0323  0.0396
43545OCT     C187089  14.490  12.937   6.147  0.1521  0.1368  0.0239
43545OCT     C287090  14.361  12.628   5.868 -0.2682 -0.0783 -0.2026
43546OCT     C187091   3.453  14.149  23.005  0.1226 -0.0355 -0.0520
43546OCT     C287092   3.096  14.184  22.773 -0.0769  0.5071 -0.1647
43547OCT     C187093  15.293   3.493   8.935  0.1418  0.4030 -0.5053
43547OCT     C287094  15.659   3.330   8.695  0.0152 -0.1036  0.0637
43548OCT     C187095  12.793  16.739  15.307  0.1974  0.4598  0.0331
43548OCT     C287096  13.276  16.771  15.340 -0.0432  0.4867 -0.2088
43549OCT     C187097   5.124  20.627  16.889 -0.0093  0.0043  0.0901
43549OCT     C287098   5.098  20.750  17.318  0.3587  0.1518  0.1414
43550OCT     C187099   3.724   6.813  23.042 -0.0382 -0.0838  0.1942
43550OCT     C287100   4.044   6.532  23.322 -0.3020  0.1815  0.0989
43551OCT     C187101  20.754  15.572   2.955 -0.1628  0.2495 -0.1027
43551OCT     C287102  20.813  16.038   2.794 -0.0449  0.0731 -0.2045
43552OCT     C187103  18.890  10.443  21.285 -0.0695  0.1006 -0.0713
43552OCT     C287104  18.473  10.550  21.118  0.2817 -0.2527  0.1305
43553OCT     C187105  19.310   6.839   6.806  0.0731 -0.2093 -0.1000
43553OCT     C287106  19.590   6.484   6.771 -0.0068 -0.1557 -0.1527
43554OCT     C187107   1.307  13.682  15.006  0.1204  0.2304  0.3007
43554OCT     C287108   1.698  13.575  14.823  0.0263 -0.2151 -0.0533
43555OCT     C187109   2.474   3.631   8.121  0.1113  0.0926  0.3383
43555OCT     C287110   2.774   3.218   8.112  0.1220 -0.2987 -0.2794
43556OCT     C187111  10.021  19.223  18.527  0.0492  0.1293  0.2162
43556OCT     C287112   9.956  19.515  18.881  0.0481  0.0105  0.0301
43557OCT     C187113  19.427  19.505  11.149 -0.0629  0.1696 -0.0356
43557OCT     C287114  19.413  19.261  10.802 -0.1294 -0.1503  0.4319
43558OCT     C187115  19.841  21.530  13.636  0.0269  0.0577  0.2707
43558OCT     C287116  19.617  21.697  14.085  0.6110  0.2229 -0.1196
43559OCT     C187117   8.596   4.472   9.353 -0.1642 -0.0366 -0.0318
43559OCT     C287118   8.354   4.198   9.147 -0.0378  0.3322  0.2376
43560OCT     C187119   6.516   1.415  19.515  0.2339 -0.2695  0.0436
43560OCT     C287120   6.322   1.488  19.099  0.1521 -0.0761  0.1685
43561OCT     C187121  12.882   5.747  22.749 -0.0152  0.3479 -0.1499
43561OCT     C287122  12.605   5.894  23.141 -0.0568 -0.2661  0.0149
43562OCT     C187123  15.670  17.289  13.758  0.1771 -0.0779  0.0548
43562OCT     C287124  15.527  17.752  13.734 -0.3503  0.0480  0.0280
43563OCT     C187125  15.922  23.429   7.870 -0.3703  0.3051  0.0331
43563OCT     C287126  16.131  23.411   7.470 -0.1648  0.0459  0.1819
43564OCT     C187127  19.007  23.549   4.965  0.1883 -0.0261  0.1821
43564OCT     C287128  19.154  23.110   4.905 -0.0675  0.0963 -0.1169
43565OCT     C187129   0.550  11.474  12.589 -0.1140 -0.1456 -0.0311
43565OCT     C287130   0.933  11.350  12.454  0.1908 -0.0706  0.4665
43566OCT     C187131   7.552  13.118  12.712  0.1159 -0.1003 -0.5090
43566OCT     C287132   7.919  13.421  12.884 -0.3708 -0.2285  0.0169
43567OCT     C187133   1.882  17.304   1.977  0.7092  0.1507  0.5347
43567OCT     C287134   1.811  16.926   1.725 -0.2656  0.1416  0.1514
43568OCT     C187135  12.320  10.914   9.482 -0.2782  0.3715 -0.3614
43568OCT     C287136  12.714  10.722   9.277 -0.1130  0.3116 -0.0400
43569OCT     C187137   6.317  10.394   2.626 -0.2122  0.0286 -0.4816
43569OCT     C287138   5.918  10.373   2.878 -0.0500  0.1049  0.2510
43570OCT     C187139  15.647   8.437  10.314  0.0107 -0.2193  0.0370
43570OCT     C287140  15.745   8.837  10.498 -0.4221  0.2825 -0.3532
43571OCT     C187141   6.216  12.853  18.315 -0.2790  0.0020 -0.0487
43571OCT     C287142   6.337  13.190  18.543 -0.0101 -0.1951  0.3813
43572OCT     C187143   9.508   6.531  22.618 -0.2544  0.1502  0.0964
43572OCT     C287144   9.092   6.703  22.457 -0.4328 -0.1819  0.0039
43573OCT     C187145   9.972   9.981   5.644  0.1353  0.2400 -0.1044
43573OCT     C287146   9.662  10.328   5.729  0.1073 -0.0513  0.3096
43574OCT     C187147  22.811   2.896  10.711 -0.0126  0.1238 -0.2717
43574OCT     C287148  22.365   2.841  10.786 -0.1002 -0.2618 -0.1145
43575OCT     C187149  19.118   6.632  14.196  0.3191 -0.2334 -0.0201
43575OCT     C287150  18.777   6.739  13.862  0.4540  0.1022  0.2261
43576OCT     C187151  19.202   5.191  16.008  0.4179 -0.0622 -0.4182
43576OCT     C287152  18.819   4.934  16.171 -0.1113  0.1146  0.0472
43577OCT     C187153  15.664   8.865   8.870 -0.2221 -0.2401 -0.0772
43577OCT     C287154  15.167   8.994   8.830 -0.1346 -0.2653 -0.1765
43578OCT     C187155  11.160  11.388  12.380 -0.1410  0.0869 -0.0730
43578OCT     C287156  11.190  10.935  12.576  0.2318  0.1563 -0.1835
43579OCT     C187157   8.990  12.312  17.636  0.1104 -0.0687 -0.3791
43579OCT     C287158   9.146  12.472  17.994  0.0034 -0.0500  0.1444
43580OCT     C187159  13.393   9.515  15.093 -0.0090  0.1172  0.3279
43580OCT     C287160  13.509   9.824  14.742 -0.0846  0.2609 -0.0778
43581OCT     C187161  18.925  10.519  15.356  0.3007  0.0999  0.2798
43581OCT     C287162  19.299  10.670  15.418 -0.3282  0.1754  0.0491
43582OCT     C187163  12.056   1.709  19.900  0.4291  0.2419 -0.0204
43582OCT     C287164  11.830   1.985  20.204  0.2156 -0.0954 -0.1265
43583OCT     C187165  20.313  14.006  17.611  0.0407 -0.1158 -0.4135
43583OCT     C287166  19.976  13.917  17.257  0.0456  0.1802 -0.0082
43584OCT     C187167  13.749  23.143  12.482  0.2175  0.0995  0.1058
43584OCT     C287168  13.773  23.566  12.667  0.2770 -0.1430 -0.0092
43585OCT     C187169   4.490  11.813   5.974 -0.0564 -0.0039 -0.0497
43585OCT     C287170   4.041  11.716   5.724  0.0911  0.1509 -0.3074
43586OCT     C187171   1.157   9.395  18.271 -0.3793 -0.0849  0.0585
43586OCT     C287172   0.955   9.013  18.058  0.0410  0.1157 -0.4122
43587OCT     C187173  20.847   6.740  10.399 -0.4674 -0.2354  0.2181
43587OCT     C287174  20.859   6.310  10.290  0.0187  0.1768 -0.2213
43588OCT     C187175   5.951   2.512   5.165 -0.0185 -0.3834  0.1012
43588OCT     C287176   5.513   2.517   5.409  0.1785 -0.0376 -0.0171
43589OCT     C187177  16.601  18.768   0.726  0.1279  0.1146 -0.3928
43589OCT     C287178  16.944  18.724   1.075 -0.3000 -0.0692 -0.2274
43590OCT     C187179  22.657   0.520  15.132 -0.1821  0.2061  0.1515
43590OCT     C287180  22.233   0.313  14.973 -0.2231 -0.2527 -0.0588
43591OCT     C187181   9.826  10.222   6.224 -0.2796  0.2242  0.0770
43591OCT     C287182   9.934  10.600   6.050 -0.0685 -0.1132  0.1858
43592OCT     C187183   3.928  15.492   4.794  0.0838  0.0270  0.0694
43592OCT     C287184   3.773  15.039   4.836  0.1172 -0.4013 -0.1356
43593OCT     C187185   3.323   9.326  16.574 -0.2471  0.4783 -0.1286
43593OCT     C287186   3.543   9.270  17.072 -0.1248  0.4389  0.2434
43594OCT     C187187   1.264   9.995   6.338  0.1213 -0.2780  0.1065
43594OCT     C287188   0.910  10.300   6.224 -0.0157 -0.2257 -0.2031
43595OCT     C187189  22.289  22.106  17.421 -0.0629  0.0282 -0.2725
43595OCT     C287190  21.961  21.800  17.278 -0.2182 -0.0324  0.1062
43596OCT     C187191   6.605  17.476  13.692  0.4567  0.0590 -0.1871
43596OCT     C287192   6.558  17.845  13.435 -0.4380  0.0317  0.0381
43597OCT     C187193  12.845  17.238   3.053 -0.2008  0.2383  0.2135
43597OCT     C287194  13.245  17.143   2.874  0.2796  0.0410  0.1586
43598OCT     C187195  15.412  23.068   0.571 -0.2572  0.1803  0.2486
43598OCT     C287196  15.213  22.668   0.463  0.0927  0.4238 -0.2252
43599OCT     C187197   0.792  21.466  16.974 -0.2713 -0.3590 -0.0510
43599OCT     C287198   1.098  21.850  16.977 -0.0781  0.3143 -0.2124
43600OCT     C187199  11.515  19.574   9.060 -0.0446  0.1019  0.3245
43600OCT     C287200  11.391  19.115   8.919 -0.0762 -0.2621 -0.1133
43601OCT     C187201  17.341  20.727   2.721  0.2264 -0.5702 -0.2273
43601OCT     C287202  17.770  20.705   2.473  0.4326  0.2067  0.1978
43602OCT     C187203   5.425  17.844  15.871 -0.2656 -0.0803  0.1641
43602OCT     C287204   5.632  17.445  16.024 -0.0333  0.1262 -0.1394
43603OCT     C187205  11.318  11.144   6.067  0.3304 -0.1265  0.2173
43603OCT     C287206  11.344  11.599   6.236  0.1387  0.2376 -0.0814
43604OCT     C187207  11.598   7.329  21.827  0.2340  0.0121  0.1017
43604OCT     C287208  11.427   7.586  22.223 -0.2368 -0.2057  0.1019
43605OCT     C187209   4.845   2.241   2.186  0.0392  0.0919 -0.1686
43605OCT     C287210   4.849   2.201   1.665 -0.1189 -0.0627  0.1772
43606OCT     C187211  21.294  12.606  17.084  0.3313  0.0037 -0.0328
43606OCT     C287212  21.627  12.319  16.931  0.5201 -0.0942 -0.2791
43607OCT     C187213   3.878  12.891  12.595 -0.4150  0.1722 -0.3703
43607OCT     C287214   3.789  12.465  12.770 -0.0404 -0.0452  0.0483
43608OCT     C187215  21.120   8.378   9.407 -0.0900 -0.0585  0.0353
43608OCT     C287216  21.571   8.350   9.535 -0.0950 -0.1193 -0.0916
43609OCT     C187217  20.326  22.739  21.431  0.1025 -0.0730  0.0054
43609OCT     C287218  20.292  22.419  21.786  0.0966  0.0283 -0.0921
43610OCT     C187219  22.185  16.013  14.701  0.1144  0.0073 -0.4308
43610OCT     C287220  22.041  16.202  14.274  0.0789 -0.2321  0.2357
43611OCT     C187221   4.873  13.606  13.868 -0.4813  0.4808  0.2098
43611OCT     C287222   5.121  13.313  14.181  0.0568 -0.1287  0.1281
43612OCT     C187223   3.876   0.466   4.320  0.0015  0.1108  0.5085
43612OCT     C287224   4.062   0.796   4.549 -0.2855 -0.2352  0.0686
43613OCT     C187225   7.628  22.118   5.624 -0.0103 -0.2867  0.1404
43613OCT     C287226   7.947  21.986   5.303 -0.2104  0.3339 -0.1694
43614OCT     C187227   6.145   0.875   1.173 -0.0930 -0.1592 -0.0132
43614OCT     C287228   5.983   1.269   1.299  0.1569 -0.2235 -0.1503
43615OCT     C187229   9.344  23.047   8.086  0.0782 -0.0694 -0.2569
43615OCT     C287230   9.160  23.505   8.028  0.0142  0.0471 -0.1043
43616OCT     C187231   4.159  16.164  15.698 -0.1744 -0.1551 -0.0894
43616OCT     C287232   4.053  16.242  15.218  0.1365  0.2797 -0.3127
43617OCT     C187233  18.037   6.082   1.852  0.1055 -0.0074  0.2773
43617OCT     C287234  17.627   6.186   1.585 -0.2537 -0.3203 -0.3178
43618OCT     C187235   0.055   1.364   0.391 -0.2722 -0.0459 -0.2665
43618OCT     C287236  23.703   0.969   0.664  0.2936 -0.0642  0.0895
43619OCT     C187237  21.007   3.679  14.582  0.1987  0.1194 -0.1807
43619OCT     C287238  21.279   3.353  14.777  0.3372  0.3899 -0.4185
43620OCT     C187239  16.372  23.081  14.731  0.2717  0.0967  0.0066
43620OCT     C287240  16.478  22.888  15.165  0.2561  0.1302 -0.0548
43621OCT     C187241  17.201  21.373  16.112  0.0873 -0.2522 -0.1092
43621OCT     C287242  17.211  21.660  16.478  0.0328 -0.5530 -0.0473
43622OCT     C187243  18.345   2.294   9.347 -0.0486  0.3455 -0.2414
43622OCT     C287244  18.627   2.668   9.226 -0.0270 -0.2713  0.4957
43623OCT     C187245   0.920   2.174  23.147  0.3220  0.1920  0.0577
43623OCT     C287246   0.511   2.271  23.341 -0.0046 -0.3179 -0.3607
43624OCT     C187247  23.045  18.453  21.765  0.0534  0.0131  0.0747
43624OCT     C287248  23.001  18.642  22.171 -0.4255  0.1722 -0.0263
43625OCT     C187249   7.225  20.480   4.226 -0.1670  0.1719 -0.1982
43625OCT     C287250   7.486  20.459   4.578  0.0209 -0.0847 -0.4635
43626OCT     C187251  16.833  23.184  16.450 -0.2059  0.2030  0.1193
43626OCT     C287252  17.327  23.114  16.349  0.2121 -0.2284  0.1005
43627OCT     C187253  16.121  22.321  19.076 -0.4907  0.3179  0.1595
43627OCT     C287254  15.931  21.967  18.860 -0.0005  0.0188 -0.2436
43628OCT     C187255   6.459   0.676  22.660  0.1253  0.0554 -0.1437
43628OCT     C287256   6.857   0.884  22.513 -0.3231  0.0437 -0.2448
43629OCT     C187257  13.305  14.140  15.772 -0.4553 -0.4865  0.0629
43629OCT     C287258  13.160  13.827  16.016 -0.0306 -0.0830 -0.1041
43630OCT     C187259   8.594  23.558  16.085  0.0600 -0.1109 -0.0849
43630OCT     C287260   8.712   0.160  16.454  0.0309 -0.4958  0.2910
43631OCT     C187261  19.670  15.484  14.688  0.2248  0.1554  0.0174
43631OCT     C287262  19.370  15.175  14.529  0.0030  0.0709  0.0016
43632OCT     C187263   8.463  18.447   3.741 -0.2627 -0.2686 -0.0528
43632OCT     C287264   8.177  18.845   3.778 -0.2458  0.4531  0.2147
43633OCT     C187265   3.552   3.611   8.584  0.2265 -0.0614 -0.3547
43633OCT     C287266   3.177   3.396   8.331  0.2705  0.2775  0.2953
43634OCT     C187267  15.937   9.694   1.465  0.2504 -0.2717 -0.2402
43634OCT     C287268  15.721   9.917   1.854 -0.1284  0.1166  0.2240
43635OCT     C187269  12.053   7.024   6.478  0.0069  0.1700 -0.0980
43635OCT     C287270  11.698   7.023   6.808 -0.0038 -0.2684  0.3804
43636OCT     C187271  21.651  14.370   2.489  0.0466 -0.3418 -0.1009
43636OCT     C287272  21.871  14.038   2.694 -0.0696  0.2403 -0.0150
43637OCT     C187273  23.560  12.030   0.939  0.1221 -0.0164 -0.1532
43637OCT     C287274   0.075  11.752   0.596  0.2817 -0.2192 -0.5000
43638OCT     C187275   7.347   2.362  18.907 -0.0799 -0.2979 -0.0288
43638OCT     C287276   7.093   1.995  18.822  0.0762  0.0356 -0.0722
43639OCT     C187277  12.680  16.656  21.233  0.1154  0.1833 -0.1886
43639OCT     C287278  12.743  17.008  21.512  0.1452  0.1821  0.0326
43640OCT     C187279   8.218   5.931  17.355  0.2619 -0.0444 -0.0656
43640OCT     C287280   8.553   5.622  17.459 -0.1193  0.0656 -0.2720
43641OCT     C187281   9.300   6.402  13.508 -0.0169 -0.1151  0.3337
43641OCT     C287282   9.696   6.137  13.513  0.1336 -0.1849 -0.0436
43642OCT     C187283   3.191   2.800   0.979 -0.2298 -0.3471 -0.1447
43642OCT     C287284   3.196   2.437   1.209 -0.0500 -0.5017  0.1742
43643OCT     C187285   6.037   6.156   4.287  0.0728  0.1170  0.1133
43643OCT     C287286   5.676   6.429   4.147  0.1167  0.1399 -0.1044
43644OCT     C187287  19.102  10.669   1.924  0.1589 -0.1918 -0.1755
43644OCT     C287288  19.388  10.363   2.142  0.2769 -0.1617 -0.0244
43645OCT     C187289  20.982  16.730  21.003  0.0972 -0.4729 -0.0926
43645OCT     C287290  20.827  17.095  20.742  0.1541  0.0910 -0.0544
43646OCT     C187291  20.106  10.705   8.856  0.3009  0.2446 -0.3707
43646OCT     C287292  19.861  10.413   9.164  0.0005 -0.2746 -0.1026
43647OCT     C187293  20.179  13.280   6.280  0.2193 -0.2975  0.0296
43647OCT     C287294  19.790  12.992   6.296  0.0390  0.1084  0.1755
43648OCT     C187295  12.136  11.790  22.716 -0.1426 -0.0390 -0.5261
43648OCT     C287296  11.807  11.399  22.589 -0.0307 -0.1691 -0.1796
43649OCT     C187297  21.789   5.638  21.494  0.0093 -0.2143  0.1168
43649OCT     C287298  21.403   5.783  21.309  0.1425  0.1735  0.0734
43650OCT     C187299  22.498   5.963  19.241  0.2351  0.1728  0.0692
43650OCT     C287300  22.488   5.849  19.723 -0.0031  0.0539  0.0309
43651OCT     C187301   8.477  23.492  11.068  0.2663  0.1790  0.3513
43651OCT     C287302   8.843   0.037  11.113  0.0371  0.0080  0.0490
43652OCT     C187303  14.403  21.150  13.556  0.1251  0.2399 -0.0888
43652OCT     C287304  14.006  21.066  13.857  0.1354  0.2337 -0.1507
43653OCT     C187305  18.035   9.266   8.609 -0.1048 -0.1968  0.2308
43653OCT     C287306  18.336   9.357   8.255  0.1829 -0.1818 -0.2807
43654OCT     C187307  22.003   3.043  10.025  0.1093  0.2215 -0.2782
43654OCT     C287308  21.990   3.047   9.555 -0.1880 -0.1204  0.2927
43655OCT     C187309  10.600  19.511  22.951  0.1173 -0.3158  0.3524
43655OCT     C287310  10.752  19.364  23.381  0.1157  0.4132 -0.0219
43656OCT     C187311   1.696   9.634   9.777 -0.1241  0.4164  0.1666
43656OCT     C287312   1.648  10.076   9.851 -0.1285 -0.3179  0.0385
43657OCT     C187313  11.283  22.248  23.046  0.0827  0.1572  0.1571
43657OCT     C287314  11.644  22.092  22.764 -0.2033 -0.0391 -0.0070
43658OCT     C187315  14.875  23.619   1.058 -0.1622 -0.1936  0.1266
43658OCT     C287316  14.616   0.281   0.921 -0.0884  0.0238  0.1394
43659OCT     C187317   3.301  20.190   8.943 -0.1893  0.1907 -0.0759
43659OCT     C287318   2.866  20.295   9.083 -0.1594 -0.0158 -0.0246
43660OCT     C187319  21.526   3.511  15.425  0.2595  0.0935  0.1685
43660OCT     C287320  21.130   3.243  15.485 -0.2253  0.0688 -0.0417
43661OCT     C187321   3.439   0.683   5.444  0.2455  0.0036 -0.2919
43661OCT     C287322   3.623   0.324   5.262  0.0393  0.2644 -0.1989
43662OCT     C187323  10.520   2.322   3.506 -0.0367 -0.1908 -0.0748
43662OCT     C287324  10.735   2.279   3.922 -0.0795 -0.3572  0.0584
43663OCT     C187325   3.855  22.944   0.467 -0.3035  0.0501  0.0131
43663OCT     C287326   3.417  22.859   0.693 -0.1475  0.0783  0.0166
43664OCT     C187327  16.869   6.947   4.985 -0.2421 -0.1045 -0.4645
43664OCT     C287328  17.066   6.560   5.151 -0.0609  0.1239  0.3820
43665OCT     C187329  14.770   0.054  16.814  0.0228  0.1129 -0.2180
43665OCT     C287330  14.843  23.350  16.888 -0.2528  0.0121 -0.0117
43666OCT     C187331   1.002   6.823  14.807  0.1201 -0.3219 -0.1706
43666OCT     C287332   1.291   6.530  14.599 -0.2101  0.2562  0.1220
43667OCT     C187333  21.966  22.451  23.113  0.2043 -0.0327 -0.1188
43667OCT     C287334  21.572  22.641  22.953  0.0575 -0.2357 -0.0587
43668OCT     C187335   6.663  22.275  11.566  0.1383  0.3857 -0.5667
43668OCT     C287336   6.460  22.135  11.962  0.0666  0.0938 -0.0299
43669OCT     C187337  18.915   3.250   4.906 -0.2803 -0.1487 -0.0291
43669OCT     C287338  19.183   3.516   5.176 -0.4105 -0.1847  0.1231
43670OCT     C187339   9.693  13.948  10.454 -0.0740  0.0914  0.0372
43670OCT     C287340   9.943  13.596  10.286  0.0586 -0.1052 -0.2206
43671OCT     C187341  11.040   5.526  16.152 -0.3382 -0.0140  0.0956
43671OCT     C287342  10.602   5.726  16.069  0.4659  0.0122  0.2874
43672OCT     C187343  16.035   8.233  21.941 -0.0655  0.0156 -0.0501
43672OCT     C287344  15.641   8.490  21.780 -0.0330  0.1835  0.0525
43673OCT     C187345   6.694  12.840  22.128  0.0492 -0.0862  0.0306
43673OCT     C287346   6.652  13.161  21.737  0.3148 -0.4126 -0.4949
43674OCT     C187347  13.411  14.346   2.945  0.0325  0.3483  0.1150
43674OCT     C287348  13.220  14.673   2.685  0.0969 -0.0106 -0.2966
43675OCT     C187349  14.122  22.004   9.361  0.1922  0.0430 -0.2483
43675OCT     C287350  13.764  22.319   9.435  0.2031 -0.0216 -0.0176
43676OCT     C187351   5.462  11.639   5.403  0.2115  0.5026 -0.2457
43676OCT     C287352   5.428  11.461   5.838 -0.2719 -0.1760 -0.0082
43677OCT     C187353  10.573  15.422  18.942  0.1788  0.0747 -0.1514
43677OCT     C287354  10.467  15.876  18.899  0.0346  0.1288 -0.2122
43678OCT     C187355   6.117   8.965  22.247  0.2268 -0.2000 -0.0264
43678OCT     C287356   6.055   8.655  21.964 -0.3399 -0.1339 -0.1686
43679OCT     C187357  16.679  22.527   5.810 -0.0450  0.1639  0.4883
43679OCT     C287358  16.305  22.346   6.072 -0.1310 -0.0459 -0.3101
43680OCT     C187359   6.936  14.634   4.224 -0.1374  0.4586 -0.2533
43680OCT     C287360   6.618  14.869   3.970 -0.1515  0.2573 -0.1463
43681OCT     C187361   9.556  20.843   7.009  0.1122  0.1196 -0.0378
43681OCT     C287362   9.611  21.332   6.948  0.1044  0.1053  0.0114
43682OCT     C187363  21.059   9.635   8.911  0.2754  0.0259  0.1298
43682OCT     C287364  21.208   9.185   9.058  0.2500 -0.1625 -0.2185
43683OCT     C187365  21.538  23.552  12.020 -0.2105 -0.0948 -0.0653
43683OCT     C287366  21.929  23.507  11.732  0.0925  0.6211 -0.3936
43684OCT     C187367  19.853   1.572   3.235  0.0597 -0.0346  0.3536
43684OCT     C287368  19.464   1.465   3.529  0.0308 -0.0196 -0.3956
43685OCT     C187369   2.217   4.989  14.286  0.0675 -0.2064  0.1155
43685OCT     C287370   2.228   5.291  14.658  0.0639  0.2229  0.0905
43686OCT     C187371   7.615   4.452  19.324 -0.3656 -0.3781  0.1937
43686OCT     C287372   7.540   4.744  18.961 -0.0008  0.0764  0.1836
43687OCT     C187373  20.554   9.220  14.396 -0.1750  0.0550  0.0380
43687OCT     C287374  20.846   9.529  14.661 -0.1520 -0.1766  0.2614
43688OCT     C187375  12.004   2.408  16.063 -0.2538 -0.0726  0.1321
43688OCT     C287376  11.813   2.114  16.389 -0.0280 -0.3347  0.1147
43689OCT     C187377  16.813   2.844  12.883 -0.0518 -0.1427 -0.2699
43689OCT     C287378  16.374   2.731  12.923  0.2073 -0.0588 -0.1590
43690OCT     C187379  16.176   1.423   7.459 -0.3972 -0.3263 -0.0559
43690OCT     C287380  16.462   1.320   7.145 -0.1164 -0.3009  0.2016
43691OCT     C187381   8.647  19.011  20.314  0.1002 -0.0292  0.0709
43691OCT     C287382   8.540  19.423  20.393  0.2950  0.0181 -0.1460
43692OCT     C187383  10.417  12.845  23.024 -0.2850 -0.0342 -0.1127
43692OCT     C287384  10.265  12.766  23.515  0.3254 -0.1622 -0.3376
43693OCT     C187385  14.219   4.011  15.834  0.3244 -0.1108  0.0125
43693OCT     C287386  13.902   4.341  15.713 -0.0046  0.0137 -0.0610
43694OCT     C187387  20.972  12.665  20.999 -0.5330 -0.1380  0.1900
43694OCT     C287388  21.146  13.007  20.673 -0.2648 -0.0780  0.0556
43695OCT     C187389   9.262  18.434  16.048  0.1704 -0.0509  0.1162
43695OCT     C287390   9.495  18.632  15.698 -0.0204  0.0434  0.0840
43696OCT     C187391   4.822   4.740  20.685  0.3347  0.1604 -0.1317
43696OCT     C287392   5.158   4.782  20.980 -0.0078 -0.1011  0.2105
43697OCT     C187393  12.691   2.607   2.859 -0.4104 -0.0552 -0.0527
43697OCT     C287394  12.357   2.607   2.579 -0.0837  0.1416 -0.2480
43698OCT     C187395   4.952  21.162  14.664  0.0303  0.0103  0.0815
43698OCT     C287396   4.639  21.105  14.333  0.0660 -0.2407  0.3640
43699OCT     C187397  21.021  21.771  15.975 -0.5001  0.0847  0.4405
43699OCT     C287398  20.908  21.485  16.296 -0.3114 -0.0094  0.1069
43700OCT     C187399  10.759  10.411   0.864  0.2224 -0.4399 -0.1421
43700OCT     C287400  10.621  10.161   1.244 -0.0606  0.1154 -0.0459
43701OCT     C187401   1.806   8.267  21.947  0.1533 -0.2147 -0.2221
43701OCT     C287402   1.311   8.245  22.053  0.0558  0.2737  0.2291
43702OCT     C187403   4.918  16.358  22.161  0.4004  0.1844  0.1528
43702OCT     C287404   4.444  16.293  22.402  0.1818  0.0820  0.4888
43703OCT     C187405  13.432  13.282  16.915 -0.0794  0.0669  0.4595
43703OCT     C287406  13.717  13.633  16.761  0.0112  0.2994  0.3214
43704OCT     C187407  14.192   2.823  18.156  0.0324 -0.3570 -0.0133
43704OCT     C287408  13.877   3.015  17.883  0.1815  0.3727  0.3035
43705OCT     C187409   5.353  12.080   7.518 -0.0873 -0.2315  0.0390
43705OCT     C287410   5.232  12.537   7.703 -0.0865 -0.0733 -0.0098
43706OCT     C187411   7.909  14.945   0.066 -0.0634  0.3159  0.3547
43706OCT     C287412   8.086  14.881  23.381 -0.1613  0.1018  0.4490
43707OCT     C187413  21.265  10.096  11.835 -0.0051 -0.3808  0.1073
43707OCT     C287414  21.325   9.762  12.144  0.4804  0.0811 -0.1587
43708OCT     C187415  11.796  21.377  21.418 -0.0653  0.0332 -0.0008
43708OCT     C287416  11.803  21.415  20.999  0.5979 -0.1362  0.0480
43709OCT     C187417  18.687  16.571  10.544 -0.1227  0.1649  0.3094
43709OCT     C287418  18.809  16.901  10.233  0.0055 -0.1752 -0.0201
43710OCT     C187419   7.893  19.186   6.429  0.2282 -0.2362  0.1438
43710OCT     C287420   7.740  19.412   6.812  0.3908 -0.0380  0.4774
43711OCT     C187421  11.299  21.285   1.708 -0.0274  0.1096  0.1248
43711OCT     C287422  11.432  21.151   1.270  0.1210 -0.3021 -0.1239
43712OCT     C187423   9.211  13.047  15.380  0.1842  0.3591  0.1644
43712OCT     C287424   8.914  13.308  15.659  0.1805  0.1850 -0.3042
43713OCT     C187425   3.103  16.788  11.421 -0.3069 -0.2172  0.3168
43713OCT     C287426   3.197  16.621  11.841  0.1977 -0.0174 -0.1202
43714OCT     C187427   6.064   2.726   1.713  0.0342 -0.0884  0.1769
43714OCT     C287428   6.181   2.375   1.933  0.0617 -0.1919  0.2395
43715OCT     C187429   5.465   4.513  13.552  0.0637  0.3143  0.2091
43715OCT     C287430   5.418   4.480  14.059 -0.1302 -0.2227  0.0228
43716OCT     C187431   9.928   6.086  21.460  0.2196 -0.2355 -0.1087
43716OCT     C287432   9.541   6.241  21.229  0.3003  0.1186 -0.2775
43717OCT     C187433  20.132  22.769  13.692 -0.0306 -0.2721  0.0267
43717OCT     C287434  19.988  22.518  14.065  0.0514 -0.2795 -0.0207
43718OCT     C187435  10.201  16.498  15.701 -0.2234 -0.1445 -0.2822
43718OCT     C287436  10.534  16.223  15.848  0.0199 -0.3007 -0.1277
43719OCT     C187437   4.619   5.377  19.918  0.0053  0.1214 -0.1611
43719OCT     C287438   4.662   4.954  19.721 -0.2338 -0.3904 -0.2001
43720OCT     C187439   9.807   4.465  17.029  0.1357  0.0348 -0.0802
43720OCT     C287440  10.274   4.436  17.090  0.0676 -0.1612 -0.0990
43721OCT     C187441  12.273   5.561  13.497 -0.0280  0.1658  0.1797
43721OCT     C287442  12.381   5.318  13.881  0.0569 -0.1829 -0.2451
43722OCT     C187443  13.965   4.966  18.411  0.2696  0.1940  0.1658
43722OCT     C287444  14.358   4.737  18.519  0.1413  0.1922 -0.1419
43723OCT     C187445  14.727   4.784   5.928 -0.0341 -0.2630  0.2238
43723OCT     C287446  14.379   5.071   5.756  0.1929 -0.2636  0.5025
43724OCT     C187447  10.822  18.964   4.333  0.1844  0.3283  0.0209
43724OCT     C287448  10.437  18.900   4.604  0.3058  0.0229  0.0196
43725OCT     C187449   6.373  15.708  23.581  0.1248 -0.1332  0.1897
43725OCT     C287450   6.611  15.462   0.158  0.0790  0.0366 -0.0175
43726OCT     C187451  16.303  13.176  18.457  0.0476 -0.1713  0.0899
43726OCT     C287452  16.210  12.774  18.274  0.1772 -0.1788 -0.0959
43727OCT     C187453   1.258  10.877   8.990  0.0326 -0.2846  0.0639
43727OCT     C287454   1.367  10.450   9.130 -0.2034 -0.1757  0.1726
43728OCT     C187455   9.391  22.232  14.220  0.5263  0.2160 -0.1741
43728OCT     C287456   9.023  22.537  14.146 -0.0422  0.1943 -0.0490
43729OCT     C187457   8.264   7.970  23.199  0.0143  0.3453  0.0957
43729OCT     C287458   8.378   8.236  22.831  0.3020  0.1115 -0.0326
43730OCT     C187459  12.920  21.631  10.838  0.0183 -0.1613 -0.0053
43730OCT     C287460  12.948  22.056  10.747 -0.1142  0.1170 -0.1415
43731OCT     C187461   2.607   7.139  22.804  0.2846 -0.0357  0.2558
43731OCT     C287462   2.747   7.464  22.465 -0.0330  0.1597 -0.2982
43732OCT     C187463  23.701   7.509  16.463 -0.0242 -0.0080 -0.1605
43732OCT     C287464   0.297   7.208  16.375  0.2055 -0.1834 -0.0389
43733OCT     C187465  10.805  12.456   2.016 -0.2090  0.0179 -0.0550
43733OCT     C287466  10.405  12.621   1.966 -0.0479  0.1432  0.1378
43734OCT     C187467  15.920  21.254   8.506 -0.0159  0.2248  0.1269
43734OCT     C287468  15.899  20.914   8.174  0.0983  0.0352 -0.0035
43735OCT     C187469   8.395  13.589  10.303 -0.3568  0.0273  0.1361
43735OCT     C287470   8.570  13.151  10.231  0.1254 -0.1092  0.0620
43736OCT     C187471   1.696  22.247   7.495 -0.0704 -0.0540 -0.3358
43736OCT     C287472   2.061  21.933   7.553  0.2105 -0.2752  0.2328
43737OCT     C187473   7.639  15.697  11.470 -0.1624  0.1391 -0.1810
43737OCT     C287474   7.294  15.879  11.244 -0.1302 -0.1641  0.0650
43738OCT     C187475  18.458  21.881   4.162  0.0487 -0.0841 -0.0463
43738OCT     C287476  18.637  21.816   3.683  0.4028  0.3695 -0.2106
43739OCT     C187477  22.624   2.495  15.053 -0.2427  0.0850 -0.0936
43739OCT     C287478  22.546   2.264  14.686  0.2630 -0.0625  0.0112
43740OCT     C187479  22.950  11.570   8.125 -0.1293 -0.2452  0.3481
43740OCT     C287480  22.941  11.839   7.736 -0.1774  0.0135 -0.2350
43741OCT     C187481   1.236  12.843   7.804 -0.0791 -0.3548  0.0352
43741OCT     C287482   1.302  13.294   7.960 -0.1772  0.0990  0.2671
43742OCT     C187483  15.533   3.415  14.142  0.3261  0.0023  0.1381
43742OCT     C287484  15.891   3.536  13.847 -0.2024  0.4721  0.0707
43743OCT     C187485   4.489  16.271  12.277 -0.2573  0.1775  0.1816
43743OCT     C287486   4.744  16.269  11.883  0.4017 -0.2221  0.0474
43744OCT     C187487   0.926  20.442  21.633  0.0946 -0.1287  0.1309
43744OCT     C287488   1.300  20.401  21.880 -0.2470  0.0005 -0.0523
43745OCT     C187489  12.300  13.889  10.124 -0.3641 -0.2582 -0.3855
43745OCT     C287490  12.239  13.384  10.085  0.0015 -0.3390  0.3820
43746OCT     C187491   1.090  14.036  11.282 -0.1746  0.1215 -0.1183
43746OCT     C287492   0.840  13.673  11.329  0.2579  0.0488 -0.0583
43747OCT     C187493  14.055  21.823  22.596  0.2127  0.4573  0.1227
43747OCT     C287494  14.521  21.976  22.597 -0.0961  0.0671  0.0600
43748OCT     C187495  20.199   6.882  21.812 -0.1193  0.1628 -0.2988
43748OCT     C287496  20.635   6.657  21.721 -0.3018  0.1485 -0.0727
43749OCT     C187497   8.482   2.551  11.080  0.1163 -0.3295 -0.1235
43749OCT     C287498   8.856   2.255  11.191  0.0955  0.0265 -0.0430
43750OCT     C187499  14.885  12.407   6.118  0.0844 -0.3077 -0.0680
43750OCT     C287500  14.919  12.860   6.348 -0.1778 -0.0482 -0.0861
43751OCT     C187501   1.565  12.493   9.435  0.2725 -0.0043 -0.1758
43751OCT     C287502   1.996  12.556   9.254  0.1441  0.1452 -0.0023
43752OCT     C187503   1.724   5.935   5.514 -0.0483 -0.0109  0.2133
43752OCT     C287504   1.866   5.525   5.417  0.4446 -0.1428  0.0341
43753OCT     C187505  20.316   5.994  17.597 -0.0314 -0.0026  0.1314
43753OCT     C287506  20.327   6.472  17.724 -0.2298  0.3355  0.1210
43754OCT     C187507  15.995  13.214  21.413 -0.2639 -0.3324  0.3022
43754OCT     C287508  15.915  12.945  20.957 -0.2744  0.2133  0.4915
43755OCT     C187509  21.048  14.825   6.529 -0.1863  0.2369 -0.0721
43755OCT     C287510  21.293  14.470   6.338  0.3196 -0.2458 -0.1514
43756OCT     C187511   9.781  18.853  19.908 -0.1063  0.2408  0.0654
43756OCT     C287512  10.114  18.542  20.004 -0.4655 -0.1308 -0.1514
43757OCT     C187513   2.233  17.309   8.282  0.0064 -0.0392 -0.1687
43757OCT     C287514   2.228  17.707   8.577 -0.1475  0.0418  0.2471
43758OCT     C187515  10.780  19.498   3.217 -0.0694 -0.3009 -0.4068
43758OCT     C287516  10.916  19.629   2.807 -0.3446 -0.0399  0.1611
43759OCT     C187517  22.900  16.059  22.098 -0.4843  0.1373 -0.0643
43759OCT     C287518  22.536  16.267  21.932  0.1856 -0.0407  0.1710
43760OCT     C187519  17.145   9.028   4.856 -0.1110 -0.1488  0.0390
43760OCT     C287520  17.118   9.496   4.878  0.5651  0.0915 -0.3178
43761OCT     C187521  10.402   6.716   0.059  0.4682  0.0124 -0.3901
43761OCT     C287522  10.843   6.653  23.699 -0.1622  0.0056  0.0277
43762OCT     C187523   2.643   2.281  15.613  0.2141 -0.0112  0.1756
43762OCT     C287524   2.686   2.637  15.883  0.5414 -0.0122  0.1597
43763OCT     C187525  22.467   6.722  16.178 -0.0444  0.0568  0.0950
43763OCT     C287526  22.983   6.650  16.199 -0.0357  0.0373  0.4909
43764OCT     C187527  13.656  19.418   7.443  0.3624 -0.1495  0.4951
43764OCT     C287528  14.082  19.433   7.232  0.0345  0.1418 -0.0662
43765OCT     C187529  19.493   2.460  19.748 -0.0412 -0.3283 -0.2441
43765OCT     C287530  19.740   2.846  19.798  0.0999  0.0459 -0.1585
43766OCT     C187531  16.540  15.242   7.482  0.3179  0.1028 -0.1689
43766OCT     C287532  16.322  15.539   7.810 -0.1110 -0.1076  0.0759
43767OCT     C187533  21.456   7.952  10.715 -0.1352 -0.0135 -0.2317
43767OCT     C287534  21.495   8.249  10.334 -0.1829 -0.1291 -0.0316
43768OCT     C187535  15.004  18.871  21.088  0.0403  0.0879  0.1270
43768OCT     C287536  15.370  18.666  20.835 -0.0486  0.2223  0.1791
43769OCT     C187537  23.494   4.488  11.240  0.1623 -0.1816  0.3422
43769OCT     C287538   0.161   4.720  11.349  0.0189  0.0021  0.0596
43770OCT     C187539  12.712  18.616   9.329 -0.0139  0.1128  0.0542
43770OCT     C287540  12.521  19.014   9.568 -0.2339 -0.1869  0.2850
43771OCT     C187541  10.401  12.390  23.241  0.3840  0.0660  0.1759
43771OCT     C287542  10.742  12.157  23.369 -0.2837 -0.1756  0.2921
43772OCT     C187543  11.655  14.154   9.912 -0.2836 -0.1821 -0.0385
43772OCT     C287544  11.864  14.135  10.293  0.0615 -0.0532 -0.0835
43773OCT     C187545   9.466  13.102   2.806  0.1703 -0.1436 -0.0860
43773OCT     C287546   9.606  13.562   2.739 -0.3046  0.3240  0.2378
43774OCT     C187547  19.691  18.842   5.867  0.3730 -0.1188  0.1860
43774OCT     C287548  19.840  18.720   5.448  0.0590  0.0598  0.1790
43775OCT     C187549   1.751  18.976   7.788  0.0259  0.0853 -0.0430
43775OCT     C287550   2.022  18.966   7.444  0.0613 -0.2409 -0.1778
43776OCT     C187551  18.300  19.374  14.882 -0.1349  0.2326 -0.1706
43776OCT     C287552  18.554  19.517  15.287  0.4785 -0.0870 -0.1423
43777OCT     C187553   8.742   7.663   0.285 -0.2217  0.4578  0.1006
43777OCT     C287554   9.216   7.623   0.458 -0.0645 -0.0276 -0.3325
43778OCT     C187555  23.398  20.143   6.503  0.0352 -0.0794  0.0488
43778OCT     C287556  23.191  20.316   6.878 -0.0408 -0.1570  0.0863
43779OCT     C187557   2.383   7.736  13.540  0.1555 -0.2096  0.0244
43779OCT     C287558   2.429   7.318  13.723  0.0339 -0.0828  0.3554
43780OCT     C187559  19.465   0.556  13.946 -0.2857  0.0996  0.1075
43780OCT     C287560  19.601   0.067  14.018  0.0065  0.2513 -0.0127
43781OCT     C187561  21.623   2.685  13.362 -0.0835 -0.1414 -0.3168
43781OCT     C287562  21.525   2.538  13.790 -0.0220  0.0230 -0.1546
43782OCT     C187563   6.407  13.582   8.475  0.6344 -0.1268 -0.1757
43782OCT     C287564   6.629  13.858   8.159 -0.1511 -0.1131  0.1070
43783OCT     C187565  19.155  21.642  10.533 -0.2535  0.2133  0.2708
43783OCT     C287566  18.920  21.240  10.497  0.0736 -0.2810 -0.2297
43784OCT     C187567  14.673  21.033  11.136  0.1591  0.0176  0.4882
43784OCT     C287568  15.107  21.298  11.060  0.2012  0.3110 -0.1866
43785OCT     C187569  13.834  10.790   8.796  0.1835 -0.4449  0.0754
43785OCT     C287570  14.037  10.744   8.318 -0.2170 -0.4691 -0.3607
43786OCT     C187571  16.909  10.086   6.481  0.4876  0.0932 -0.2597
43786OCT     C287572  17.125  10.171   6.862 -0.1735 -0.0052  0.0531
43787OCT     C187573  21.538   9.045  13.427 -0.2814  0.0440  0.2543
43787OCT     C287574  21.176   8.756  13.439  0.2110  0.3814  0.0904
43788OCT     C187575   0.217   3.679  19.826  0.1811  0.2055  0.3647
43788OCT     C287576   0.224   3.234  19.560  0.1287 -0.2172  0.0328
43789OCT     C187577  21.866  16.047  10.764 -0.4548  0.2488 -0.0165
43789OCT     C287578  21.520  16.089  11.080  0.0552  0.4645  0.0266
43790OCT     C187579  17.353  23.568   5.215 -0.2542 -0.1959  0.2173
43790OCT     C287580  17.793  23.449   5.130  0.0995 -0.0619 -0.0415
43791OCT     C187581   9.243   6.546   4.928  0.0208  0.1210  0.0878
43791OCT     C287582   9.665   6.432   5.188 -0.0790  0.1119  0.1014
43792OCT     C187583  15.250   9.900  10.063  0.1117  0.2222 -0.1194
43792OCT     C287584  15.105  10.279  10.401 -0.5670 -0.2299 -0.3930
43793OCT     C187585  17.851   6.819   3.803  0.2005 -0.3888  0.1941
43793OCT     C287586  18.140   6.560   3.981 -0.1772  0.4115  0.2726
43794OCT     C187587   2.464  16.123  10.605  0.2908 -0.1550  0.0253
43794OCT     C287588   2.768  15.825  10.815  0.0546 -0.0871 -0.2376
43795OCT     C187589   0.385  18.294   1.222 -0.0487 -0.0767  0.0281
43795OCT     C287590   0.687  18.037   0.977 -0.1036 -0.0602  0.2791
43796OCT     C187591  17.932  12.919  14.858  0.1510 -0.1197 -0.2197
43796OCT     C287592  18.098  12.513  14.884  0.1233  0.2246  0.2450
43797OCT     C187593   4.895  18.477  19.904 -0.1354  0.1365  0.2654
43797OCT     C287594   4.607  18.712  20.242  0.0219  0.0484 -0.1215
43798OCT     C187595  22.540   2.547  11.958 -0.2495 -0.0685  0.3495
43798OCT     C287596  22.969   2.391  11.826 -0.1327 -0.4401 -0.1492
43799OCT     C187597   5.254  10.167  11.681 -0.2909  0.0473 -0.3754
43799OCT     C287598   5.363  10.640  11.832  0.0932  0.0894 -0.2155
43800OCT     C187599  20.831  11.686  19.322 -0.1109 -0.2480 -0.1194
43800OCT     C287600  20.798  12.189  19.366  0.0226 -0.3955  0.6995
43801OCT     C187601  16.261  14.680  18.887 -0.5494  0.2781 -0.0071
43801OCT     C287602  16.010  14.921  18.570  0.0051 -0.1369  0.0185
43802OCT     C187603  17.038  13.928   1.669 -0.0507  0.1243  0.0149
43802OCT     C287604  16.603  13.774   1.716  0.0596 -0.2726  0.2296
43803OCT     C187605   2.354   8.991   0.370  0.1817 -0.2469 -0.1262
43803OCT     C287606   2.746   8.875   0.145  0.1643  0.2678 -0.0056
43804OCT     C187607  15.305  19.080  13.385  0.3583 -0.0524  0.3682
43804OCT     C287608  15.483  19.235  13.001  0.3307  0.0470 -0.0276
43805OCT     C187609   8.057  18.900   2.081 -0.0505 -0.1763 -0.1159
43805OCT     C287610   7.981  19.072   2.588  0.3127  0.3882  0.1069
43806OCT     C187611  11.750  14.953   3.190 -0.3132  0.2901  0.0511
43806OCT     C287612  11.460  14.992   3.515 -0.0241 -0.3408 -0.1764
43807OCT     C187613  10.565  22.704  16.235  0.0068  0.1309  0.2937
43807OCT     C287614  10.163  22.392  16.327 -0.1848  0.0958  0.0014
43808OCT     C187615  16.595  20.588  19.916 -0.2093 -0.1118 -0.0636
43808OCT     C287616  16.728  20.843  20.276 -0.0130 -0.0043 -0.1737
43809OCT     C187617   7.410   8.831   2.987  0.3226 -0.0880  0.4408
43809OCT     C287618   7.464   8.891   2.545 -0.1270 -0.1347 -0.1757
43810OCT     C187619   7.582  13.373   0.459  0.2178  0.3329  0.1696
43810OCT     C287620   7.454  13.605   0.087 -0.5395  0.1157 -0.2112
43811OCT     C187621   7.587  13.736   9.491  0.1290 -0.0767  0.2247
43811OCT     C287622   7.376  13.328   9.406 -0.0926  0.0018  0.0784
43812OCT     C187623   1.847  14.986  15.156 -0.2045 -0.1882 -0.1673
43812OCT     C287624   1.625  15.404  15.114 -0.1102 -0.1573 -0.0099
43813OCT     C187625  23.220   9.464  21.430  0.1603  0.6767  0.1112
43813OCT     C287626  23.336   9.612  21.890  0.0362  0.2651  0.0910
43814OCT     C187627   2.082  16.472   9.869 -0.2973 -0.0317  0.1081
43814OCT     C287628   2.410  16.723  10.120  0.0427  0.0238  0.1513
43815OCT     C187629  13.566  20.927  22.277 -0.4431 -0.2417  0.6465
43815OCT     C287630  13.136  20.946  22.401 -0.1593 -0.2332  0.5881
43816OCT     C187631   0.561  21.416   5.540  0.0068  0.0483 -0.5147
43816OCT     C287632   0.865  21.117   5.361  0.0395  0.2728 -0.3666
43817OCT     C187633   9.162   7.708  17.211 -0.1986 -0.5237  0.0407
43817OCT     C287634   8.859   8.084  17.125 -0.0558  0.1547  0.4984
43818OCT     C187635   4.934  22.574  20.587 -0.0807  0.0458 -0.4889
43818OCT     C287636   5.321  22.759  20.583  0.3383 -0.2003 -0.0212
43819OCT     C187637   6.430  13.401  15.289 -0.2836 -0.1089 -0.0969
43819OCT     C287638   6.171  13.815  15.452 -0.2230  0.3045 -0.1517
43820OCT     C187639  23.711  18.467   6.380 -0.1427 -0.3601 -0.0262
43820OCT     C287640  23.301  18.732   6.455 -0.0453  0.1040  0.1656
43821OCT     C187641  23.655  15.718  14.220 -0.1704  0.1138  0.0149
43821OCT     C287642   0.267  15.927  14.106  0.1435 -0.3802  0.0779
43822OCT     C187643  20.654  18.470  20.740 -0.0844  0.0468  0.1853
43822OCT     C287644  20.621  18.177  21.082 -0.3142 -0.1038 -0.0359
43823OCT     C187645  20.152  14.560  19.531 -0.0420 -0.2819 -0.0486
43823OCT     C287646  20.075  14.840  19.130  0.0724  0.0182  0.1667
43824OCT     C187647  11.114   0.048  13.938 -0.0822 -0.0734 -0.0064
43824OCT     C287648  11.268  23.561  14.341  0.3789  0.2373 -0.1017
43825OCT     C187649   8.746  16.683  16.302 -0.3541 -0.1850 -0.1183
43825OCT     C287650   8.387  16.490  16.536 -0.0093  0.0787 -0.0756
43826OCT     C187651  18.705   9.930  17.107 -0.0337 -0.1858 -0.1438
43826OCT     C287652  19.014   9.624  17.245 -0.0360 -0.1229  0.0015
43827OCT     C187653  22.500  19.454  20.411 -0.2307  0.2269 -0.1889
43827OCT     C287654  22.051  19.646  20.484  0.0279 -0.2377  0.0527
43828OCT     C187655  11.777   9.660  22.684 -0.3383 -0.0628 -0.1249
43828OCT     C287656  11.669   9.250  22.716  0.2422  0.3882  0.4842
43829OCT     C187657   1.040   1.558  19.096  0.0311 -0.0230 -0.3263
43829OCT     C287658   1.452   1.795  19.117 -0.0620 -0.1803 -0.0302
43830OCT     C187659   2.980   9.619   5.940 -0.2445 -0.1356  0.1361
43830OCT     C287660   3.371   9.704   5.720  0.3146 -0.0224 -0.2009
43831OCT     C187661   9.111  16.810  14.708 -0.1002  0.1996  0.1502
43831OCT     C287662   9.526  17.004  14.521  0.0961  0.1890 -0.0331
43832OCT     C187663   3.343  13.381   4.704 -0.2254  0.0282 -0.0062
43832OCT     C287664   3.141  13.685   5.012 -0.1618  0.0258  0.1213
43833OCT     C187665  19.877   2.932   7.034  0.0752  0.2293  0.0983
43833OCT     C287666  19.815   2.477   7.140 -0.0147 -0.1492 -0.3025
43834OCT     C187667  11.834   5.288   6.402  0.0314 -0.1557 -0.0036
43834OCT     C287668  12.175   5.657   6.358 -0.1137  0.2648 -0.2498
43835OCT     C187669  14.229   6.639   3.568  0.1695 -0.0678  0.1095
43835OCT     C287670  14.262   7.051   3.740  0.0891  0.0700 -0.2610
43836OCT     C187671  15.228   6.253   5.429  0.1968  0.3549 -0.3905
43836OCT     C287672  15.564   6.163   5.792  0.1117 -0.3018  0.5481
43837OCT     C187673   1.476   8.924  19.812  0.5546 -0.2750  0.0064
43837OCT     C287674   1.896   8.791  19.657  0.1660 -0.2454  0.0838
43838OCT     C187675  17.052  21.126  15.736 -0.1651 -0.1285  0.0539
43838OCT     C287676  17.390  21.437  15.559 -0.2798 -0.0041 -0.0029
43839OCT     C187677   8.409  21.360  10.754  0.2162  0.0074 -0.1356
43839OCT     C287678   8.338  21.033  10.407 -0.1590  0.0719  0.1134
43840OCT     C187679  11.278   3.705  16.274  0.0568  0.0886 -0.3223
43840OCT     C287680  11.378   3.570  15.826 -0.0691 -0.0514 -0.0970
43841OCT     C187681  23.496   7.140   8.398  0.1668 -0.4707 -0.0486
43841OCT     C287682  23.174   6.817   8.270  0.3218 -0.1370  0.0331
43842OCT     C187683  11.051  21.852  14.696 -0.0968  0.1266 -0.1588
43842OCT     C287684  11.163  22.202  14.395  0.0134 -0.0220 -0.0169
43843OCT     C187685   6.385  16.617  14.006  0.2136  0.2140  0.5216
43843OCT     C287686   6.021  16.917  13.960 -0.0260  0.1733 -0.4982
43844OCT     C187687   1.834   0.232   6.988  0.3544 -0.3853  0.0967
43844OCT     C287688   1.607   0.466   6.579 -0.1854  0.5884 -0.0208
43845OCT     C187689   6.991  21.737  14.875 -0.1022  0.2868  0.0112
43845OCT     C287690   7.126  21.556  15.265  0.2657 -0.3049 -0.4306
43846OCT     C187691  10.441  10.697   6.113  0.1551  0.0737 -0.5290
43846OCT     C287692  10.703  11.072   6.027  0.0692 -0.2365  0.2174
43847OCT     C187693   9.716  14.341   6.559 -0.3142  0.2990 -0.1036
43847OCT     C287694   9.543  13.907   6.699  0.3964  0.1317  0.2874
43848OCT     C187695  22.631  13.033  18.669 -0.1381  0.0123 -0.1123
43848OCT     C287696  22.566  13.401  18.935 -0.0261  0.0830  0.0842
43849OCT     C187697  14.371  13.811  16.597  0.0108  0.2492  0.1492
43849OCT     C287698  14.335  14.258  16.403  0.0362  0.0146 -0.1456
43850OCT     C187699  17.608   9.981   1.117  0.0052  0.2043  0.4050
43850OCT     C287700  17.434   9.927   1.523  0.1756 -0.0686 -0.1259
43851OCT     C187701   6.500  12.477  15.385  0.1158 -0.4435  0.0694
43851OCT     C287702   6.596  12.455  14.950  0.0491  0.0277 -0.2596
43852OCT     C187703   1.829  12.552   8.151 -0.2294  0.1315  0.5395
43852OCT     C287704   2.320  12.568   8.310 -0.4583 -0.0786  0.3522
43853OCT     C187705  15.518  18.050  17.500 -0.2592  0.1074  0.0262
43853OCT     C287706  15.729  18.239  17.913  0.4552  0.2233 -0.2104
43854OCT     C187707  20.753  15.709  20.670  0.0287  0.0101 -0.1875
43854OCT     C287708  20.802  15.959  21.072  0.2015 -0.1345  0.1303
43855OCT     C187709  20.535   0.553  14.529  0.2045 -0.0236 -0.0989
43855OCT     C287710  20.327   0.168  14.680  0.2133  0.1302  0.0989
43856OCT     C187711  13.299  19.460  14.586  0.0446 -0.3724  0.1527
43856OCT     C287712  13.672  19.356  14.849 -0.4706  0.2028 -0.4830
43857OCT     C187713   1.278  16.543  10.490 -0.4328  0.1780 -0.0489
43857OCT     C287714   1.124  16.122  10.264 -0.1527  0.1295  0.2985
43858OCT     C187715  20.110  22.364   3.446  0.2492  0.1804  0.2251
43858OCT     C287716  19.961  22.870   3.452 -0.0525 -0.0466  0.3948
43859OCT     C187717  15.303   4.574   6.443  0.2202 -0.0642  0.2606
43859OCT     C287718  14.913   4.880   6.414  0.0760  0.0944  0.1454
43860OCT     C187719  23.134   8.386  20.540  0.1867  0.0815 -0.0444
43860OCT     C287720  23.480   8.019  20.533  0.3593  0.2694 -0.2983
43861OCT     C187721  13.236  15.959  18.313 -0.2323  0.0094 -0.1614
43861OCT     C287722  13.398  15.541  18.176  0.1562  0.2126  0.2380
43862OCT     C187723  18.552  16.146   9.867  0.1874 -0.0526 -0.1317
43862OCT     C287724  18.845  16.345  10.074  0.0812 -0.0480  0.4845
43863OCT     C187725   1.475  18.817  11.389  0.2293 -0.2829 -0.0822
43863OCT     C287726   1.459  19.227  11.153  0.4514 -0.2573 -0.1193
43864OCT     C187727   2.519  15.566  16.091 -0.0711 -0.6095  0.1371
43864OCT     C287728   2.504  15.110  15.932  0.3285  0.2419  0.0363
43865OCT     C187729  15.004  14.925  13.229 -0.3739 -0.1505  0.2712
43865OCT     C287730  15.030  14.891  12.771 -0.0213  0.4196 -0.4508
43866OCT     C187731  11.143  15.300   3.759 -0.2046  0.0988 -0.0787
43866OCT     C287732  10.736  15.491   3.987 -0.3810  0.5389  0.3144
43867OCT     C187733   6.142  15.930   6.720  0.1416  0.0662 -0.0038
43867OCT     C287734   6.474  16.001   6.436 -0.2813 -0.2092  0.2348
43868OCT     C187735  20.175  22.507   9.773 -0.0527  0.1050  0.1221
43868OCT     C287736  20.520  22.315   9.417  0.1290 -0.3077 -0.1555
43869OCT     C187737   5.090  22.587  14.788 -0.1730 -0.0853 -0.3418
43869OCT     C287738   4.992  22.220  14.461  0.1703 -0.0998 -0.3415
43870OCT     C187739  22.979  14.599  21.830  0.1525  0.0358 -0.3752
43870OCT     C287740  23.332  14.284  21.909 -0.1113 -0.0458  0.0128
43871OCT     C187741  20.198   2.123  21.596 -0.1612  0.2353  0.2476
43871OCT     C287742  20.131   1.651  21.793 -0.1860 -0.0869  0.0971
43872OCT     C187743  14.009  10.761  12.538 -0.1315 -0.0548 -0.1414
43872OCT     C287744  14.318  10.549  12.847 -0.2108  0.2747  0.1711
43873OCT     C187745   4.233   8.472   0.654 -0.0224 -0.0137  0.2630
43873OCT     C287746   4.074   8.034   0.615 -0.1828 -0.0164 -0.0176
43874OCT     C187747  12.785  22.811  12.556 -0.3171  0.1495  0.1168
43874OCT     C287748  12.863  22.982  12.942 -0.1231  0.0865  0.2822
43875OCT     C187749   2.384   9.388   6.981  0.0540  0.1939  0.0404
43875OCT     C287750   2.773   9.110   7.131 -0.0793 -0.5270 -0.2170
43876OCT     C187751  12.491  10.913  23.038  0.2270  0.1229 -0.1376
43876OCT     C287752  12.229  11.265  22.853  0.1383 -0.2475 -0.0091
43877OCT     C187753   9.859  20.415  16.058  0.0044  0.1134  0.0286
43877OCT     C287754   9.701  20.879  15.939  0.1492  0.0285  0.1115
43878OCT     C187755   3.732   3.374   7.693 -0.0352 -0.2116 -0.2904
43878OCT     C287756   3.673   3.584   8.147 -0.1106 -0.1117  0.1118
43879OCT     C187757  16.380  12.892  16.932  0.4202  0.3315  0.1766
43879OCT     C287758  16.029  12.868  16.627  0.3242  0.3383  0.0520
43880OCT     C187759   6.368   5.282   6.170 -0.2938  0.2660  0.2278
43880OCT     C287760   6.015   5.054   6.159  0.2388  0.2191 -0.2284
43881OCT     C187761  16.568   3.876  15.385  0.1078 -0.2434  0.0831
43881OCT     C287762  16.962   4.036  15.572 -0.1768  0.1796 -0.3122
43882OCT     C187763  21.058   2.640  23.703 -0.0980  0.0962 -0.2182
43882OCT     C287764  20.787   2.275  23.611  0.2030  0.0923  0.2187
43883OCT     C187765  14.217   8.815   2.959 -0.2214 -0.2498 -0.0758
43883OCT     C287766  14.367   8.813   2.583  0.0655 -0.6078  0.0216
43884OCT     C187767   5.110   6.980  15.790  0.2107  0.1033 -0.0326
43884OCT     C287768   5.190   6.491  15.804  0.1936 -0.0704 -0.2226
43885OCT     C187769  17.701   5.862   3.316 -0.0665  0.0096  0.1163
43885OCT     C287770  17.817   5.858   3.756  0.1206  0.1142 -0.1386
43886OCT     C187771   5.555  10.819   5.013  0.2680  0.2862  0.2376
43886OCT     C287772   5.270  11.170   5.058  0.1386  0.0185  0.3496
43887OCT     C187773  15.290  14.159  19.560 -0.0298  0.0635 -0.0793
43887OCT     C287774  15.610  14.174  19.840 -0.2798  0.1119 -0.0764
43888OCT     C187775  18.372  19.587  12.869  0.1683  0.3399 -0.1401
43888OCT     C287776  18.099  19.485  12.507  0.2738  0.0812 -0.0659
43889OCT     C187777  18.249   7.867   0.559 -0.1118 -0.2636 -0.3261
43889OCT     C287778  18.413   7.505   0.807  0.2289 -0.0356  0.1580
43890OCT     C187779  16.805  17.502   5.304 -0.1263 -0.1115 -0.0449
43890OCT     C287780  16.560  17.237   4.975  0.2689  0.2094  0.1522
43891OCT     C187781   5.299   8.871  20.589  0.1799  0.1436  0.0886
43891OCT     C287782   5.288   8.481  20.730 -0.0030 -0.0911  0.1955
43892OCT     C187783  15.387   5.855   6.323  0.3024  0.0574  0.0183
43892OCT     C287784  15.194   5.635   6.743  0.0945  0.2839  0.0722
43893OCT     C187785  16.072   5.684  20.953  0.2472  0.0105 -0.0594
43893OCT     C287786  15.750   5.910  21.285 -0.0372  0.0987  0.2034
43894OCT     C187787  13.417  15.446  15.120 -0.0447 -0.0906  0.3990
43894OCT     C287788  13.432  15.242  14.695  0.0674  0.1699  0.0400
43895OCT     C187789   3.274  17.814  20.439  0.4338 -0.0860  0.0553
43895OCT     C287790   3.357  18.112  20.803 -0.3671  0.0123 -0.1942
43896OCT     C187791   5.574  14.048  21.454  0.1305 -0.0516 -0.1483
43896OCT     C287792   5.554  14.239  21.025  0.0386  0.2242 -0.0164
43897OCT     C187793   0.441  13.365  20.334  0.3698 -0.0576  0.2756
43897OCT     C287794   0.193  13.594  20.654  0.2144  0.1819  0.0839
43898OCT     C187795   4.251   9.764   2.370  0.1105 -0.1796  0.0524
43898OCT     C287796   3.813   9.647   2.233 -0.0278  0.0562 -0.3322
43899OCT     C187797  20.655  22.091  14.689  0.2093  0.0138  0.1550
43899OCT     C287798  20.871  21.928  14.320  0.1965  0.0234 -0.1064
43900OCT     C187799  19.106  10.899  10.090 -0.0638  0.2245 -0.0997
43900OCT     C287800  18.711  10.827   9.926 -0.1199  0.1170  0.0657
43901OCT     C187801  10.364  17.079  10.770 -0.3791 -0.1665  0.0043
43901OCT     C287802  10.707  17.365  10.762  0.2325  0.1645  0.1628
43902OCT     C187803   2.284  16.933   2.373 -0.0345  0.2050  0.0768
43902OCT     C287804   1.835  16.860   2.284 -0.2780 -0.4409  0.0613
43903OCT     C187805  11.004  16.411   0.773  0.1925 -0.0522  0.3746
43903OCT     C287806  10.685  16.129   0.986 -0.2749 -0.1777 -0.0293
43904OCT     C187807   8.852   5.612  20.906  0.1200 -0.2348 -0.1049
43904OCT     C287808   8.967   6.064  20.942 -0.4079  0.2551  0.1153
43905OCT     C187809  12.299   2.628  21.728  0.3166 -0.3777  0.2852
43905OCT     C287810  12.569   2.967  21.507  0.1504 -0.1805 -0.0747
43906OCT     C187811   3.741  12.944   6.753  0.1419 -0.1138 -0.1506
43906OCT     C287812   4.034  12.792   7.103 -0.1140 -0.1682 -0.0706
43907OCT     C187813   4.632  21.733   5.976  0.4555  0.0229  0.0336
43907OCT     C287814   4.484  21.490   5.666 -0.0463  0.1520 -0.1785
43908OCT     C187815  19.793   9.185  10.453 -0.2577  0.4788  0.0632
43908OCT     C287816  20.014   9.120  10.042 -0.4725 -0.1180 -0.0626
43909OCT     C187817   0.951  20.538  17.112 -0.2632  0.3175  0.1395
43909OCT     C287818   0.614  20.840  17.259 -0.0772 -0.4503  0.5038
43910OCT     C187819  18.808   0.683   4.164  0.0669 -0.1274 -0.0877
43910OCT     C287820  18.742   0.632   3.668  0.0117  0.2111  0.1948
43911OCT     C187821  10.276  12.212  21.874  0.0404  0.1098  0.0336
43911OCT     C287822  10.379  12.593  22.136  0.1823  0.3597  0.1688
43912OCT     C187823  11.366  13.166   5.049 -0.1304  0.4305 -0.0958
43912OCT     C287824  11.300  13.007   5.498 -0.1367  0.4039 -0.1271
43913OCT     C187825   4.786  20.243  21.767 -0.1167 -0.0549  0.1247
43913OCT     C287826   4.444  20.041  21.567  0.1205  0.5455  0.0890
43914OCT     C187827  18.761   3.654  17.886 -0.1150  0.0641  0.1101
43914OCT     C287828  18.645   4.062  18.151  0.2723  0.1722  0.3639
43915OCT     C187829  15.652   0.982   7.457  0.2227 -0.0312 -0.0388
43915OCT     C287830  15.925   1.143   7.051  0.0528  0.2525 -0.3228
43916OCT     C187831  10.853  20.676   3.287 -0.1568 -0.0586 -0.0187
43916OCT     C287832  10.550  20.454   3.095 -0.1993  0.0427 -0.0604
43917OCT     C187833   6.474  20.428   5.727  0.0482  0.1785 -0.2766
43917OCT     C287834   6.023  20.464   5.934 -0.2607 -0.0400 -0.0225
43918OCT     C187835  15.837  15.674  18.884 -0.0611  0.1671 -0.1833
43918OCT     C287836  16.125  15.895  18.571 -0.2401  0.1396 -0.1176
43919OCT     C187837  12.664   1.355  16.828  0.4201  0.1667  0.1243
43919OCT     C287838  13.042   1.583  16.913 -0.1936 -0.1806 -0.0482
43920OCT     C187839   4.359   6.265  11.417  0.2636  0.2047  0.1503
43920OCT     C287840   4.563   6.253  11.853  0.1419  0.0144 -0.0972
43921OCT     C187841  19.064  11.356  19.524  0.4362  0.0204  0.2482
43921OCT     C287842  18.971  11.512  19.957 -0.1705 -0.2412  0.1465
43922OCT     C187843  21.074  15.235  18.421 -0.2837 -0.2645 -0.0360
43922OCT     C287844  21.493  15.088  18.556  0.0233  0.1062 -0.2040
43923OCT     C187845   4.242   4.384   3.002 -0.2164 -0.1147 -0.1633
43923OCT     C287846   4.281   4.443   2.495 -0.0413 -0.1465  0.1702
43924OCT     C187847   4.085  19.493   2.277 -0.1511  0.1657 -0.2807
43924OCT     C287848   4.486  19.731   2.254 -0.4626 -0.0560 -0.1519
43925OCT     C187849  22.443   1.319   7.328  0.1866  0.1450 -0.2278
43925OCT     C287850  22.667   0.948   7.011  0.1829 -0.1146 -0.1147
43926OCT     C187851   0.751   5.325   0.760 -0.1751 -0.3115  0.3366
43926OCT     C287852   0.656   5.785   0.833 -0.0056  0.0805  0.1378
43927OCT     C187853  14.015  13.670   9.574 -0.2025  0.2986  0.3203
43927OCT     C287854  14.297  13.951   9.367  0.3606  0.0571  0.2699
43928OCT     C187855  14.554   8.573   0.215  0.3262  0.0477 -0.0472
43928OCT     C287856  14.753   8.585  23.535 -0.1098  0.0758  0.0459
43929OCT     C187857  11.495   9.266  21.564  0.2060 -0.2459  0.1430
43929OCT     C287858  11.229   9.194  21.194 -0.2944 -0.2864  0.1210
43930OCT     C187859   0.260  19.945   0.651  0.2514 -0.1257 -0.2050
43930OCT     C287860   0.295  20.002   1.137  0.3803 -0.0859  0.1793
43931OCT     C187861   5.171   3.509  15.058 -0.1891  0.3981 -0.0708
43931OCT     C287862   5.069   3.996  15.030 -0.0019  0.3402  0.1855
43932OCT     C187863  21.055  16.015   9.408 -0.0552 -0.3370 -0.0610
43932OCT     C287864  21.028  15.581   9.598  0.1596 -0.0543 -0.2048
43933OCT     C187865   1.242  14.866   9.615  0.3283 -0.2602 -0.2542
43933OCT     C287866   0.877  14.971   9.438  0.2188  0.2012 -0.0319
43934OCT     C187867   6.790  16.413   9.695 -0.0160 -0.2068  0.0499
43934OCT     C287868   6.332  16.383   9.903  0.1471 -0.3465 -0.1506
43935OCT     C187869   5.575   1.692   5.913 -0.0982 -0.0841 -0.2051
43935OCT     C287870   5.339   1.660   5.547 -0.0002 -0.0856  0.0134
43936OCT     C187871  17.417   4.457  18.347  0.0649 -0.1156 -0.0733
43936OCT     C287872  17.822   4.613  18.163  0.0425 -0.1483  0.1616
43937OCT     C187873   2.808  22.746   1.882  0.4402  0.1497 -0.0324
43937OCT     C287874   2.428  22.620   1.629 -0.0250 -0.0312  0.0432
43938OCT     C187875  14.383  11.738  23.007  0.3153 -0.0999 -0.2546
43938OCT     C287876  13.957  11.627  22.842  0.2218  0.2546 -0.0820
43939OCT     C187877   1.419   2.194   1.547  0.1657  0.1374  0.4090
43939OCT     C287878   1.057   2.027   1.217  0.0708 -0.2267 -0.0703
43940OCT     C187879  17.248  10.126  17.705  0.0150 -0.1395 -0.3211
43940OCT     C287880  16.841  10.051  17.625  0.2152 -0.0162 -0.2298
43941OCT     C187881  12.815  14.811   8.092  0.0400  0.1997  0.1864
43941OCT     C287882  12.479  15.103   8.177  0.0005  0.1136  0.0154
43942OCT     C187883  14.764   3.202  14.271 -0.0233 -0.0639 -0.2835
43942OCT     C287884  15.165   3.178  14.512 -0.1048  0.4024  0.2699
43943OCT     C187885  17.315  10.721   1.744 -0.2885  0.0942  0.2707
43943OCT     C287886  17.314  11.112   1.883 -0.1480 -0.4326 -0.1432
43944OCT     C187887  19.616  11.795  14.564  0.1551  0.0352 -0.1856
43944OCT     C287888  20.023  11.596  14.390  0.1931 -0.5184 -0.0623
43945OCT     C187889   6.224   6.003  10.273 -0.1466 -0.0241 -0.1699
43945OCT     C287890   6.165   5.549  10.462 -0.0142 -0.1000  0.1411
43946OCT     C187891   0.363   1.353   9.397 -0.0811 -0.1604 -0.2302
43946OCT     C287892   0.440   1.656   9.024  0.1796  0.1471  0.2345
43947OCT     C187893   4.705   7.057  19.234 -0.3237  0.1315 -0.0679
43947OCT     C287894   4.262   7.097  19.458  0.0946  0.3805  0.0264
43948OCT     C187895  19.498   8.120  15.434 -0.0445  0.0168  0.2474
43948OCT     C287896  19.226   7.845  15.248  0.1199 -0.0164 -0.1799
43949OCT     C187897  10.780   4.277   1.533 -0.0855 -0.3496 -0.2571
43949OCT     C287898  10.741   4.731   1.677  0.4016 -0.2032  0.2236
43950OCT     C187899   2.967  11.954  12.435 -0.0428 -0.0546  0.1723
43950OCT     C287900   2.976  12.437  12.382  0.0578  0.5040 -0.3825
43951OCT     C187901  15.651  17.847  23.499 -0.0042  0.1184 -0.2749
43951OCT     C287902  15.739  17.353  23.456 -0.0877  0.0107 -0.0813
43952OCT     C187903  11.893  17.865  16.651  0.0545  0.1463  0.1941
43952OCT     C287904  12.351  17.726  16.625  0.1207  0.1022  0.2526
43953OCT     C187905   4.952  14.156  14.668 -0.0945  0.0471 -0.2496
43953OCT     C287906   4.714  14.559  14.550 -0.0440 -0.1653  0.1126
43954OCT     C187907   0.021   3.774   2.000  0.1254 -0.0783 -0.0865
43954OCT     C287908  23.569   3.359   1.898 -0.3621  0.2177  0.0763
43955OCT     C187909   6.324   3.898  11.618 -0.1000  0.1019  0.0550
43955OCT     C287910   5.941   3.865  11.320 -0.0613 -0.0603 -0.0167
43956OCT     C187911   8.823   3.700  20.528 -0.0184 -0.1519 -0.0017
43956OCT     C287912   8.549   4.059  20.322 -0.3251 -0.4079 -0.3393
43957OCT     C187913  20.761  18.705   1.303 -0.4068  0.3064 -0.3632
43957OCT     C287914  21.062  19.077   1.335 -0.3886  0.0648 -0.0699
43958OCT     C187915  13.467  21.708  21.742  0.1564 -0.1167  0.2454
43958OCT     C287916  13.475  21.905  22.122  0.1582  0.3856  0.1396
43959OCT     C187917  21.102   1.175   6.017  0.0748  0.0148  0.1038
43959OCT     C287918  20.795   1.008   5.804  0.2124  0.0575 -0.2947
43960OCT     C187919  20.171  11.849  16.021  0.2660  0.3649  0.1124
43960OCT     C287920  19.739  11.753  16.200  0.4546  0.1838 -0.0102
43961OCT     C187921  23.188   7.933   6.159 -0.3055  0.0268 -0.2766
43961OCT     C287922  22.958   7.789   6.526  0.0163  0.0977  0.0948
43962OCT     C187923  20.860   4.184   0.611  0.4640 -0.1194  0.1062
43962OCT     C287924  21.039   3.829   0.830  0.3623 -0.0207 -0.2123
43963OCT     C187925   7.040  10.896  21.610  0.2418 -0.0199 -0.1154
43963OCT     C287926   7.431  11.105  21.545 -0.2115 -0.1909 -0.0987
43964OCT     C187927  21.045   0.656  18.740  0.3389  0.3660  0.4768
43964OCT     C287928  20.995   0.354  18.362 -0.0635  0.1112  0.1187
43965OCT     C187929   3.172  22.555  15.944  0.2290  0.1134 -0.2422
43965OCT     C287930   3.612  22.776  15.866  0.2955 -0.2816 -0.2810
43966OCT     C187931  15.655  13.350   5.561 -0.1036  0.1010 -0.0754
43966OCT     C287932  15.956  13.031   5.355 -0.1496 -0.0771  0.2185
43967OCT     C187933  11.905  23.685  19.419 -0.1188 -0.2600 -0.0902
43967OCT     C287934  12.232  23.516  19.117 -0.1720 -0.1042  0.1183
43968OCT     C187935   8.607  14.996  16.419 -0.2145 -0.1437 -0.1108
43968OCT     C287936   8.801  14.808  16.770  0.3859  0.1783  0.4247
43969OCT     C187937  20.331  22.305  12.106 -0.3449 -0.0326 -0.3124
43969OCT     C287938  20.021  22.054  12.341  0.2034  0.1370  0.0060
43970OCT     C187939   6.880  20.142   9.697 -0.3932  0.2680  0.0811
43970OCT     C287940   7.106  20.291   9.272  0.1160  0.0700  0.2427
43971OCT     C187941  14.475   5.385   1.718  0.0589 -0.1673 -0.1865
43971OCT     C287942  14.209   5.021   1.810 -0.0239 -0.2927  0.4081
43972OCT     C187943  15.704  15.487  10.352 -0.0306  0.1783  0.0073
43972OCT     C287944  15.506  15.093  10.147 -0.0932 -0.0309 -0.1757
43973OCT     C187945  16.388  14.099   4.952 -0.0070 -0.4142 -0.1567
43973OCT     C287946  16.619  14.094   4.509 -0.2754  0.1262 -0.1973
43974OCT     C187947   5.126   2.953   5.550 -0.4244 -0.3403  0.3439
43974OCT     C287948   5.378   3.355   5.610 -0.0565  0.0997 -0.2222
43975OCT     C187949  12.303  18.028  20.620 -0.2443 -0.1038  0.1162
43975OCT     C287950  12.296  18.109  20.182  0.0286  0.3027  0.0732
43976OCT     C187951   7.886  17.296  13.408  0.1743 -0.3610 -0.0265
43976OCT     C287952   7.408  17.187  13.434 -0.0714  0.2265  0.1144
43977OCT     C187953  13.269  19.722  10.414 -0.1115  0.0864  0.2110
43977OCT     C287954  13.532  19.464  10.607  0.0752 -0.0085 -0.0460
43978OCT     C187955   1.238  15.297  20.811  0.2647  0.1613 -0.0804
43978OCT     C287956   0.799  15.388  20.937  0.0402 -0.0926 -0.0585
43979OCT     C187957  21.357   4.239   5.410 -0.0014 -0.2173  0.1180
43979OCT     C287958  20.982   3.989   5.459 -0.1024  0.0459 -0.2459
43980OCT     C187959   7.512  15.896   6.000  0.1893  0.2608  0.1880
43980OCT     C287960   7.104  15.942   6.135 -0.2656 -0.2969  0.1869
43981OCT     C187961  10.435  17.926   8.058  0.0754  0.0528  0.0139
43981OCT     C287962  10.865  17.914   7.858  0.2616  0.0134  0.1119
43982OCT     C187963   2.936   7.563  20.784  0.2134  0.0710 -0.3520
43982OCT     C287964   2.483   7.437  20.788 -0.4062  0.2386  0.0961
43983OCT     C187965  19.971   3.198  10.328  0.1040  0.0714 -0.3436
43983OCT     C287966  19.688   3.315  10.011  0.0797 -0.0783 -0.1631
43984OCT     C187967  10.851   7.976   7.983 -0.0055 -0.1604 -0.0433
43984OCT     C287968  10.816   7.615   8.290  0.0580 -0.1267  0.4309
43985OCT     C187969   7.868   4.953  12.198 -0.1089 -0.3920 -0.0948
43985OCT     C287970   8.293   5.046  12.108  0.0747 -0.0251  0.2075
43986OCT     C187971   9.676   7.115  16.581 -0.0330 -0.1239 -0.1884
43986OCT     C287972   9.702   6.753  16.364  0.0032 -0.1983 -0.1054
43987OCT     C187973   3.042  19.314  19.959  0.1878  0.1643 -0.0576
43987OCT     C287974   2.870  19.661  20.214 -0.2946 -0.0300 -0.5118
43988OCT     C187975  20.914   3.200  15.026 -0.3051 -0.1642  0.3044
43988OCT     C287976  21.079   3.609  15.154  0.1263  0.0908  0.2621
43989OCT     C187977  13.620  21.196  11.927 -0.0693 -0.0681 -0.0065
43989OCT     C287978  13.243  20.869  11.829  0.1518  0.1089 -0.0955
43990OCT     C187979   5.943  22.486   5.432 -0.1747  0.2502 -0.1768
43990OCT     C287980   6.131  22.290   5.807 -0.0630  0.1872 -0.1210
43991OCT     C187981  15.287  10.110   2.382  0.1778 -0.3466  0.0546
43991OCT     C287982  15.436  10.335   2.761  0.0175  0.2442 -0.1271
43992OCT     C187983   0.133  18.957   3.129 -0.0129 -0.3738 -0.1224
43992OCT     C287984  23.494  19.163   3.390 -0.2413  0.0213  0.4813
43993OCT     C187985  12.107  22.304   2.558 -0.2489  0.0297  0.0188
43993OCT     C287986  11.697  22.233   2.460 -0.1467  0.0749  0.2706
43994OCT     C187987  20.131   9.494  20.334 -0.0647 -0.3841  0.1556
43994OCT     C287988  19.902   9.664  19.979 -0.0967 -0.0136  0.1931
43995OCT     C187989  12.606  13.542  18.018 -0.1308 -0.2099 -0.0367
43995OCT     C287990  12.631  13.251  18.381 -0.0302  0.2597  0.0837
43996OCT     C187991  20.213  23.158  15.377 -0.0334  0.2973  0.3160
43996OCT     C287992  19.974  23.506  15.114  0.0094  0.0009  0.1120
43997OCT     C187993   5.632  13.584  22.409  0.1365 -0.1603  0.3859
43997OCT     C287994   5.392  13.821  22.093 -0.1050 -0.3848 -0.1297
43998OCT     C187995  12.332  22.962   5.139  0.2002 -0.0152 -0.0453
43998OCT     C287996  11.875  23.110   5.164  0.0491  0.1387  0.1752
43999OCT     C187997  18.060  16.446   5.003  0.0822 -0.3432  0.0164
43999OCT     C287998  18.280  16.073   5.185  0.1458 -0.1079  0.0221
44000OCT     C187999  12.714  21.363  23.325  0.0682 -0.4226 -0.2404
44000OCT     C288000  12.263  21.354  23.252  0.1432 -0.0888 -0.1117
44001OCT     C188001   9.828   2.914   8.193 -0.3665 -0.2872  0.0014
44001OCT     C288002   9.502   3.092   8.423 -0.1134 -0.4565  0.0932
44002OCT     C188003  20.233  20.665  11.828 -0.1297  0.3258 -0.3436
44002OCT     C288004  20.599  20.976  11.681  0.0214  0.1631 -0.0343
44003OCT     C188005  21.256  13.715  10.421 -0.0818 -0.1318  0.2040
44003OCT     C288006  21.022  13.744  10.816 -0.0454 -0.0925  0.1986
44004OCT     C188007  23.495  11.253  16.821 -0.1482  0.0108 -0.3112
44004OCT     C288008  23.272  11.018  16.485  0.1760 -0.4166 -0.2361
44005OCT     C188009  18.230  13.529  19.042  0.0778  0.2555  0.3294
44005OCT     C288010  18.683  13.461  18.993  0.2330 -0.1631  0.0939
44006OCT     C188011  12.684  14.046   1.369 -0.2990  0.4070 -0.1396
44006OCT     C288012  12.730  13.768   1.787  0.2221 -0.3231  0.1514
44007OCT     C188013   1.742  22.686   7.658  0.0724 -0.0660  0.0860
44007OCT     C288014   2.143  22.452   7.708  0.1521  0.1592 -0.0646
44008OCT     C188015   9.655   6.897  19.664 -0.1865 -0.0624 -0.1808
44008OCT     C288016   9.426   7.312  19.544 -0.0811  0.0289 -0.0416
44009OCT     C188017   0.929  18.776   8.233 -0.0636  0.2035  0.1079
44009OCT     C288018   0.638  18.446   8.018  0.0829 -0.5286 -0.2734
44010OCT     C188019   1.004   7.466  13.693  0.2191  0.0300 -0.0783
44010OCT     C288020   1.104   7.851  13.858 -0.0754  0.2389 -0.1267
44011OCT     C188021   3.156   7.278  10.752  0.0851 -0.2732  0.0464
44011OCT     C288022   3.034   6.826  10.683  0.1009  0.0342 -0.0222
44012OCT     C188023   4.067  20.602   6.650 -0.3704  0.4684  0.2946
44012OCT     C288024   3.971  20.221   6.773  0.1044  0.3127 -0.0496
44013OCT     C188025   7.513   4.386   6.284  0.2875 -0.0884 -0.1561
44013OCT     C288026   7.782   3.911   6.185  0.1126 -0.1814 -0.0082
44014OCT     C188027  17.036  19.094  21.952  0.3515  0.0571 -0.4748
44014OCT     C288028  17.343  19.362  21.668  0.2851 -0.0981  0.0038
44015OCT     C188029   6.717  23.158   5.888  0.3365  0.3306  0.3367
44015OCT     C288030   6.579  23.583   6.015 -0.0450 -0.1731  0.1459
44016OCT     C188031  12.697  16.979  20.873 -0.2197 -0.1537 -0.1419
44016OCT     C288032  12.441  16.589  20.727 -0.1014  0.1029  0.2558
44017OCT     C188033  16.231  22.277  21.933  0.1220  0.2865 -0.0978
44017OCT     C288034  16.467  22.025  22.191  0.0053 -0.1658 -0.1193
44018OCT     C188035  21.464  14.994  19.887  0.4576  0.1730 -0.2697
44018OCT     C288036  21.617  14.576  19.973  0.2520  0.1667  0.0728
44019OCT     C188037   7.634  18.407  13.399  0.1873  0.0746 -0.1738
44019OCT     C288038   7.900  18.559  13.709 -0.1867 -0.2971  0.0672
44020OCT     C188039  15.669  15.569   4.097  0.1872  0.0483  0.3420
44020OCT     C288040  15.723  15.992   4.323  0.1578 -0.1763 -0.1404
44021OCT     C188041  22.059  20.813   0.326 -0.3315  0.0164  0.0920
44021OCT     C288042  21.807  20.949   0.645  0.0023  0.0432  0.2371
44022OCT     C188043  18.160   9.190   3.715 -0.0929 -0.0967 -0.5885
44022OCT     C288044  18.128   9.573   3.550  0.2150 -0.0185 -0.2120
44023OCT     C188045   2.329   2.342  20.879  0.2166 -0.1742 -0.0689
44023OCT     C288046   2.753   2.206  20.766 -0.4336  0.1740  0.0802
44024OCT     C188047  11.274  20.335  17.342 -0.0099 -0.0449  0.2521
44024OCT     C288048  10.972  20.226  17.674 -0.2721  0.3422  0.1974
44025OCT     C188049   6.873  15.005  17.918 -0.0871 -0.0892  0.0226
44025OCT     C288050   7.082  15.388  17.754  0.2426  0.4302 -0.1389
44026OCT     C188051   0.500   9.067   4.193  0.1718  0.0265 -0.2988
44026OCT     C288052   0.372   9.148   4.607 -0.1239  0.1246 -0.5482
44027OCT     C188053   4.261  22.967   5.672 -0.2006 -0.0360  0.2437
44027OCT     C288054   3.935  22.609   5.739  0.2879  0.1999  0.0919
44028OCT     C188055  14.317   9.843  13.611 -0.3981  0.0566  0.1371
44028OCT     C288056  13.981   9.705  13.872  0.1520  0.1637 -0.2172
44029OCT     C188057  12.439   6.704  22.493  0.3200 -0.3016  0.4053
44029OCT     C288058  12.107   7.023  22.435  0.1956 -0.1355 -0.3585
44030OCT     C188059  10.342  16.775   2.780 -0.0722 -0.5093 -0.0034
44030OCT     C288060  10.574  16.987   3.209  0.3311 -0.0721  0.3092
44031OCT     C188061  17.890   4.280   1.381 -0.1564  0.1067 -0.0121
44031OCT     C288062  17.804   3.875   1.322  0.1198 -0.1011  0.3746
44032OCT     C188063   3.281   5.099  18.983  0.2954 -0.0336 -0.0032
44032OCT     C288064   3.392   5.113  19.455 -0.4524 -0.0579 -0.1153
44033OCT     C188065  18.884   7.454  23.455 -0.0991  0.1672  0.2735
44033OCT     C288066  19.013   6.986  23.654  0.4085  0.1775  0.1461
44034OCT     C188067   1.935   3.296   0.186 -0.0894 -0.0228  0.0940
44034OCT     C288068   1.484   3.345   0.006  0.1600  0.0844 -0.2125
44035OCT     C188069  13.932  17.039  14.070 -0.1125  0.0429  0.0355
44035OCT     C288070  13.932  16.594  14.024  0.0568 -0.2612 -0.2182
44036OCT     C188071  16.329  10.903   2.638  0.1511 -0.0075  0.1879
44036OCT     C288072  16.403  10.457   2.467 -0.2639  0.1824  0.1439
44037OCT     C188073   8.633  14.707   4.369 -0.2387  0.0908  0.1195
44037OCT     C288074   8.403  14.813   3.984 -0.0174 -0.2282 -0.0578
44038OCT     C188075  16.416  12.941   2.191 -0.0101 -0.0210  0.0009
44038OCT     C288076  16.474  12.831   1.739 -0.1508 -0.1218  0.1436
44039OCT     C188077   8.232   4.756   4.065 -0.2428 -0.0660  0.2063
44039OCT     C288078   8.163   4.848   3.630 -0.1514  0.0325  0.2105
44040OCT     C188079   8.670  22.337   7.996  0.0644  0.1256  0.0495
44040OCT     C288080   8.559  22.120   8.354  0.1907  0.0324  0.2312
44041OCT     C188081   7.214  22.467   0.763  0.0127 -0.1846  0.1430
44041OCT     C288082   7.373  22.303   1.136  0.1186  0.2145 -0.1022
44042OCT     C188083  18.104  17.938  21.448  0.0767 -0.4562 -0.1059
44042OCT     C288084  17.682  18.089  21.233 -0.1580  0.0888  0.0701
44043OCT     C188085   3.344  15.161   2.131 -0.0787 -0.0940  0.0977
44043OCT     C288086   3.216  14.766   2.322  0.1919 -0.0955  0.2842
44044OCT     C188087  17.360   0.762   1.149 -0.2960 -0.0488 -0.3024
44044OCT     C288088  17.137   0.377   1.107  0.2382 -0.2473  0.1462
44045OCT     C188089   2.409   7.723   1.913 -0.2300 -0.0502  0.0205
44045OCT     C288090   2.809   7.430   1.997 -0.1941 -0.0057 -0.1023
44046OCT     C188091   6.308  17.920  16.204  0.2119 -0.0956 -0.0849
44046OCT     C288092   5.870  18.036  16.004  0.0914  0.2241  0.2047
44047OCT     C188093   4.912   9.198   4.421 -0.1252 -0.1189 -0.0800
44047OCT     C288094   5.319   9.428   4.318  0.0936  0.0377 -0.2117
44048OCT     C188095  15.676   1.388   9.970  0.3150 -0.1475 -0.1093
44048OCT     C288096  15.671   0.970   9.740 -0.0649  0.2668 -0.1095
44049OCT     C188097   6.492   7.630   1.197  0.1501 -0.0091 -0.1528
44049OCT     C288098   6.949   7.503   1.180  0.3643  0.1060  0.0080
44050OCT     C188099  13.086  15.612   6.885  0.1553  0.1865  0.3324
44050OCT     C288100  13.573  15.675   6.867 -0.0081 -0.2806 -0.1147
44051OCT     C188101  15.848   2.104  16.981  0.0804  0.1954 -0.0991
44051OCT     C288102  15.843   2.522  16.932 -0.2621 -0.1258  0.1907
44052OCT     C188103   6.023   0.239   0.152 -0.0849  0.0568  0.1737
44052OCT     C288104   6.385   0.150   0.421  0.3171 -0.0787 -0.0296
44053OCT     C188105  16.534   8.948   0.163 -0.0998  0.3101 -0.2207
44053OCT     C288106  16.602   9.255  23.637 -0.0647  0.1436  0.0639
44054OCT     C188107  20.817  11.789  15.336 -0.3103 -0.1181 -0.2234
44054OCT     C288108  20.905  12.249  15.315 -0.2778  0.0140 -0.1824
44055OCT     C188109   9.097   2.370   9.408  0.2324 -0.2616 -0.0845
44055OCT     C288110   8.803   2.035   9.298 -0.3038  0.0324  0.1858
44056OCT     C188111  18.423  14.015  11.960  0.1580 -0.0076 -0.1056
44056OCT     C288112  18.271  14.187  12.391  0.0980  0.3653  0.0813
44057OCT     C188113  19.881   3.789  10.221  0.0309  0.0838  0.0096
44057OCT     C288114  19.563   4.109  10.234  0.0463 -0.0167  0.0460
44058OCT     C188115   8.648  18.289  10.962  0.2534  0.0979  0.2871
44058OCT     C288116   8.242  18.074  11.004 -0.0686 -0.3051 -0.0642
44059OCT     C188117  15.602  22.444  22.736 -0.0950  0.1792 -0.2807
44059OCT     C288118  15.236  22.629  22.571 -0.0238 -0.2635 -0.0142
44060OCT     C188119  21.343   6.832  14.921 -0.1925  0.0417  0.2862
44060OCT     C288120  21.239   6.692  14.500 -0.1330 -0.1126  0.2919
44061OCT     C188121  15.579   6.434  14.824 -0.0193 -0.0988  0.1844
44061OCT     C288122  15.477   6.821  14.519  0.1352 -0.2857 -0.0207
44062OCT     C188123  21.981  11.802  14.503  0.0670  0.5123  0.3074
44062OCT     C288124  22.328  12.080  14.383 -0.1939  0.0840  0.0989
44063OCT     C188125  16.542  14.416  20.025 -0.0176  0.0793  0.2191
44063OCT     C288126  16.499  14.061  20.308  0.0186 -0.0255  0.1960
44064OCT     C188127   1.437  16.010   2.003  0.1584 -0.2367 -0.2297
44064OCT     C288128   1.451  15.785   2.405 -0.2718  0.0287  0.1910
44065OCT     C188129  23.385   2.826  13.098  0.0507  0.3957  0.1744
44065OCT     C288130  23.045   2.761  12.807 -0.0682 -0.2655 -0.0899
44066OCT     C188131  20.126  19.294   0.818  0.2700  0.3633  0.2752
44066OCT     C288132  20.216  19.717   0.856 -0.3023 -0.1720 -0.2612
44067OCT     C188133   1.474   7.519   4.779 -0.0907 -0.4775 -0.1169
44067OCT     C288134   1.829   7.547   5.091  0.0831 -0.3178 -0.1995
44068OCT     C188135   9.133  18.395  15.405  0.0176 -0.1880 -0.1563
44068OCT     C288136   9.202  18.842  15.357  0.2846  0.0165 -0.1031
44069OCT     C188137  10.516   7.810   0.591 -0.0345  0.1984  0.0626
44069OCT     C288138  10.411   8.229   0.702  0.1639  0.1060 -0.0432
44070OCT     C188139   5.149  18.909  16.477  0.1554 -0.0836  0.0964
44070OCT     C288140   5.237  18.404  16.512  0.1401 -0.0967  0.0885
44071OCT     C188141  22.198   5.035   6.732 -0.3838 -0.3664 -0.1526
44071OCT     C288142  21.884   5.304   6.995  0.2060 -0.0469 -0.0080
44072OCT     C188143   5.092  20.867  17.823 -0.1752  0.0098  0.2314
44072OCT     C288144   5.188  21.301  17.740  0.0208  0.0282  0.0753
44073OCT     C188145  11.846  14.120   2.143 -0.5498  0.2901 -0.0582
44073OCT     C288146  11.674  14.322   1.774  0.0308  0.1334  0.2545
44074OCT     C188147  15.583   5.902  19.155 -0.0947  0.1709 -0.1665
44074OCT     C288148  16.004   5.630  19.089 -0.3510 -0.3407 -0.2656
44075OCT     C188149  23.302  13.806   4.219  0.1484 -0.0123 -0.0080
44075OCT     C288150  23.136  14.014   3.876 -0.2511  0.2775  0.0865
44076OCT     C188151   8.570  18.950   5.815 -0.1152  0.2827 -0.2667
44076OCT     C288152   8.427  18.535   5.665  0.0456  0.0159 -0.1305
44077OCT     C188153  12.007  11.336  17.488 -0.0716  0.0517 -0.2366
44077OCT     C288154  12.156  10.893  17.597 -0.3454 -0.2444  0.0786
44078OCT     C188155  10.802  18.690   7.384 -0.1650  0.0270 -0.5719
44078OCT     C288156  10.915  19.146   7.264  0.2198 -0.0530 -0.0934
44079OCT     C188157   0.632  10.391  14.353  0.0297  0.1443 -0.4450
44079OCT     C288158   0.761  10.221  13.924  0.2175  0.0610 -0.0082
44080OCT     C188159   2.583  10.671   2.674  0.3315 -0.2695 -0.0827
44080OCT     C288160   2.752  11.022   2.484 -0.1990  0.0363 -0.1201
44081OCT     C188161  23.347  19.994   7.414 -0.1618 -0.0051  0.1223
44081OCT     C288162  23.536  20.339   7.653 -0.0685  0.0140 -0.1244
44082OCT     C188163  19.405  13.769   9.104  0.0799  0.3720 -0.0658
44082OCT     C288164  19.123  14.050   8.838 -0.3591 -0.3066 -0.2266
44083OCT     C188165  14.350   8.985  10.392  0.2191  0.1504 -0.2043
44083OCT     C288166  14.260   9.379  10.581  0.0324  0.0481  0.0923
44084OCT     C188167   9.445  15.692   4.118  0.4200  0.3862 -0.0795
44084OCT     C288168   9.814  15.977   4.079 -0.3087  0.3423 -0.0199
44085OCT     C188169  13.042  15.301   2.754 -0.0860  0.2536 -0.1748
44085OCT     C288170  13.497  15.418   2.823  0.1734 -0.2509  0.0195
44086OCT     C188171  23.611   6.126  12.891  0.0108  0.1248  0.0678
44086OCT     C288172  23.690   5.968  13.308 -0.1084 -0.1431 -0.2243
44087OCT     C188173   7.295   7.277  21.887  0.1084  0.0334  0.0539
44087OCT     C288174   7.646   6.962  21.619  0.2034  0.3098  0.3821
44088OCT     C188175  13.668   5.687   0.606  0.1476  0.1082  0.3999
44088OCT     C288176  13.781   5.456   0.217 -0.1374 -0.0221 -0.1534
44089OCT     C188177  16.752   7.458  16.189 -0.2509  0.1083  0.0262
44089OCT     C288178  16.776   7.439  15.740 -0.0301 -0.0279  0.0347
44090OCT     C188179   0.537  10.921  20.805 -0.1845 -0.2301  0.3086
44090OCT     C288180   0.207  10.776  20.594 -0.0533  0.3526  0.0441
44091OCT     C188181   4.938  10.454  16.950  0.0456  0.0504 -0.4755
44091OCT     C288182   5.106  10.336  16.559  0.1408 -0.1002 -0.0917
44092OCT     C188183   8.087  22.430  12.606  0.1473 -0.0260 -0.3180
44092OCT     C288184   7.998  22.217  12.999 -0.0400 -0.1142  0.1897
44093OCT     C188185  17.089  12.209   1.779  0.1622 -0.2098  0.1864
44093OCT     C288186  17.250  12.424   1.411 -0.2574 -0.0519  0.0497
44094OCT     C188187  22.914   4.911   8.045 -0.4181 -0.3685 -0.1307
44094OCT     C288188  23.084   4.612   7.749  0.3085  0.0562 -0.0946
44095OCT     C188189  18.402  23.536   1.143 -0.0945 -0.1658 -0.0018
44095OCT     C288190  18.778   0.087   1.171 -0.2130 -0.3921  0.1154
44096OCT     C188191  21.842  19.578  18.372 -0.0051  0.1617  0.0648
44096OCT     C288192  22.100  19.345  18.091  0.0698 -0.2659  0.2722
44097OCT     C188193  22.320   4.524   1.974 -0.0718 -0.0152 -0.1175
44097OCT     C288194  22.299   4.648   2.427 -0.0953  0.0337  0.1237
44098OCT     C188195   3.318   3.949   3.253  0.2227 -0.2705  0.1525
44098OCT     C288196   3.018   3.691   3.604 -0.2903  0.4273 -0.2873
44099OCT     C188197  18.204  12.523  19.366  0.2424 -0.0085 -0.1903
44099OCT     C288198  18.161  12.967  19.169 -0.1514 -0.0827 -0.3115
44100OCT     C188199   1.109  23.316  11.430 -0.1350 -0.0695  0.0720
44100OCT     C288200   0.986  23.032  11.049  0.2702  0.1817 -0.0229
44101OCT     C188201  20.383   2.994  10.289  0.3415  0.1618 -0.3477
44101OCT     C288202  20.777   2.806  10.506 -0.3596  0.2354  0.2936
44102OCT     C188203  11.741  22.363  22.160  0.0910  0.1218  0.2168
44102OCT     C288204  11.692  22.691  22.517  0.0228 -0.4710  0.0073
44103OCT     C188205  17.812  15.927   6.110  0.4027  0.2518 -0.3837
44103OCT     C288206  18.117  16.137   6.380 -0.0895 -0.0513  0.0931
44104OCT     C188207  12.503  10.118   6.292 -0.2084 -0.2793  0.2172
44104OCT     C288208  12.270  10.544   6.298  0.2192 -0.0485  0.0079
44105OCT     C188209  15.606  10.388  18.490  0.0248  0.2518 -0.0620
44105OCT     C288210  15.879  10.667  18.212 -0.1049  0.1621 -0.1356
44106OCT     C188211  19.910  18.238  19.594 -0.0806  0.0562 -0.3153
44106OCT     C288212  19.876  18.335  19.126 -0.3921 -0.0422 -0.0043
44107OCT     C188213   8.977  18.127  19.302  0.2864 -0.4925  0.4553
44107OCT     C288214   9.420  18.053  19.129  0.1727 -0.1427 -0.1151
44108OCT     C188215  16.893  12.779   0.996 -0.0307 -0.0689 -0.3412
44108OCT     C288216  16.625  12.384   0.983 -0.0082  0.0656 -0.3358
44109OCT     C188217  23.082  13.014  17.357 -0.3485  0.2074  0.0920
44109OCT     C288218  23.028  12.643  17.028 -0.1595 -0.4382  0.2798
44110OCT     C188219   9.585  18.485   4.536  0.2851 -0.0793  0.1639
44110OCT     C288220   9.778  18.345   4.122  0.1390  0.0931  0.1955
44111OCT     C188221  10.872   8.119   0.991 -0.1651 -0.1299  0.1532
44111OCT     C288222  10.932   7.690   0.850 -0.1349 -0.1670 -0.1767
44112OCT     C188223  15.738   7.486  19.468  0.0177  0.0732  0.2175
44112OCT     C288224  15.808   7.025  19.411  0.4924  0.1986 -0.2602
44113OCT     C188225   3.234   3.550   1.489 -0.0395 -0.2238  0.2181
44113OCT     C288226   3.287   3.724   1.868 -0.0206  0.0927  0.0805
44114OCT     C188227  22.626  19.508  17.176 -0.1059 -0.1628 -0.0313
44114OCT     C288228  22.821  19.412  17.579 -0.0726  0.0842 -0.0921
44115OCT     C188229  19.171   8.017  16.003 -0.3483  0.0815 -0.0478
44115OCT     C288230  18.933   7.662  15.842 -0.0717  0.1274 -0.3961
44116OCT     C188231   6.349  18.500   4.705 -0.0791 -0.0504  0.2238
44116OCT     C288232   5.965  18.283   4.992 -0.0249 -0.2019  0.3411
44117OCT     C188233  13.449   6.271   2.294  0.1345  0.1070  0.1660
44117OCT     C288234  13.082   6.018   2.312  0.2508 -0.2979 -0.0932
44118OCT     C188235   4.418  22.426  12.109 -0.1019 -0.2806  0.3509
44118OCT     C288236   4.369  22.790  11.885  0.1198 -0.0754 -0.1027
44119OCT     C188237   0.434   5.143  23.054 -0.1226 -0.0259  0.2896
44119OCT     C288238   0.362   5.430  22.673 -0.0916  0.3121  0.2690
44120OCT     C188239  21.698  12.305   9.283  0.0155  0.0733  0.0236
44120OCT     C288240  21.778  12.775   9.371  0.1895  0.0690 -0.1756
44121OCT     C188241  14.160   7.092  13.148  0.3113  0.1818  0.0698
44121OCT     C288242  13.796   7.350  13.160 -0.1465  0.2341  0.2613
44122OCT     C188243   2.579  19.757   2.685  0.0178  0.1614  0.0327
44122OCT     C288244   2.399  19.354   2.726  0.3503  0.0474  0.0931
44123OCT     C188245   5.209  14.399  18.329 -0.2937 -0.1678 -0.0385
44123OCT     C288246   5.382  14.814  18.165 -0.1079  0.0718  0.1941
44124OCT     C188247  22.537   8.828  11.053  0.1482  0.3817 -0.3788
44124OCT     C288248  22.971   8.789  11.341 -0.1549 -0.0157 -0.1198
44125OCT     C188249   8.150   9.660   9.815  0.1653  0.0287  0.5188
44125OCT     C288250   8.038   9.390   9.411 -0.3833 -0.1194  0.1060
44126OCT     C188251  13.345  16.684   5.645  0.1149 -0.0518 -0.1769
44126OCT     C288252  13.107  16.339   5.395 -0.2130  0.0436 -0.0763
44127OCT     C188253  22.415   4.538  12.000 -0.3941 -0.2523  0.2225
44127OCT     C288254  22.482   4.129  12.171  0.1546  0.2792  0.0152
44128OCT     C188255   4.855   0.922  19.794  0.1014  0.0055 -0.2154
44128OCT     C288256   5.159   1.291  19.837 -0.2690 -0.0796  0.0355
44129OCT     C188257   3.676   3.259   0.299 -0.3034 -0.3055  0.1218
44129OCT     C288258   3.881   3.427   0.721 -0.0807 -0.2046 -0.0460
44130OCT     C188259   4.012  12.588   4.526 -0.4859 -0.1682 -0.0955
44130OCT     C288260   4.425  12.429   4.683 -0.3300  0.3147 -0.0365
44131OCT     C188261  20.955   8.243  17.153 -0.0058  0.0273  0.3700
44131OCT     C288262  20.567   8.332  16.823 -0.3746 -0.0149  0.3622
44132OCT     C188263   0.273  15.227  11.981 -0.0845 -0.2919  0.1011
44132OCT     C288264   0.100  14.943  11.636  0.1476  0.0783  0.3969
44133OCT     C188265   0.511   4.088   2.629 -0.1714  0.1610 -0.0623
44133OCT     C288266   0.882   4.068   2.338 -0.2139  0.0745 -0.3318
44134OCT     C188267  13.649   8.812  17.699  0.0444  0.2728 -0.3282
44134OCT     C288268  13.506   9.221  17.895 -0.5079  0.4895  0.3002
44135OCT     C188269  13.430   8.552  12.931  0.3491 -0.2821  0.0394
44135OCT     C288270  13.134   8.971  12.918  0.2236 -0.0132 -0.0291
44136OCT     C188271  16.092   4.783   8.526  0.2140  0.0696  0.2491
44136OCT     C288272  16.017   4.370   8.316  0.1059 -0.0734  0.0283
44137OCT     C188273   3.575  22.963  12.965 -0.2030  0.0463 -0.1398
44137OCT     C288274   3.760  23.307  13.181  0.1715  0.2502  0.2106
44138OCT     C188275  17.712  13.162  19.724  0.2119  0.3795  0.3000
44138OCT     C288276  17.311  13.089  19.488  0.1241 -0.1975 -0.1891
44139OCT     C188277  18.134  11.525   5.284  0.2194  0.0221 -0.3994
44139OCT     C288278  18.106  11.282   4.888 -0.0990  0.0643  0.2502
44140OCT     C188279  17.459   4.211  22.600  0.0359 -0.0320  0.1884
44140OCT     C288280  17.416   4.303  23.038  0.0668  0.4459  0.1516
44141OCT     C188281  20.549   0.053  10.644 -0.1443  0.2704 -0.0410
44141OCT     C288282  20.973  23.682  10.512  0.1844  0.5125  0.2372
44142OCT     C188283  19.601  13.131  10.903  0.0019  0.0055  0.1687
44142OCT     C288284  19.785  12.862  10.571 -0.1211  0.1673 -0.0787
44143OCT     C188285   7.099  15.793  14.557 -0.3928  0.5547 -0.0211
44143OCT     C288286   6.741  15.780  14.866 -0.2372  0.0336  0.1865
44144OCT     C188287   3.562   5.103  16.804 -0.3594 -0.1651  0.0121
44144OCT     C288288   3.201   4.951  16.912  0.0098 -0.0512 -0.1542
44145OCT     C188289  10.149   3.806  10.718 -0.3308  0.0598  0.2167
44145OCT     C288290  10.026   3.389  10.607  0.3199  0.0588 -0.1011
44146OCT     C188291  18.133   2.269  17.143  0.1697 -0.2635 -0.1075
44146OCT     C288292  17.838   2.035  17.456 -0.3669 -0.0702  0.1507
44147OCT     C188293  11.584  14.975  12.826  0.2006  0.3295  0.0863
44147OCT     C288294  11.619  15.074  12.346 -0.2734  0.1407  0.2411
44148OCT     C188295  16.845  22.898  22.658  0.1911  0.2557  0.0409
44148OCT     C288296  17.101  23.199  22.361 -0.3493  0.1260  0.0386
44149OCT     C188297  12.176  15.077  20.208  0.3043 -0.1891 -0.2392
44149OCT     C288298  12.135  14.617  20.170 -0.3358 -0.1595 -0.1776
44150OCT     C188299   0.300  11.704   4.982 -0.0250  0.0434 -0.2170
44150OCT     C288300  23.604  11.498   4.981 -0.0523 -0.2066 -0.0485
44151OCT     C188301  12.734   1.788   5.270  0.1006  0.0013  0.1973
44151OCT     C288302  12.689   2.238   5.349 -0.0106 -0.3063  0.0341
44152OCT     C188303  16.901  11.058   0.370 -0.1426  0.2370  0.2298
44152OCT     C288304  16.729  11.433   0.148 -0.1673 -0.4362 -0.3785
44153OCT     C188305  15.141  17.254  13.648 -0.1856  0.2932 -0.1955
44153OCT     C288306  15.066  17.197  13.171  0.1725  0.1311 -0.0080
44154OCT     C188307  13.906   9.110  18.263  0.0421  0.0898 -0.2160
44154OCT     C288308  13.818   9.093  18.763 -0.0351  0.0706  0.1904
44155OCT     C188309  18.958   6.977  20.151 -0.1059  0.1901  0.1305
44155OCT     C288310  19.202   6.994  19.763  0.1559  0.0550  0.1815
44156OCT     C188311   0.403   5.379  21.518  0.2088 -0.1383 -0.1143
44156OCT     C288312   0.751   5.297  21.239 -0.2556 -0.3055  0.4477
44157OCT     C188313  21.943  17.948  14.052  0.0706 -0.2210 -0.0532
44157OCT     C288314  22.317  18.174  13.946 -0.0589 -0.4373  0.0336
44158OCT     C188315   7.658  15.236  21.119  0.1919 -0.1612  0.2882
44158OCT     C288316   8.051  15.327  21.385 -0.1741  0.0330  0.0482
44159OCT     C188317  20.768  21.881  18.256  0.1848 -0.0266 -0.5573
44159OCT     C288318  20.422  21.560  18.444 -0.0581 -0.1920  0.2568
44160OCT     C188319  23.720  15.688   5.012 -0.0197 -0.0003  0.2130
44160OCT     C288320  23.661  16.082   4.853  0.3714 -0.2719 -0.4434
44161OCT     C188321   6.443  21.495  23.728 -0.1229  0.2447 -0.2341
44161OCT     C288322   6.610  21.628   0.362  0.1850 -0.1521 -0.1589
44162OCT     C188323  14.976  11.246  19.619 -0.2188 -0.1854  0.2864
44162OCT     C288324  14.569  11.088  19.814  0.1384  0.1058  0.0698
44163OCT     C188325   9.914  20.614   0.961  0.0672  0.0684  0.1423
44163OCT     C288326   9.633  20.325   0.691  0.0192 -0.0746 -0.0619
44164OCT     C188327  22.924   8.086   0.805 -0.0445 -0.1011  0.0053
44164OCT     C288328  23.309   7.816   0.903  0.3335 -0.1466  0.1317
44165OCT     C188329   5.391   8.246   9.318  0.4849 -0.0814 -0.3468
44165OCT     C288330   5.281   8.146   8.850  0.0669 -0.0315 -0.1086
44166OCT     C188331   0.378   9.920  16.696 -0.3946 -0.1526 -0.2851
44166OCT     C288332   0.823   9.829  16.745 -0.2140  0.3402  0.0802
44167OCT     C188333   1.223  21.025  12.612 -0.1513  0.0335 -0.0860
44167OCT     C288334   1.475  21.132  13.003  0.2029 -0.2002  0.1399
44168OCT     C188335  20.337  21.872  17.819  0.0792  0.3177 -0.1543
44168OCT     C288336  20.401  21.863  17.293  0.0908 -0.0674  0.0950
44169OCT     C188337   0.443  21.172   8.885 -0.0860  0.4215  0.2769
44169OCT     C288338   0.869  21.242   8.618 -0.0720  0.2030  0.2426
44170OCT     C188339   2.795  22.026   9.619  0.2816  0.0913  0.2655
44170OCT     C288340   2.773  22.232  10.036 -0.1142  0.1826  0.1560
44171OCT     C188341  13.414   2.105  17.451  0.3248 -0.1160 -0.0074
44171OCT     C288342  13.877   2.164  17.283 -0.1797 -0.4413  0.2997
44172OCT     C188343  18.188  12.672   2.399 -0.0620  0.0596  0.0091
44172OCT     C288344  18.026  13.049   2.571 -0.0710 -0.2166  0.0868
44173OCT     C188345  15.427  16.711   5.567  0.1570 -0.1655 -0.0193
44173OCT     C288346  15.584  16.549   5.933 -0.4407  0.1402 -0.1281
44174OCT     C188347  19.823   5.802  14.694  0.1609  0.3218  0.4426
44174OCT     C288348  19.696   5.859  15.138  0.3687  0.2850  0.0304
44175OCT     C188349  10.813  14.590   1.124 -0.4809 -0.3306  0.0217
44175OCT     C288350  10.394  14.737   1.008  0.0814  0.0899 -0.1260
44176OCT     C188351   8.499  10.664   1.165  0.4001 -0.0640 -0.2073
44176OCT     C288352   8.456  11.017   1.475  0.1633  0.0212 -0.2486
44177OCT     C188353  18.073   9.115   1.522 -0.1260  0.0189  0.1122
44177OCT     C288354  17.732   9.248   1.757 -0.2092 -0.0207 -0.1250
44178OCT     C188355  10.757  17.656   7.440  0.4854  0.3037  0.0603
44178OCT     C288356  10.580  18.091   7.363  0.2481  0.1310  0.0020
44179OCT     C188357   7.985  21.109  16.265 -0.0284 -0.1849  0.1974
44179OCT     C288358   7.714  20.840  16.019 -0.0696 -0.2576 -0.2078
44180OCT     C188359  22.423  13.754  19.511 -0.0944 -0.1235  0.2667
44180OCT     C288360  22.478  14.111  19.827  0.1408  0.1097 -0.1108
44181OCT     C188361  17.793   5.387   6.956  0.2748  0.0848 -0.0096
44181OCT     C288362  17.611   5.526   6.578 -0.0349 -0.1273 -0.1525
44182OCT     C188363   6.691   0.999  19.104 -0.1054 -0.0788  0.1553
44182OCT     C288364   6.271   0.805  18.976  0.0013 -0.3168  0.0996
44183OCT     C188365   0.929  23.452   2.835 -0.3443  0.2769 -0.2457
44183OCT     C288366   1.346  23.244   2.966  0.0820 -0.1792  0.2742
44184OCT     C188367   7.322  12.483  21.244  0.2254  0.0298 -0.0711
44184OCT     C288368   7.717  12.588  21.505  0.0436 -0.2206 -0.3926
44185OCT     C188369  16.509  10.153  20.894 -0.0777  0.0341 -0.3569
44185OCT     C288370  16.119  10.327  21.071  0.0060  0.3045  0.3242
44186OCT     C188371  19.589  12.371   1.561 -0.3965  0.2722  0.2309
44186OCT     C288372  19.139  12.425   1.689  0.2413 -0.2029 -0.2033
44187OCT     C188373  11.365   4.732   2.580  0.2203  0.4570  0.1206
44187OCT     C288374  11.419   4.370   2.226 -0.1959 -0.2938 -0.2776
44188OCT     C188375   3.227  20.978   7.628 -0.1337 -0.0804  0.2431
44188OCT     C288376   3.330  21.093   8.068 -0.4303 -0.4915 -0.2252
44189OCT     C188377   9.435  22.657  13.873 -0.1153  0.4388 -0.0282
44189OCT     C288378   9.058  22.519  13.652 -0.0875 -0.1755 -0.1579
44190OCT     C188379   9.894  19.821  20.256  0.0506 -0.0967  0.1175
44190OCT     C288380   9.766  19.411  20.040 -0.3493 -0.1947  0.3801
44191OCT     C188381  18.126  18.114  21.909  0.0861  0.0190 -0.2223
44191OCT     C288382  18.157  17.625  22.004 -0.3330 -0.3114  0.0297
44192OCT     C188383  22.584  16.563  15.389  0.0995  0.0806 -0.0141
44192OCT     C288384  22.158  16.711  15.532 -0.2868 -0.0759 -0.1354
44193OCT     C188385  13.330  17.603  18.209 -0.2246 -0.3405  0.2014
44193OCT     C288386  13.188  17.467  17.781  0.1711 -0.2424  0.1862
44194OCT     C188387   5.489   7.104  13.357  0.0556 -0.2194  0.4047
44194OCT     C288388   5.255   7.057  13.758  0.1148 -0.0640 -0.2280
44195OCT     C188389  10.808  22.619   9.059 -0.0769  0.0709 -0.1394
44195OCT     C288390  10.965  22.567   8.614  0.1535 -0.1979  0.3116
44196OCT     C188391  18.387  18.873   7.645  0.1386 -0.1044  0.3365
44196OCT     C288392  18.746  18.581   7.625  0.1756  0.0269 -0.1043
44197OCT     C188393   1.823  23.112  15.318 -0.0025 -0.3360 -0.0743
44197OCT     C288394   2.249  23.219  15.360 -0.1951  0.1053 -0.0759
44198OCT     C188395  16.636   5.220  10.851  0.0054 -0.0766  0.0796
44198OCT     C288396  16.440   5.372  10.533  0.1701  0.0800  0.1627
44199OCT     C188397   0.016   9.569   0.450 -0.0713  0.0083  0.0494
44199OCT     C288398   0.243   9.215   0.591 -0.0157  0.1899  0.0749
44200OCT     C188399  14.108   2.209  16.844  0.0376  0.3552  0.1773
44200OCT     C288400  14.121   1.763  16.703  0.2135 -0.0757  0.1667
44201OCT     C188401  14.057  18.858  11.606 -0.0082  0.0274 -0.0183
44201OCT     C288402  13.850  18.497  11.894 -0.0516 -0.0438 -0.4390
44202OCT     C188403  20.647  18.514   7.180 -0.1810 -0.1537 -0.0905
44202OCT     C288404  20.685  18.961   7.299  0.5699 -0.1828  0.0971
44203OCT     C188405   4.015   4.544  20.073  0.1346 -0.3075 -0.1821
44203OCT     C288406   3.957   4.554  19.560  0.2664 -0.0469 -0.1190
44204OCT     C188407   7.887   6.649   3.833  0.1980  0.2739  0.1295
44204OCT     C288408   8.085   6.785   3.402  0.1761 -0.2156  0.1496
44205OCT     C188409  17.620   4.819   1.952 -0.3453  0.2481 -0.0677
44205OCT     C288410  17.720   5.258   1.808 -0.2131  0.0763 -0.0646
44206OCT     C188411   2.339   1.321   2.449  0.0814 -0.4814 -0.2095
44206OCT     C288412   2.788   1.112   2.348 -0.1129 -0.2497 -0.1568
44207OCT     C188413   7.156  10.718  20.651 -0.0535  0.3363  0.2182
44207OCT     C288414   7.007  11.116  20.708  0.2828  0.0343 -0.1022
44208OCT     C188415  14.363  20.842  21.333 -0.4016 -0.1936 -0.3478
44208OCT     C288416  14.338  20.741  20.883 -0.4389  0.1350  0.0340
44209OCT     C188417  18.164   3.035   3.526 -0.1893 -0.0488 -0.3538
44209OCT     C288418  18.582   3.019   3.717  0.1273  0.1587 -0.1224
44210OCT     C188419   3.570  20.245  16.591 -0.0482  0.2511  0.0318
44210OCT     C288420   3.995  20.373  16.505 -0.1063  0.2798  0.1314
44211OCT     C188421   2.083  12.318  14.225 -0.2218 -0.2955 -0.3128
44211OCT     C288422   2.510  12.417  14.131  0.1028 -0.0604 -0.1152
44212OCT     C188423  20.607  11.044  20.081 -0.4469  0.0368 -0.1526
44212OCT     C288424  20.640  10.702  20.339  0.0463 -0.2421 -0.3270
44213OCT     C188425   4.673   2.119  11.886  0.1285  0.0083 -0.1662
44213OCT     C288426   4.295   2.369  11.802 -0.0781 -0.2618 -0.1791
44214OCT     C188427  17.419   7.096  13.786  0.0369 -0.1457  0.0912
44214OCT     C288428  17.206   6.738  13.487  0.3507 -0.2316 -0.0819
44215OCT     C188429  11.185  16.662  22.242  0.0502  0.1234  0.0755
44215OCT     C288430  11.377  16.677  22.656  0.2126 -0.0545  0.4739
44216OCT     C188431  17.263   6.109  15.797  0.1281  0.1121  0.0305
44216OCT     C288432  17.510   5.772  15.909 -0.0689 -0.2095  0.1758
44217OCT     C188433   2.163  20.903  18.890 -0.0754  0.0237  0.1613
44217OCT     C288434   2.453  21.053  18.589 -0.0045  0.0043 -0.5527
44218OCT     C188435  20.396   6.411  17.233 -0.2676  0.1256 -0.0638
44218OCT     C288436  20.640   6.179  16.879  0.1071 -0.1060  0.2712
44219OCT     C188437  19.023  19.127  18.766  0.1333  0.0915 -0.0797
44219OCT     C288438  19.367  19.165  18.387 -0.0288 -0.2531 -0.1778
44220OCT     C188439  18.711   2.098  19.997 -0.5091 -0.1054  0.0303
44220OCT     C288440  18.985   2.411  20.274 -0.0462 -0.2939 -0.2991
44221OCT     C188441  14.245   2.829  12.396 -0.0930  0.1005 -0.1342
44221OCT     C288442  14.292   3.290  12.441 -0.2023 -0.1740  0.2726
44222OCT     C188443  17.203  19.926  13.742 -0.2474  0.2337  0.1347
44222OCT     C288444  17.466  19.676  13.477  0.1186  0.0958  0.0128
44223OCT     C188445   1.904   9.441   4.513  0.0537  0.1864 -0.0828
44223OCT     C288446   1.588   9.320   4.810 -0.1773 -0.0266  0.1180
44224OCT     C188447  14.410   2.653   1.060 -0.2268  0.0944 -0.0913
44224OCT     C288448  14.364   2.999   0.753 -0.3258 -0.0620  0.1542
44225OCT     C188449  21.000   4.803  13.701 -0.0152 -0.4741  0.1220
44225OCT     C288450  21.083   4.504  13.295  0.0148  0.0926 -0.1395
44226OCT     C188451  13.403  11.459  11.305  0.1406  0.0166  0.0646
44226OCT     C288452  13.728  11.405  10.912 -0.1092  0.0086 -0.2158
44227OCT     C188453   5.834  11.239  13.164 -0.2617  0.1682 -0.1280
44227OCT     C288454   5.983  11.239  12.774 -0.2620 -0.4460  0.0687
44228OCT     C188455   3.721  12.748   0.503 -0.3513 -0.3029  0.1156
44228OCT     C288456   3.305  13.006   0.375  0.1205 -0.2863  0.0117
44229OCT     C188457  12.655   6.090  10.601 -0.2848 -0.0673 -0.0540
44229OCT     C288458  12.542   6.515  10.442  0.5020 -0.1951  0.0860
44230OCT     C188459   6.115  20.966  15.426  0.2213 -0.2980  0.0521
44230OCT     C288460   6.123  21.012  15.950 -0.2611  0.1185 -0.1846
44231OCT     C188461  13.532   3.456   0.532  0.6420 -0.2570  0.1791
44231OCT     C288462  13.768   3.325   0.151  0.1860 -0.0724  0.0653
44232OCT     C188463   9.545  10.876   7.850 -0.1748 -0.4299 -0.0055
44232OCT     C288464   9.252  10.682   8.154 -0.1277  0.2184 -0.1930
44233OCT     C188465   2.386  20.519   3.841 -0.4572  0.2370 -0.0708
44233OCT     C288466   2.330  20.285   4.255 -0.2636 -0.1139 -0.0437
44234OCT     C188467   1.061  22.087   4.523 -0.2319 -0.2973  0.1905
44234OCT     C288468   1.497  22.286   4.604  0.2679 -0.1318 -0.1819
44235OCT     C188469  19.955   9.196   2.709 -0.0920  0.1920 -0.3610
44235OCT     C288470  20.300   9.434   2.535  0.0786  0.0830  0.0696
44236OCT     C188471   1.762   9.061  23.250  0.0403  0.2764 -0.0006
44236OCT     C288472   1.635   9.495  23.150  0.1847 -0.2018 -0.0278
44237OCT     C188473  19.727   9.993  13.395 -0.0875 -0.1634  0.2770
44237OCT     C288474  19.914   9.607  13.536  0.1918  0.0385 -0.0057
44238OCT     C188475   2.987  12.256  14.071  0.1529 -0.1413  0.1872
44238OCT     C288476   3.193  12.675  13.867 -0.3588  0.4504 -0.0040
44239OCT     C188477  11.920   7.078  21.513  0.0862  0.3524  0.1255
44239OCT     C288478  11.507   6.834  21.489  0.0760  0.2074 -0.2281
44240OCT     C188479  16.279  22.329  21.400  0.1182 -0.1591  0.1239
44240OCT     C288480  16.155  22.741  21.163  0.3979  0.4535 -0.0331
44241OCT     C188481   5.002  12.623  16.962  0.0414  0.1309 -0.3453
44241OCT     C288482   5.386  12.838  17.026 -0.1428 -0.0601 -0.1189
44242OCT     C188483   7.162  14.353   2.443 -0.0634  0.2682 -0.0521
44242OCT     C288484   7.209  13.889   2.420  0.1782 -0.0657 -0.0921
44243OCT     C188485  15.850   5.569   5.047 -0.1671 -0.3080 -0.1764
44243OCT     C288486  15.782   5.966   5.328  0.0693  0.1789 -0.2565
44244OCT     C188487   1.215  21.822  22.789 -0.2635 -0.4025 -0.2377
44244OCT     C288488   1.143  21.715  23.281  0.0023  0.0459  0.0547
44245OCT     C188489   0.745  14.652   7.736  0.2924 -0.0038 -0.1568
44245OCT     C288490   0.706  14.964   8.066  0.2207  0.1375  0.0212
44246OCT     C188491   9.770   7.158   1.646 -0.2546 -0.1697 -0.1621
44246OCT     C288492  10.146   7.097   1.947 -0.1109  0.0776 -0.1552
44247OCT     C188493   1.453  14.620  19.547  0.1494 -0.2379 -0.1934
44247OCT     C288494   1.848  14.421  19.374 -0.3242 -0.0372  0.0938
44248OCT     C188495  16.271   4.795   2.574  0.2900  0.3489 -0.3882
44248OCT     C288496  16.103   4.613   2.984  0.1635 -0.0284 -0.1276
44249OCT     C188497   6.891  10.630  19.712  0.0128 -0.0951 -0.0325
44249OCT     C288498   6.996  10.373  19.371 -0.1754  0.2189  0.2494
44250OCT     C188499   2.174   1.315  20.584 -0.1362  0.4659  0.4750
44250OCT     C288500   2.049   1.454  20.172 -0.0629 -0.1668 -0.1654
44251OCT     C188501   2.664   9.192   2.996  0.1688  0.0598 -0.1302
44251OCT     C288502   2.989   9.425   2.774 -0.1419 -0.4394  0.1682
44252OCT     C188503   8.571   6.890  15.052 -0.3224  0.2539 -0.3580
44252OCT     C288504   8.473   6.467  14.936  0.0837 -0.1677  0.3874
44253OCT     C188505   3.223  15.334   7.413  0.0014 -0.1111  0.0893
44253OCT     C288506   3.247  15.381   7.904  0.0003 -0.4062 -0.1785
44254OCT     C188507  17.361  16.803  11.111 -0.3512 -0.0629  0.3802
44254OCT     C288508  17.004  16.560  10.896  0.1115 -0.0972  0.1522
44255OCT     C188509   7.201  15.057   7.169  0.2867 -0.2047  0.1292
44255OCT     C288510   7.191  15.495   7.272 -0.3152 -0.2208 -0.3074
44256OCT     C188511   7.010  14.536   7.171 -0.1448 -0.0228 -0.0450
44256OCT     C288512   6.897  14.779   6.809 -0.7760 -0.3599 -0.0710
44257OCT     C188513   0.567  16.752   4.802 -0.3347 -0.2376  0.0661
44257OCT     C288514   0.334  16.363   4.905  0.1319 -0.0304  0.0020
44258OCT     C188515   4.785  11.785  12.383 -0.1880  0.0107 -0.0871
44258OCT     C288516   4.416  11.919  12.692  0.0382 -0.2394 -0.1168
44259OCT     C188517  19.001  12.996   9.332 -0.3786  0.0270 -0.1950
44259OCT     C288518  18.542  12.952   9.502 -0.1684 -0.2806  0.1950
44260OCT     C188519  20.499   4.949   5.406 -0.1709  0.0891 -0.1459
44260OCT     C288520  20.155   4.773   5.212  0.0140 -0.0335  0.0263
44261OCT     C188521  23.431  14.356  10.907  0.1193  0.0083  0.0156
44261OCT     C288522  23.691  14.008  10.719  0.0493  0.0151 -0.0859
44262OCT     C188523   0.236   2.333   8.193  0.2275 -0.1274  0.0455
44262OCT     C288524  23.533   2.305   8.089 -0.1062  0.0728  0.0195
44263OCT     C188525  16.033  13.119  14.174 -0.0421 -0.0427 -0.0500
44263OCT     C288526  15.806  13.494  14.003  0.1595 -0.0872  0.1697
44264OCT     C188527  15.513  18.297   9.969  0.2625 -0.1019  0.1130
44264OCT     C288528  15.185  18.341   9.628  0.2588  0.2065 -0.0460
44265OCT     C188529   1.235  12.329  11.344  0.0929 -0.2417  0.2322
44265OCT     C288530   1.002  12.618  11.648  0.3097  0.2829 -0.0185
44266OCT     C188531   7.844   2.244  12.048 -0.1292 -0.4845  0.0014
44266OCT     C288532   8.193   2.367  12.339  0.2271 -0.0858  0.1069
44267OCT     C188533  14.369  14.761   1.558  0.1981 -0.1532 -0.1445
44267OCT     C288534  14.162  14.870   1.154  0.4454  0.1325  0.1627
44268OCT     C188535   6.284  20.168  20.560  0.3007 -0.1186 -0.2161
44268OCT     C288536   6.340  20.625  20.709 -0.1416 -0.0965  0.2638
44269OCT     C188537  17.982   8.756   2.597  0.0619  0.1982  0.1798
44269OCT     C288538  17.737   8.543   2.947 -0.0938  0.1504  0.0513
44270OCT     C188539   8.702  20.011   6.625 -0.0782  0.3015  0.3427
44270OCT     C288540   8.467  20.360   6.641  0.0365 -0.1151 -0.0116
44271OCT     C188541  21.942  15.894   7.466  0.3569 -0.2946  0.3106
44271OCT     C288542  21.463  15.962   7.456  0.2090 -0.0301  0.0535
44272OCT     C188543   7.459  13.547   8.545  0.2477 -0.0412  0.0814
44272OCT     C288544   7.648  13.510   8.969  0.4668 -0.2557 -0.0112
44273OCT     C188545   9.751  11.536   9.126  0.1396 -0.0004  0.1704
44273OCT     C288546   9.532  11.146   9.334 -0.2209  0.1518 -0.1378
44274OCT     C188547   5.772   8.886  16.448  0.2263 -0.0332 -0.1485
44274OCT     C288548   6.130   8.597  16.658  0.0777 -0.2697  0.1295
44275OCT     C188549  10.212  10.689  16.626  0.0746 -0.4169  0.0024
44275OCT     C288550   9.933  11.054  16.739 -0.2871 -0.2083 -0.0794
44276OCT     C188551  10.559   0.647  21.831 -0.3310 -0.0810 -0.2049
44276OCT     C288552  10.326   0.506  22.223  0.3848 -0.1074 -0.1490
44277OCT     C188553   6.954   7.665  15.593 -0.1995  0.0680 -0.1557
44277OCT     C288554   7.223   7.837  15.910  0.0607  0.2272  0.1229
44278OCT     C188555   3.943  17.474   2.629  0.4131 -0.0728  0.0249
44278OCT     C288556   4.322  17.608   2.465 -0.2795 -0.2259 -0.1663
44279OCT     C188557   0.273  22.926  15.366  0.0943 -0.0135  0.1750
44279OCT     C288558  23.681  22.804  15.582  0.0605 -0.0135 -0.4017
44280OCT     C188559  10.997  10.997   8.185  0.1249  0.3626  0.1285
44280OCT     C288560  11.330  11.240   7.921 -0.0893  0.3242 -0.1183
44281OCT     C188561  23.645  13.415  11.227  0.1024 -0.0081 -0.1917
44281OCT     C288562   0.330  13.349  11.375 -0.1597 -0.2839  0.0651
44282OCT     C188563  21.825   7.039   2.715 -0.3048  0.2341 -0.0498
44282OCT     C288564  21.867   6.600   2.640 -0.2196  0.0786  0.1611
44283OCT     C188565  20.274   2.716  19.106  0.1128  0.3004 -0.1730
44283OCT     C288566  20.736   2.694  19.033  0.1548  0.0338  0.1902
44284OCT     C188567  15.064   2.404   8.028  0.1222  0.1901 -0.0400
44284OCT     C288568  14.580   2.535   7.893  0.0680  0.1408  0.0017
44285OCT     C188569  20.045  22.865   7.311  0.2495  0.0710 -0.1350
44285OCT     C288570  19.750  23.167   7.112  0.3184 -0.0888  0.3339
44286OCT     C188571  14.718   4.164  13.191  0.1446 -0.0028 -0.3605
44286OCT     C288572  15.063   4.167  12.866 -0.1235  0.1460 -0.1123
44287OCT     C188573  15.090   1.829  22.934 -0.1282  0.2186  0.0838
44287OCT     C288574  15.180   2.285  22.958  0.1139 -0.1972  0.5684
44288OCT     C188575   3.430  16.291   6.681 -0.0454  0.1408  0.2326
44288OCT     C288576   2.996  16.443   6.637  0.3424  0.0575  0.0217
44289OCT     C188577  11.330  19.549  20.144 -0.1729 -0.0036  0.2393
44289OCT     C288578  11.709  19.322  20.328 -0.1158  0.2467  0.1800
44290OCT     C188579   6.737   6.349  13.188 -0.0337  0.1653  0.1870
44290OCT     C288580   6.302   6.414  13.453  0.0168  0.3975 -0.0426
44291OCT     C188581   1.779  22.563  13.112 -0.2422  0.0193 -0.1463
44291OCT     C288582   1.333  22.440  13.285 -0.1182  0.1745  0.0067
44292OCT     C188583  15.442   3.033  10.142 -0.4530  0.0088  0.1827
44292OCT     C288584  15.837   3.245   9.960  0.2663  0.2192  0.0611
44293OCT     C188585  12.344  11.660   8.303  0.5411 -0.1436  0.0740
44293OCT     C288586  12.262  11.438   8.754 -0.3599 -0.1593 -0.2954
44294OCT     C188587  14.151  23.417  22.122 -0.1544  0.2566  0.1629
44294OCT     C288588  14.570  23.369  22.387  0.3023  0.3915 -0.1782
44295OCT     C188589   3.086  18.355   4.627  0.0994  0.0725 -0.1969
44295OCT     C288590   2.777  18.546   4.314 -0.1770 -0.0464  0.1954
44296OCT     C188591   0.202   4.073   9.916  0.2132 -0.0522  0.3761
44296OCT     C288592   0.242   4.159  10.359  0.0782  0.1554  0.0647
44297OCT     C188593  21.783  19.561  16.953  0.0918  0.3776  0.0519
44297OCT     C288594  21.868  19.123  16.994  0.0045  0.0828 -0.5787
44298OCT     C188595  11.971   7.518   2.117 -0.1215 -0.0605 -0.1468
44298OCT     C288596  11.680   7.251   2.380  0.0244  0.3465  0.0582
44299OCT     C188597  21.689   3.017  16.010 -0.1291 -0.4595 -0.2947
44299OCT     C288598  21.960   2.812  15.669 -0.2432 -0.0722 -0.5743
44300OCT     C188599  18.476  21.396  10.298 -0.2683 -0.0968 -0.3207
44300OCT     C288600  17.999  21.439  10.325 -0.4287 -0.1037 -0.1139
44301OCT     C188601  11.782   3.666   3.232 -0.4050 -0.3843  0.3235
44301OCT     C288602  11.452   3.920   3.081  0.1946 -0.1155  0.1130
44302OCT     C188603  13.048  20.458  12.209  0.0785 -0.2568 -0.0111
44302OCT     C288604  12.889  20.000  12.258 -0.1336  0.4123 -0.3898
44303OCT     C188605  15.613  13.960  10.492  0.0350  0.0658 -0.0027
44303OCT     C288606  15.724  14.230  10.167  0.3578  0.1796 -0.0504
44304OCT     C188607   7.814   4.746  18.125 -0.0521 -0.2551 -0.0239
44304OCT     C288608   7.760   5.184  17.923  0.0107 -0.1429  0.1839
44305OCT     C188609   3.537  17.252   2.819  0.2049  0.3533 -0.2993
44305OCT     C288610   3.422  17.274   2.354 -0.2218  0.2669 -0.1495
44306OCT     C188611   3.126  14.104   2.202  0.0593  0.0255 -0.3133
44306OCT     C288612   2.908  14.294   2.591  0.2022  0.0323  0.0426
44307OCT     C188613  12.650  13.451   8.439  0.0022 -0.1439 -0.2644
44307OCT     C288614  12.253  13.472   8.738 -0.2674 -0.1990 -0.0469
44308OCT     C188615   5.284  17.403  17.966 -0.0912  0.0203 -0.1436
44308OCT     C288616   4.901  17.164  17.823  0.4166  0.2477  0.0215
44309OCT     C188617   5.124  17.801  10.075 -0.1202  0.2119 -0.1013
44309OCT     C288618   5.011  18.252   9.865  0.3302  0.2042  0.3397
44310OCT     C188619   3.522   5.455   1.302  0.1524 -0.1246  0.0172
44310OCT     C288620   3.146   5.677   1.126  0.1488 -0.0590 -0.0486
44311OCT     C188621   4.309  23.015  16.015 -0.0560  0.1248 -0.2854
44311OCT     C288622   4.591  22.878  15.672  0.1759 -0.1773 -0.0419
44312OCT     C188623   4.777   6.264  11.103  0.4263  0.2696  0.4492
44312OCT     C288624   5.214   6.111  11.056 -0.2542  0.1022 -0.2331
44313OCT     C188625  11.847  11.214  13.827 -0.0121 -0.0963  0.1811
44313OCT     C288626  12.256  11.426  13.977  0.0800 -0.1955 -0.0498
44314OCT     C188627   8.526   7.974  12.138 -0.1807 -0.2439  0.2941
44314OCT     C288628   8.313   8.338  12.255 -0.3413 -0.1360 -0.0368
44315OCT     C188629   1.575   0.609   2.507 -0.0515 -0.0342 -0.0467
44315OCT     C288630   1.422   0.864   2.113 -0.0449  0.2918  0.2178
44316OCT     C188631   2.102   3.449   3.214 -0.1019 -0.2120  0.0920
44316OCT     C288632   2.332   3.790   3.182  0.1333 -0.2048 -0.0494
44317OCT     C188633  19.280  16.816   0.147  0.1425  0.1589 -0.2226
44317OCT     C288634  19.128  17.246   0.121 -0.0534  0.0843  0.0482
44318OCT     C188635  10.628   9.866   9.988  0.2195 -0.0363  0.3568
44318OCT     C288636  10.476   9.637   9.530 -0.2789 -0.2117  0.0611
44319OCT     C188637   4.433  11.323  13.156 -0.2867 -0.4459  0.1911
44319OCT     C288638   4.053  11.517  13.006 -0.1812  0.2853 -0.2526
44320OCT     C188639  17.844   2.649  16.336  0.1253 -0.1003 -0.0340
44320OCT     C288640  18.059   2.586  15.956  0.0090 -0.3143  0.1467
44321OCT     C188641   9.187  15.611  22.592  0.1880  0.1331 -0.1637
44321OCT     C288642   9.174  15.230  22.207  0.1616 -0.0190  0.0311
44322OCT     C188643   8.823  22.816  11.681 -0.1157 -0.0361  0.2079
44322OCT     C288644   8.406  22.998  11.679  0.0322 -0.1676  0.0171
44323OCT     C188645  21.675  23.118  18.113  0.1282 -0.0625 -0.4927
44323OCT     C288646  22.118  23.073  18.303  0.1860 -0.0020 -0.2205
44324OCT     C188647   3.516  17.827  10.189  0.1621 -0.1152  0.2270
44324OCT     C288648   3.905  17.862  10.350  0.0234  0.4126  0.1520
44325OCT     C188649  12.309  12.820  19.527 -0.1944 -0.0154 -0.1584
44325OCT     C288650  12.220  12.461  19.354  0.0695  0.0321  0.3059
44326OCT     C188651  14.275  12.638  16.694 -0.2278 -0.3433  0.1400
44326OCT     C288652  13.868  12.408  16.692  0.0430 -0.0036  0.0733
44327OCT     C188653  12.709  15.679   9.053  0.0222  0.1596 -0.5560
44327OCT     C288654  12.939  15.531   9.400  0.1085  0.1166 -0.0319
44328OCT     C188655   7.822   9.993   8.791 -0.0327 -0.2800  0.0899
44328OCT     C288656   7.903  10.481   8.755 -0.0837  0.2489 -0.5135
44329OCT     C188657  22.237   6.472  15.243 -0.1748 -0.2815 -0.0996
44329OCT     C288658  22.532   6.095  15.234 -0.0479  0.0483 -0.3751
44330OCT     C188659   9.300   3.591  10.278 -0.3343  0.3348  0.1252
44330OCT     C288660   8.919   3.901  10.115  0.1428  0.1494 -0.1711
44331OCT     C188661  14.088  22.781  14.637 -0.1578 -0.2807 -0.0289
44331OCT     C288662  14.460  22.945  14.454  0.1844 -0.3986 -0.0867
44332OCT     C188663   1.389   2.006   4.101 -0.1149  0.0725 -0.5043
44332OCT     C288664   1.711   2.075   3.831 -0.1624  0.1668  0.0509
44333OCT     C188665  11.019  17.747  19.914 -0.4192 -0.1265 -0.0862
44333OCT     C288666  10.625  17.972  19.795 -0.2315  0.0609  0.0040
44334OCT     C188667   7.490  11.217  19.252 -0.1443 -0.1688  0.0171
44334OCT     C288668   7.271  10.798  19.487 -0.0684  0.1473 -0.2128
44335OCT     C188669  17.933   3.005   2.602  0.0282 -0.0133  0.1062
44335OCT     C288670  17.877   2.599   2.383 -0.2250  0.0655 -0.0450
44336OCT     C188671   0.580  20.185  13.089  0.3696 -0.2105  0.3372
44336OCT     C288672   0.529  20.071  13.505 -0.0218 -0.4663  0.0299
44337OCT     C188673  15.023   7.946  21.287 -0.1146  0.1800 -0.3060
44337OCT     C288674  15.282   7.607  21.539 -0.3935 -0.0524  0.0290
44338OCT     C188675   3.227   8.487   9.389  0.2751 -0.0693  0.3017
44338OCT     C288676   2.820   8.230   9.306 -0.1034  0.0600  0.3886
44339OCT     C188677  15.336  23.514   0.276 -0.2365  0.1602  0.0736
44339OCT     C288678  15.342  23.506   0.779  0.2349  0.1008  0.3890
44340OCT     C188679   0.321  20.876   3.718 -0.0714  0.0504  0.1005
44340OCT     C288680   0.469  20.456   3.718  0.0868  0.1474 -0.4108
44341OCT     C188681  21.359  23.248  19.744 -0.0984  0.1208 -0.0549
44341OCT     C288682  21.678  23.521  19.807 -0.4940 -0.4732 -0.2639
44342OCT     C188683  21.058  13.553  17.742 -0.1393  0.2290 -0.0257
44342OCT     C288684  21.475  13.533  17.515  0.1060  0.3932 -0.2690
44343OCT     C188685  10.331  17.486   3.691  0.0273  0.2172  0.0189
44343OCT     C288686  10.134  17.642   4.078  0.2327  0.1126 -0.1719
44344OCT     C188687   0.936  17.567   4.149  0.2669 -0.0860 -0.5613
44344OCT     C288688   0.788  17.218   4.412 -0.3581 -0.0474 -0.3726
44345OCT     C188689  18.652   6.302   9.386  0.2441 -0.0120 -0.2357
44345OCT     C288690  18.564   6.685   9.103  0.0004 -0.0077  0.0840
44346OCT     C188691  11.358  18.921  18.473 -0.1841 -0.0297  0.2659
44346OCT     C288692  11.297  19.273  18.850 -0.0634 -0.0171  0.3483
44347OCT     C188693   5.471  16.769  18.627 -0.0461  0.0274 -0.5955
44347OCT     C288694   5.545  17.093  18.304 -0.0508 -0.3563  0.0254
44348OCT     C188695  11.868   6.488   8.095  0.1926  0.3614 -0.1935
44348OCT     C288696  12.256   6.772   8.054  0.1615 -0.2558  0.1114
44349OCT     C188697   2.020   3.576  20.950  0.1205 -0.3511 -0.0243
44349OCT     C288698   2.148   4.005  20.850  0.1707  0.3946  0.0749
44350OCT     C188699   4.989   0.551  11.053 -0.1530  0.1248  0.1078
44350OCT     C288700   5.172   0.326  10.666 -0.1234 -0.1202 -0.0116
44351OCT     C188701  10.400  19.070  19.925 -0.1301 -0.2473 -0.3082
44351OCT     C288702  10.244  19.337  20.305 -0.1135  0.2002  0.3676
44352OCT     C188703  13.203  17.368  22.768  0.2507  0.3797 -0.0153
44352OCT     C288704  13.485  17.738  22.685  0.1243  0.0264  0.4373
44353OCT     C188705  19.411   9.556  20.028  0.1596 -0.0514  0.1733
44353OCT     C288706  19.051   9.389  19.751  0.1392  0.1670  0.0681
44354OCT     C188707  20.697  10.332   1.796  0.0255 -0.2606  0.0180
44354OCT     C288708  20.384  10.211   1.498 -0.1108 -0.6166  0.0521
44355OCT     C188709  22.306  20.391  21.016  0.0168 -0.2860  0.2484
44355OCT     C288710  21.905  20.650  21.003  0.0884  0.2568  0.1245
44356OCT     C188711   9.795   0.682   8.543  0.3380  0.2172 -0.3416
44356OCT     C288712   9.298   0.820   8.508 -0.1436  0.0389 -0.3300
44357OCT     C188713  14.909   0.834  20.260  0.0377 -0.1632 -0.4317
44357OCT     C288714  14.705   1.087  19.865 -0.2405 -0.2133 -0.0697
44358OCT     C188715  12.140   1.786  17.499 -0.0070  0.1842  0.3716
44358OCT     C288716  11.697   1.814  17.605  0.2368 -0.4365 -0.0433
44359OCT     C188717  20.453  15.901   3.126  0.0460 -0.2806  0.1590
44359OCT     C288718  20.863  15.943   3.305  0.4814  0.5580  0.0653
44360OCT     C188719  22.377   2.506  20.319 -0.0474 -0.0996 -0.1418
44360OCT     C288720  21.901   2.587  20.362  0.1170 -0.0681 -0.1464
44361OCT     C188721   9.014   2.914  14.989 -0.0427  0.0248  0.3111
44361OCT     C288722   8.786   3.063  14.583  0.3131  0.2278 -0.1182
44362OCT     C188723  16.147  16.699  17.338 -0.1417 -0.0382 -0.0142
44362OCT     C288724  16.442  16.413  17.551 -0.2320  0.0117  0.2090
44363OCT     C188725   2.321   9.164   6.398 -0.2811  0.0722  0.0989
44363OCT     C288726   1.995   9.193   6.679 -0.5456  0.0709 -0.1454
44364OCT     C188727  15.261  23.428   3.530 -0.2587  0.0495 -0.0054
44364OCT     C288728  15.299  23.115   3.152 -0.1798  0.0687 -0.2639
44365OCT     C188729   1.392  11.566   6.286 -0.0181  0.0661 -0.1511
44365OCT     C288730   1.342  11.178   6.557  0.0515 -0.1156  0.0148
44366OCT     C188731  18.897   3.102  15.633  0.1161  0.2188 -0.1999
44366OCT     C288732  19.046   2.661  15.756 -0.1882  0.1497 -0.1028
44367OCT     C188733   3.108   8.961  10.857  0.1430 -0.0521  0.3170
44367OCT     C288734   2.814   9.015  11.232 -0.1819  0.0741  0.3602
44368OCT     C188735  12.655   4.422  23.683 -0.0819  0.1672  0.2372
44368OCT     C288736  12.277   4.623   0.012  0.1309 -0.3364 -0.1032
44369OCT     C188737   1.392   9.126   0.377 -0.0255 -0.1819  0.3098
44369OCT     C288738   1.499   9.501   0.106 -0.1715 -0.3527  0.2145
44370OCT     C188739   6.574  11.439  14.032  0.2498 -0.1050 -0.1470
44370OCT     C288740   6.735  11.510  13.546 -0.1401 -0.0716 -0.3543
44371OCT     C188741  15.560  19.528   7.504  0.0239  0.0302 -0.3266
44371OCT     C288742  15.994  19.638   7.773 -0.0392  0.1793 -0.1732
44372OCT     C188743   5.433   3.089   2.633  0.0600  0.4656 -0.2278
44372OCT     C288744   5.864   3.159   2.482 -0.0052  0.1200  0.3231
44373OCT     C188745  10.605   2.825  21.288  0.1554  0.0913 -0.0550
44373OCT     C288746  10.813   2.418  21.419 -0.1369  0.1022 -0.0196
44374OCT     C188747  12.290  17.762  11.074 -0.1213 -0.1118 -0.3339
44374OCT     C288748  11.927  17.756  11.343  0.0718  0.2609 -0.2663
44375OCT     C188749  10.361  16.774   6.906  0.1742  0.2278 -0.0013
44375OCT     C288750  10.385  16.348   6.656  0.1179  0.0824 -0.1369
44376OCT     C188751  14.081  11.931   6.561  0.1918  0.0333 -0.0321
44376OCT     C288752  13.925  11.871   7.037  0.1081  0.0716  0.2248
44377OCT     C188753  11.716   6.426  16.723  0.1437 -0.1087 -0.2912
44377OCT     C288754  11.483   6.883  16.754  0.0497 -0.1385  0.1746
44378OCT     C188755  11.200  12.053  11.965  0.1080 -0.1437 -0.2694
44378OCT     C288756  11.170  12.408  12.270 -0.5614  0.4346 -0.0010
44379OCT     C188757  10.177   7.472  16.507 -0.0464  0.0751  0.0859
44379OCT     C288758  10.248   7.799  16.865  0.1539  0.0206 -0.1258
44380OCT     C188759   9.370  14.047  16.715  0.4947 -0.1373 -0.2294
44380OCT     C288760   9.585  13.989  17.133  0.0923  0.1423  0.0475
44381OCT     C188761  16.047  16.412   1.860  0.0952  0.0450  0.0618
44381OCT     C288762  16.419  16.740   2.023 -0.1858 -0.1672 -0.1840
44382OCT     C188763   3.249  21.497   3.803  0.4320 -0.0320 -0.1952
44382OCT     C288764   2.975  21.742   4.082 -0.0065 -0.1328 -0.2457
44383OCT     C188765   4.719   7.669   3.999  0.1988  0.0335  0.2264
44383OCT     C288766   4.568   7.191   3.928  0.1204  0.3421 -0.0654
44384OCT     C188767  15.698  13.475   6.535 -0.3376 -0.1812 -0.3473
44384OCT     C288768  15.388  13.358   6.181 -0.1605 -0.4192  0.1232
44385OCT     C188769  17.648  13.231   5.118 -0.1252  0.2432 -0.3546
44385OCT     C288770  18.071  13.266   5.068 -0.0648 -0.0001 -0.3525
44386OCT     C188771  11.202  19.633   7.169 -0.0808  0.0975 -0.4277
44386OCT     C288772  11.633  19.492   7.115  0.1164  0.4144 -0.0468
44387OCT     C188773   9.912  12.500  11.276  0.0073  0.0918  0.0412
44387OCT     C288774  10.156  12.197  10.971 -0.0742 -0.2737 -0.1338
44388OCT     C188775   6.478   9.379   5.680 -0.2769  0.0495 -0.2251
44388OCT     C288776   6.896   9.401   5.919  0.1046  0.1085  0.1072
44389OCT     C188777   3.351  14.353   0.544 -0.0453 -0.1322 -0.0264
44389OCT     C288778   2.881  14.243   0.543 -0.4377  0.1190 -0.3254
44390OCT     C188779   3.203  12.214   3.101  0.0882  0.2610 -0.0127
44390OCT     C288780   2.987  11.958   2.828 -0.3086 -0.1459  0.3849
44391OCT     C188781   3.695  11.960   4.097 -0.0340  0.4301  0.0765
44391OCT     C288782   3.567  12.324   3.780  0.0072  0.0452 -0.1280
44392OCT     C188783  17.787  23.256  14.495 -0.2957  0.2096  0.2797
44392OCT     C288784  17.621  22.883  14.760  0.0804  0.3700 -0.2223
44393OCT     C188785   8.980  12.871  10.318  0.2833 -0.3023 -0.0832
44393OCT     C288786   9.313  13.022  10.586  0.0478  0.0600  0.2920
44394OCT     C188787   2.700  20.796  12.886  0.0659  0.0060  0.1680
44394OCT     C288788   2.245  20.857  12.885  0.3936 -0.1339 -0.2670
44395OCT     C188789   9.559   2.310   4.869 -0.2157  0.1388 -0.0691
44395OCT     C288790   9.985   2.343   4.755  0.2386  0.2599 -0.1084
44396OCT     C188791   0.415  14.331  22.388 -0.0971  0.2342 -0.1058
44396OCT     C288792   0.315  14.708  22.183  0.0022 -0.1639 -0.1952
44397OCT     C188793   6.761  19.611  21.624  0.0534  0.3381 -0.0426
44397OCT     C288794   6.377  19.629  21.908 -0.2613 -0.0572  0.1063
44398OCT     C188795   3.630   9.263   3.405 -0.2191 -0.0294  0.0215
44398OCT     C288796   3.251   9.096   3.359 -0.1574  0.2867  0.0592
44399OCT     C188797   7.012  18.605   4.899 -0.3104  0.1211  0.0331
44399OCT     C288798   6.849  18.473   4.495  0.0053  0.2446 -0.2477
44400OCT     C188799   0.662  17.228  20.171 -0.3091 -0.0395 -0.2495
44400OCT     C288800   1.158  17.173  20.274  0.1883  0.2089 -0.2342
44401OCT     C188801  23.477  10.170   9.073 -0.2061  0.2962  0.1182
44401OCT     C288802  23.528  10.010   9.527  0.0237  0.1907  0.0615
44402OCT     C188803  17.500  23.561  15.356 -0.1719 -0.3433 -0.1863
44402OCT     C288804  17.834  23.681  15.620  0.1037 -0.0818  0.0054
44403OCT     C188805   9.276   5.800   0.493 -0.3541 -0.0214  0.0982
44403OCT     C288806   9.078   6.294   0.474  0.2623  0.1329 -0.2232
44404OCT     C188807   9.566  10.291  15.571  0.1720 -0.1589 -0.0359
44404OCT     C288808   9.859  10.538  15.866 -0.2208 -0.0025 -0.0156
44405OCT     C188809  21.479   6.892   1.394 -0.3251  0.1600 -0.4319
44405OCT     C288810  21.508   7.205   1.768 -0.0129 -0.1975 -0.1383
44406OCT     C188811  14.730   3.343  15.778 -0.0830  0.0667  0.0633
44406OCT     C288812  14.297   3.136  15.671 -0.3458 -0.0529 -0.0901
44407OCT     C188813  19.586   8.555  23.630 -0.3223  0.2574  0.1454
44407OCT     C288814  19.734   8.916   0.134  0.0772  0.0194  0.2852
44408OCT     C188815  14.596  19.683  15.412 -0.1357 -0.3983 -0.1947
44408OCT     C288816  14.455  19.746  15.860  0.0624  0.5715 -0.2910
44409OCT     C188817  20.832   1.934  10.506  0.0612  0.2302 -0.3388
44409OCT     C288818  20.777   1.987  10.068 -0.0506  0.1852  0.4245
44410OCT     C188819  21.514   4.745   9.150  0.2270  0.1433  0.4335
44410OCT     C288820  21.648   5.153   9.306  0.2390  0.0789 -0.0965
44411OCT     C188821   7.063  20.232  17.886 -0.0345 -0.4289 -0.0254
44411OCT     C288822   7.008  20.187  18.378 -0.1735 -0.2226 -0.2475
44412OCT     C188823  15.420  16.082  14.960 -0.0073  0.1241  0.0219
44412OCT     C288824  15.485  16.520  15.203 -0.0232  0.0519 -0.3049
44413OCT     C188825   4.812  15.783  14.886 -0.0931  0.3999 -0.4057
44413OCT     C288826   4.479  16.064  14.801  0.0291  0.3023  0.1518
44414OCT     C188827  13.222  15.685  16.989  0.4241  0.2227 -0.0169
44414OCT     C288828  13.557  15.937  16.839  0.2749 -0.0276 -0.0596
44415OCT     C188829   5.919  18.339  11.558 -0.1746  0.3618  0.1619
44415OCT     C288830   5.704  18.252  11.965 -0.0173  0.1530 -0.1217
44416OCT     C188831  11.305  23.065   5.517 -0.3491 -0.2139 -0.0370
44416OCT     C288832  11.202  22.821   5.916 -0.1213  0.1890  0.0113
44417OCT     C188833  20.955  14.817  18.736  0.0410  0.1286 -0.2249
44417OCT     C288834  20.551  14.989  18.898 -0.1250 -0.3047 -0.2180
44418OCT     C188835  22.150  21.945   1.448 -0.2594 -0.1083 -0.1454
44418OCT     C288836  22.568  21.868   1.730  0.2856  0.3125  0.3941
44419OCT     C188837  21.370  22.417  19.873 -0.4594  0.1739 -0.1328
44419OCT     C288838  21.117  22.164  20.142  0.1844 -0.1077 -0.0404
44420OCT     C188839   5.080  22.959   9.918  0.0294 -0.0276 -0.0022
44420OCT     C288840   4.908  22.818   9.503 -0.2025 -0.0356 -0.3532
44421OCT     C188841  16.288  21.602   3.691 -0.0303  0.5334  0.3969
44421OCT     C288842  16.094  21.813   4.064  0.0525 -0.3228 -0.0687
44422OCT     C188843  18.813   5.501   0.505  0.0622  0.5019 -0.0648
44422OCT     C288844  18.886   5.217   0.856  0.0737 -0.0205 -0.0970
44423OCT     C188845  19.556  10.168  17.740  0.1725 -0.1559 -0.1075
44423OCT     C288846  19.312  10.484  17.442 -0.0146 -0.2892 -0.2252
44424OCT     C188847  22.243  22.398  14.895 -0.0586  0.2191  0.1474
44424OCT     C288848  21.985  21.985  14.770 -0.0908  0.5643 -0.3452
44425OCT     C188849   9.738  18.638  20.366  0.0440 -0.0367 -0.3138
44425OCT     C288850   9.650  18.357  20.003 -0.3551 -0.0456  0.1566
44426OCT     C188851   7.857  23.581   8.510 -0.0753  0.1749 -0.0300
44426OCT     C288852   8.236   0.185   8.392  0.1462 -0.0295 -0.1279
44427OCT     C188853   4.371  14.562  17.030 -0.1631  0.0532  0.4186
44427OCT     C288854   4.672  14.642  17.401 -0.2351  0.1351  0.1135
44428OCT     C188855   1.867   0.466  15.826  0.0412  0.1257 -0.0333
44428OCT     C288856   1.896   0.492  16.294 -0.3233  0.0761  0.2776
44429OCT     C188857  14.958  13.679  23.091 -0.2766  0.2271  0.3597
44429OCT     C288858  15.192  13.844  23.417  0.0463  0.1715 -0.1241
44430OCT     C188859  20.299   6.601   8.981  0.0146  0.0079 -0.0383
44430OCT     C288860  20.278   6.557   9.459  0.0370  0.0285  0.1859
44431OCT     C188861  15.727   2.485  13.719  0.1859 -0.2390 -0.2670
44431OCT     C288862  15.846   2.795  13.411 -0.1239 -0.2282  0.0713
44432OCT     C188863  18.623   7.704  16.855  0.2231 -0.1231  0.1068
44432OCT     C288864  18.994   7.686  16.593  0.2928 -0.1062 -0.4026
44433OCT     C188865   2.659   3.737  15.773 -0.1530 -0.0397  0.0493
44433OCT     C288866   2.358   3.870  16.089 -0.0060  0.1712 -0.1452
44434OCT     C188867   7.763  17.386  22.851  0.0111 -0.4030 -0.0751
44434OCT     C288868   8.038  17.763  22.771 -0.0291 -0.1154  0.3243
44435OCT     C188869  15.837  18.288   3.540 -0.1462  0.3796  0.0843
44435OCT     C288870  15.728  17.841   3.669  0.3779  0.1237 -0.1204
44436OCT     C188871  10.944  18.770   1.346  0.1675  0.1489  0.0396
44436OCT     C288872  11.214  18.960   1.072  0.0179  0.2082  0.0211
44437OCT     C188873  16.531  23.555  16.676  0.3191 -0.2069  0.0063
44437OCT     C288874  16.695  23.635  16.257  0.2416  0.0907  0.1463
44438OCT     C188875  17.135  18.581  22.070 -0.1736  0.1924  0.1165
44438OCT     C288876  16.692  18.552  21.809  0.1259 -0.1714 -0.0940
44439OCT     C188877  22.251  15.660   2.776 -0.0175 -0.2427 -0.0510
44439OCT     C288878  22.210  15.731   3.216 -0.0033 -0.0274 -0.0547
44440OCT     C188879  11.230  12.586  17.702  0.0423  0.2190 -0.1971
44440OCT     C288880  10.884  12.498  17.428 -0.2080 -0.2906  0.1410
44441OCT     C188881   0.869   3.283   8.446  0.0994 -0.0694  0.4165
44441OCT     C288882   0.935   3.510   8.076  0.1728 -0.4929  0.0545
44442OCT     C188883  10.375  19.201  15.074  0.0936  0.2823  0.0235
44442OCT     C288884   9.898  19.179  15.056 -0.1383 -0.0590 -0.0467
44443OCT     C188885   7.754   0.453  19.715 -0.1002  0.4820 -0.0030
44443OCT     C288886   7.861   0.912  19.569 -0.1445 -0.2621  0.1118
44444OCT     C188887   5.346  17.221  17.274  0.1320 -0.2417 -0.1650
44444OCT     C288888   5.471  17.109  16.815 -0.3990  0.1418 -0.0874
44445OCT     C188889   4.638  16.149  21.698  0.1463 -0.1795 -0.0367
44445OCT     C288890   4.832  16.622  21.656  0.1092  0.2346 -0.1550
44446OCT     C188891   5.154   7.443  10.923  0.1042  0.0467 -0.1664
44446OCT     C288892   4.897   7.035  10.807  0.1356  0.2513 -0.2049
44447OCT     C188893  11.712  10.750   7.532  0.4326 -0.0749 -0.0964
44447OCT     C288894  11.795  11.167   7.570  0.2918  0.4971  0.1447
44448OCT     C188895   3.918  17.016  22.047  0.0476  0.3895  0.1188
44448OCT     C288896   4.013  16.591  22.078  0.1429 -0.1021  0.0216
44449OCT     C188897   3.312  12.957  21.989  0.0076  0.1550 -0.2061
44449OCT     C288898   3.104  12.787  22.383 -0.2730  0.1634 -0.2005
44450OCT     C188899  15.287  21.147  10.470 -0.0330  0.0348  0.1234
44450OCT     C288900  15.178  20.845  10.735 -0.2093  0.1571  0.1033
44451OCT     C188901  22.378  10.773  11.653  0.0827  0.0069 -0.0776
44451OCT     C288902  22.089  10.450  11.790  0.1737 -0.1418 -0.2357
44452OCT     C188903   5.428  21.002   1.852  0.2840  0.1094 -0.2724
44452OCT     C288904   5.646  20.533   1.843 -0.1592 -0.1673  0.0622
44453OCT     C188905  19.532  14.936  10.781  0.3385  0.0108  0.3629
44453OCT     C288906  19.660  15.181  10.368  0.2083  0.1010 -0.3648
44454OCT     C188907  21.975   2.479  14.529  0.0603 -0.1390  0.1389
44454OCT     C288908  22.078   2.280  14.907  0.0901 -0.2661 -0.0550
44455OCT     C188909  20.200   9.412   5.370 -0.1385  0.3034 -0.0152
44455OCT     C288910  20.097   9.719   5.755 -0.0416  0.0585  0.0027
44456OCT     C188911  10.820  16.524   6.421  0.2084  0.2215 -0.3316
44456OCT     C288912  10.393  16.584   6.221  0.1142 -0.3214 -0.4688
44457OCT     C188913   9.621  13.253   9.959 -0.0697  0.1043  0.2804
44457OCT     C288914   9.176  13.208   9.973 -0.0864  0.0377 -0.1188
44458OCT     C188915  21.135  19.811   8.055  0.0626 -0.1125  0.2110
44458OCT     C288916  20.763  19.652   7.846  0.2734 -0.2779  0.2148
44459OCT     C188917  22.265  17.480   2.198 -0.3744 -0.0520 -0.0068
44459OCT     C288918  22.385  17.899   2.319  0.2597 -0.1559  0.3928
44460OCT     C188919  20.324  14.665   1.034  0.1064  0.4649 -0.1557
44460OCT     C288920  20.346  14.648   1.493  0.0794  0.0931 -0.2426
44461OCT     C188921   4.657  11.264  14.170 -0.1983  0.2370  0.3854
44461OCT     C288922   4.575  11.385  13.694 -0.1472  0.1049 -0.3000
44462OCT     C188923  21.018   6.177   5.257  0.1117 -0.0691 -0.3761
44462OCT     C288924  21.372   6.487   5.092  0.0075  0.1603 -0.1120
44463OCT     C188925   9.983  18.495  17.998 -0.5066 -0.0113  0.0342
44463OCT     C288926  10.019  18.945  18.140  0.1612 -0.1665 -0.0268
44464OCT     C188927  14.433  11.137  13.496  0.1915  0.1161  0.0044
44464OCT     C288928  13.993  11.175  13.646 -0.0042 -0.1756 -0.1458
44465OCT     C188929  19.460  20.560   9.510  0.1147 -0.1642 -0.4154
44465OCT     C288930  19.671  20.606   9.109 -0.1148 -0.1784 -0.0734
44466OCT     C188931  10.258  22.075  13.001  0.2097  0.1778 -0.3502
44466OCT     C288932  10.619  22.287  12.918 -0.2929  0.2451 -0.0102
44467OCT     C188933   7.899  23.311  10.221  0.1057  0.0020 -0.1046
44467OCT     C288934   7.906  23.456   9.789  0.0700  0.1544 -0.0038
44468OCT     C188935  13.961  14.487  20.017  0.2514  0.1044  0.0947
44468OCT     C288936  14.342  14.471  20.227 -0.2845  0.0966 -0.5237
44469OCT     C188937   2.530   6.867  21.726  0.1781 -0.4184  0.2045
44469OCT     C288938   2.792   6.697  21.359 -0.4971  0.0437  0.0669
44470OCT     C188939  18.538  10.575   8.404 -0.2560  0.1945 -0.3682
44470OCT     C288940  18.845  10.287   8.238  0.0419 -0.0539  0.0905
44471OCT     C188941   0.209  13.999  18.022 -0.1067  0.1682 -0.0617
44471OCT     C288942   0.626  14.151  17.821 -0.2726  0.1944  0.0605
44472OCT     C188943  16.415   1.856  10.172  0.0163  0.0272 -0.3716
44472OCT     C288944  16.573   1.839   9.729  0.0639 -0.3723  0.0408
44473OCT     C188945  19.663   1.893  14.465 -0.0306 -0.1547  0.2809
44473OCT     C288946  19.518   2.362  14.453  0.2653 -0.2069  0.0142
44474OCT     C188947  20.373   2.852   8.427  0.1680  0.5884 -0.2809
44474OCT     C288948  20.561   3.271   8.406 -0.2625  0.1433 -0.0664
44475OCT     C188949   7.390  15.383  18.764  0.4824 -0.0943  0.1166
44475OCT     C288950   7.604  15.528  19.127  0.1731 -0.2350 -0.2187
44476OCT     C188951   7.580  18.082  13.937  0.1131  0.2410 -0.1131
44476OCT     C288952   7.381  18.483  13.928 -0.3488  0.0954  0.0097
44477OCT     C188953  16.662  10.106   5.866  0.1738 -0.1674  0.1282
44477OCT     C288954  16.959   9.982   5.560 -0.1907 -0.2521  0.2831
44478OCT     C188955  19.275  18.410   1.329  0.0975 -0.2233 -0.4324
44478OCT     C288956  19.308  18.455   1.789 -0.0707  0.0508  0.0252
44479OCT     C188957  10.662   6.697   4.103  0.1459 -0.1965 -0.1617
44479OCT     C288958  10.908   6.762   4.492 -0.2199 -0.3260  0.2063
44480OCT     C188959  17.786  19.574  22.173 -0.3757  0.0904 -0.1133
44480OCT     C288960  17.640  19.298  22.542 -0.0828 -0.0026  0.2978
44481OCT     C188961  21.492   9.202   5.385  0.1211  0.3917 -0.3335
44481OCT     C288962  21.127   9.192   5.622  0.0518  0.1506 -0.0383
44482OCT     C188963  22.094  14.307   5.819  0.4405 -0.1828  0.0191
44482OCT     C288964  22.365  14.700   5.736  0.2059 -0.0897  0.0450
44483OCT     C188965  16.672  18.863  13.208  0.3167 -0.3287 -0.0276
44483OCT     C288966  16.843  18.725  13.634  0.0098 -0.0130 -0.2198
44484OCT     C188967  10.670  10.289  17.572 -0.0698 -0.0043 -0.0463
44484OCT     C288968  10.252  10.517  17.674  0.3023 -0.2391  0.1238
44485OCT     C188969  13.275   6.916   9.560  0.1000  0.3947 -0.1316
44485OCT     C288970  13.572   6.576   9.680  0.0708  0.2251 -0.3670
44486OCT     C188971  15.551  20.343   0.414  0.1892 -0.0486 -0.2294
44486OCT     C288972  15.640  19.911   0.459  0.2833  0.2498 -0.5253
44487OCT     C188973   8.268   0.197  20.634 -0.3190 -0.1077  0.1331
44487OCT     C288974   7.817   0.205  20.762  0.4872  0.2588  0.0968
44488OCT     C188975  16.171  22.146  12.025 -0.0288 -0.0851  0.2579
44488OCT     C288976  16.613  22.028  12.190 -0.0381  0.1663  0.0750
44489OCT     C188977  13.987  12.369  14.899  0.3212  0.2973  0.4698
44489OCT     C288978  14.180  12.825  15.047 -0.0020 -0.0625 -0.2779
44490OCT     C188979  14.633  22.571   1.409  0.0401  0.3901 -0.4076
44490OCT     C288980  14.677  22.287   1.060  0.0941  0.0075 -0.0606
44491OCT     C188981  20.355  10.981   3.314 -0.0770  0.1653  0.3115
44491OCT     C288982  20.420  10.517   3.405  0.0397 -0.0078 -0.1188
44492OCT     C188983  22.287  23.693   1.313 -0.0359  0.1674 -0.0357
44492OCT     C288984  21.932  23.595   0.996 -0.3812 -0.1851  0.1012
44493OCT     C188985  21.509   4.751   7.708  0.2691  0.1559 -0.2219
44493OCT     C288986  21.407   4.306   7.892  0.1170  0.2111  0.0865
44494OCT     C188987  21.734   9.969  12.136  0.1484  0.0679  0.1102
44494OCT     C288988  21.695  10.151  11.686 -0.3170  0.0582  0.5490
44495OCT     C188989   7.583  10.458   2.926  0.0779  0.0380  0.1416
44495OCT     C288990   8.007  10.203   2.956  0.4004 -0.3859 -0.0302
44496OCT     C188991  11.425   4.204   1.390  0.0862 -0.2790 -0.0230
44496OCT     C288992  11.523   4.250   0.877 -0.2611  0.0742  0.1414
44497OCT     C188993  20.316  13.378   1.110  0.0048 -0.2414  0.1490
44497OCT     C288994  20.780  13.352   1.170 -0.0920 -0.1002  0.2867
44498OCT     C188995   6.900  17.421   8.684 -0.5637 -0.1197 -0.2248
44498OCT     C288996   6.508  17.440   8.513 -0.0331 -0.0166 -0.0135
44499OCT     C188997   8.729  13.619  13.083  0.1209  0.1369  0.1484
44499OCT     C288998   8.526  13.198  12.909 -0.1681  0.1500  0.1475
44500OCT     C188999  16.203  11.967  16.914  0.1560 -0.1076  0.1290
44500OCT     C289000  16.103  11.803  16.474  0.5025  0.0173 -0.0153
44501OCT     C189001  11.685   8.381  22.522  0.1854  0.1828  0.2615
44501OCT     C289002  11.936   8.786  22.469 -0.1606 -0.3594  0.0805
44502OCT     C189003   2.984  10.603   0.797 -0.0748 -0.2815  0.1511
44502OCT     C289004   2.654  10.293   0.899 -0.0515  0.0023 -0.3139
44503OCT     C189005   7.415  18.499  17.514 -0.1322 -0.3656  0.0934
44503OCT     C289006   7.650  18.553  17.941 -0.1673  0.0196 -0.2405
44504OCT     C189007  10.290  10.993  13.275 -0.2054  0.3369  0.0929
44504OCT     C289008  10.619  10.685  13.254 -0.3682 -0.2930 -0.0832
44505OCT     C189009  23.103   9.800   0.813 -0.3459  0.1657  0.0481
44505OCT     C289010  23.231   9.501   0.492 -0.2597 -0.3639  0.1495
44506OCT     C189011  18.088  13.368  20.974 -0.2451  0.1391  0.0124
44506OCT     C289012  18.022  13.671  20.685  0.1622 -0.0014  0.1463
44507OCT     C189013  10.296  23.330  15.506  0.2542 -0.2177  0.3263
44507OCT     C289014  10.416  22.948  15.763  0.1043 -0.2610 -0.1540
44508OCT     C189015  15.717   9.829   5.663 -0.1479  0.1502  0.1231
44508OCT     C289016  15.691  10.092   6.076 -0.3160  0.2754 -0.0052
44509OCT     C189017   4.932   8.714  11.392  0.2024 -0.1025  0.4452
44509OCT     C289018   4.659   8.314  11.315  0.0640  0.0763 -0.0401
44510OCT     C189019  22.873  10.873   0.882 -0.1950 -0.1984 -0.1713
44510OCT     C289020  22.862  11.141   1.267 -0.0172  0.2763  0.4115
44511OCT     C189021   7.846   1.801   2.183  0.0629 -0.0291 -0.0078
44511OCT     C289022   7.897   2.127   2.510  0.1065 -0.2412 -0.1674
44512OCT     C189023   2.825   3.410  19.998 -0.2184  0.0160  0.0199
44512OCT     C289024   3.238   3.567  19.822 -0.2917  0.2409  0.2386
44513OCT     C189025   4.067   2.751  23.319 -0.0086 -0.3204  0.1299
44513OCT     C289026   3.916   3.027  23.678 -0.2004 -0.0437 -0.0336
44514OCT     C189027  23.065   2.588   8.182 -0.1812  0.0902  0.0371
44514OCT     C289028  22.887   2.286   7.875 -0.0472  0.0982 -0.0702
44515OCT     C189029  21.632   4.065  21.416  0.0929  0.1327  0.2401
44515OCT     C289030  21.972   3.792  21.272 -0.0285  0.0356 -0.0353
44516OCT     C189031  19.978   9.749  19.398 -0.0121  0.1263  0.1206
44516OCT     C289032  20.370   9.954  19.288  0.1169 -0.1108  0.0077
44517OCT     C189033  14.167   0.607  21.332  0.0064 -0.1590 -0.1890
44517OCT     C289034  14.569   0.904  21.364  0.0676 -0.0549 -0.0818
44518OCT     C189035  10.849  11.281  17.360  0.2704 -0.3795 -0.1828
44518OCT     C289036  10.866  11.568  16.967  0.3337 -0.1634  0.1782
44519OCT     C189037   6.045   6.171  16.431  0.5108  0.0347 -0.1670
44519OCT     C289038   5.868   6.570  16.458  0.0006 -0.1194 -0.2170
44520OCT     C189039  18.507   2.109   5.491  0.4120  0.3641 -0.1493
44520OCT     C289040  18.093   1.912   5.341 -0.0410 -0.1166 -0.0492
44521OCT     C189041   3.447  18.775  18.746  0.2217  0.3258 -0.2382
44521OCT     C289042   3.736  18.457  18.795  0.0763 -0.3562  0.0192
44522OCT     C189043   5.352  22.417  17.353 -0.0553 -0.2094  0.0769
44522OCT     C289044   5.288  22.357  17.832  0.0366  0.0075  0.0642
44523OCT     C189045  13.136  20.404  20.367  0.0451  0.3386 -0.0117
44523OCT     C289046  12.703  20.538  20.245 -0.1223  0.0711 -0.3950
44524OCT     C189047  20.875   7.528  14.460 -0.1699  0.3713  0.0818
44524OCT     C289048  20.550   7.923  14.560  0.0216 -0.0135  0.2094
44525OCT     C189049  14.965  16.542   8.151  0.0077 -0.0929  0.1531
44525OCT     C289050  15.337  16.502   7.863  0.0090  0.0526  0.2401
44526OCT     C189051  15.832  20.252  15.264 -0.3090 -0.1811  0.1914
44526OCT     C289052  15.542  20.388  14.925 -0.0287 -0.2393 -0.1402
44527OCT     C189053   0.619  21.866  19.848 -0.1770  0.3793  0.1313
44527OCT     C289054   0.585  21.977  19.400  0.0258 -0.4780 -0.1683
44528OCT     C189055   7.608  13.585  11.353 -0.3530  0.2491  0.2296
44528OCT     C289056   7.315  13.276  11.297 -0.0511 -0.0577  0.0057
44529OCT     C189057  20.237  22.849  10.245 -0.0551  0.0220  0.0921
44529OCT     C289058  20.447  22.809  10.619  0.0122  0.1760 -0.0588
44530OCT     C189059   8.521   7.087  19.907  0.5618 -0.1293  0.0156
44530OCT     C289060   8.874   7.240  19.688 -0.2529 -0.0208 -0.1798
44531OCT     C189061   9.160   5.279   3.978  0.0615 -0.3088 -0.3450
44531OCT     C289062   9.287   5.048   3.619 -0.1773 -0.1627 -0.0171
44532OCT     C189063  15.740  22.413  15.226  0.0219 -0.1407 -0.2116
44532OCT     C289064  15.934  22.759  15.027 -0.2971 -0.0993 -0.0797
44533OCT     C189065  17.789  10.870   3.927  0.0019  0.1034 -0.1873
44533OCT     C289066  17.683  10.657   4.357 -0.4467  0.0629 -0.0158
44534OCT     C189067   1.661   6.695   4.175 -0.0671 -0.0201  0.2544
44534OCT     C289068   1.901   6.480   3.829  0.5401 -0.0393 -0.1918
44535OCT     C189069  16.386  18.449  22.555 -0.1192  0.1960 -0.0620
44535OCT     C289070  15.984  18.482  22.835  0.0096  0.0381 -0.0650
44536OCT     C189071  14.881   6.969  13.601 -0.0455 -0.2840 -0.1878
44536OCT     C289072  15.085   7.158  14.005  0.0694  0.2163 -0.0418
44537OCT     C189073   0.132   2.901   2.045 -0.1164 -0.1724  0.0144
44537OCT     C289074  23.463   2.928   2.248 -0.1677  0.0235  0.1821
44538OCT     C189075   4.582   4.966   2.437 -0.2499 -0.5230  0.2084
44538OCT     C289076   4.621   5.480   2.563 -0.0742 -0.0345 -0.2065
44539OCT     C189077  20.249   9.860   5.115 -0.2173  0.0039  0.0869
44539OCT     C289078  19.925  10.017   4.856 -0.0777  0.2036  0.4121
44540OCT     C189079  15.298  11.735   6.667  0.0288  0.4751  0.0734
44540OCT     C289080  14.836  11.723   6.720 -0.1226  0.0327 -0.0455
44541OCT     C189081  20.269  11.368   4.298 -0.0891 -0.1716  0.0859
44541OCT     C289082  20.280  10.889   4.326  0.1097 -0.0501 -0.2252
44542OCT     C189083  20.143  17.194  19.408  0.0489 -0.0268  0.0925
44542OCT     C289084  20.234  16.755  19.571 -0.3136  0.1294  0.2228
44543OCT     C189085  14.091  11.816  18.611 -0.0124  0.1099  0.3041
44543OCT     C289086  13.879  11.928  19.004  0.3323  0.0279 -0.0853
44544OCT     C189087   1.879   0.796  11.424 -0.1638 -0.0981  0.2208
44544OCT     C289088   2.081   0.999  11.060 -0.0646  0.5506 -0.2406
44545OCT     C189089   5.409   7.944   0.402  0.0523 -0.1457 -0.0894
44545OCT     C289090   5.478   8.403   0.377 -0.0718  0.0762  0.3599
44546OCT     C189091   8.989  17.836   4.547 -0.2022  0.2890 -0.1622
44546OCT     C289092   9.415  18.008   4.636 -0.2687  0.4180 -0.0418
44547OCT     C189093  22.197  15.710  17.605  0.0471  0.2308  0.0329
44547OCT     C289094  22.401  15.736  17.196 -0.1108 -0.0285 -0.1161
44548OCT     C189095  21.012  22.278  20.874 -0.1914 -0.2905 -0.1938
44548OCT     C289096  21.130  22.495  20.501 -0.1716 -0.1970  0.1388
44549OCT     C189097  17.177  21.625  19.477  0.0610  0.2203 -0.0942
44549OCT     C289098  16.851  21.396  19.604 -0.5120  0.0745  0.3856
44550OCT     C189099   6.652   2.907   5.596  0.1918 -0.1325  0.3043
44550OCT     C289100   6.546   3.220   5.927 -0.0377 -0.0898 -0.5767
44551OCT     C189101   2.604  22.287  21.329  0.3095 -0.0042 -0.3621
44551OCT     C289102   2.869  22.560  21.046  0.1693 -0.0428 -0.0199
44552OCT     C189103   8.568   8.780  12.340 -0.0089 -0.0916  0.2350
44552OCT     C289104   8.532   9.184  12.555  0.0785 -0.1546 -0.3158
44553OCT     C189105  17.471   9.435  22.872  0.0381 -0.0769 -0.2072
44553OCT     C289106  17.348   9.420  22.442  0.0196  0.3445  0.1718
44554OCT     C189107  10.407   7.661  23.362 -0.0203  0.0729  0.2715
44554OCT     C289108  10.648   8.051  23.290  0.0255  0.2041  0.0390
44555OCT     C189109  17.056   6.490   3.988 -0.0379 -0.2468  0.3374
44555OCT     C289110  17.013   6.387   3.543  0.1710  0.0189  0.0804
44556OCT     C189111   1.368  13.173  21.739 -0.0821  0.1587 -0.1277
44556OCT     C289112   1.209  13.219  21.235  0.4398 -0.2845 -0.2185
44557OCT     C189113   9.847  21.359  16.023  0.2196 -0.1479 -0.5065
44557OCT     C289114   9.729  21.749  16.267  0.1626  0.2477 -0.0220
44558OCT     C189115  11.614   6.150   7.193  0.0280 -0.5665  0.2162
44558OCT     C289116  11.777   5.662   7.121  0.1898  0.2742 -0.1741
44559OCT     C189117   9.203   5.086   7.200 -0.0080  0.0965  0.0802
44559OCT     C289118   9.071   5.287   7.592 -0.1651  0.4721 -0.0698
44560OCT     C189119  17.122   5.823  12.085 -0.2300 -0.2203  0.1516
44560OCT     C289120  16.652   5.833  12.109  0.1501 -0.4475  0.0785
44561OCT     C189121  10.610   9.374  11.837  0.0983  0.0211  0.4566
44561OCT     C289122  10.608   9.401  11.387 -0.2867 -0.0998  0.2402
44562OCT     C189123  23.167   8.748  19.667  0.0880  0.0395 -0.3960
44562OCT     C289124  23.237   8.989  19.280  0.0042 -0.0618 -0.0065
44563OCT     C189125  14.949  21.264   1.626  0.5606  0.0158  0.4377
44563OCT     C289126  14.946  20.849   1.808 -0.1691  0.1844  0.0456
44564OCT     C189127   4.572  19.806  22.472 -0.0193  0.1108  0.0006
44564OCT     C289128   5.029  19.735  22.604 -0.2707  0.3304 -0.1906
44565OCT     C189129   9.664   9.393   8.721  0.2534 -0.0352 -0.0933
44565OCT     C289130   9.866   8.966   8.662 -0.3776 -0.2207 -0.1664
44566OCT     C189131  13.626  18.218  15.942 -0.2638 -0.0427  0.0813
44566OCT     C289132  13.875  18.562  15.931 -0.5981  0.2205 -0.0201
44567OCT     C189133  18.072   6.334  14.122 -0.0938  0.4657  0.1047
44567OCT     C289134  17.909   6.257  14.536 -0.1333 -0.1142  0.1450
44568OCT     C189135   8.909   9.492  16.613  0.0365  0.0459  0.1222
44568OCT     C289136   8.944   9.393  16.150 -0.2526 -0.0916 -0.0875
44569OCT     C189137  16.855   6.602  12.318 -0.3692 -0.2195  0.1923
44569OCT     C289138  16.878   7.031  12.065 -0.0574  0.5693  0.3112
44570OCT     C189139   4.724  16.072   0.630 -0.0313 -0.0890 -0.0413
44570OCT     C289140   4.893  16.514   0.589 -0.1283 -0.3823 -0.0466
44571OCT     C189141   1.417   7.733   2.090 -0.0760  0.1571 -0.0181
44571OCT     C289142   1.485   7.717   1.628  0.1339  0.0659  0.0935
44572OCT     C189143   6.351  13.855  13.655  0.5070 -0.1827  0.2923
44572OCT     C289144   6.612  14.052  13.322 -0.2788  0.0051 -0.1018
44573OCT     C189145   9.025   7.311  18.594 -0.1324  0.2981  0.0537
44573OCT     C289146   9.007   7.353  18.145  0.0340  0.1996  0.2329
44574OCT     C189147  16.551   8.308   6.375 -0.4206 -0.1162  0.0817
44574OCT     C289148  16.367   8.686   6.199  0.0233  0.0185 -0.3214
44575OCT     C189149   0.263  10.577   2.628  0.0434  0.2371  0.0477
44575OCT     C289150   0.398  10.866   2.237 -0.1095 -0.1061  0.2166
44576OCT     C189151   6.400   9.877  19.248  0.4595 -0.0706  0.0298
44576OCT     C289152   6.315   9.635  19.590 -0.2328  0.0021  0.0551
44577OCT     C189153   4.942  20.386  11.368 -0.2697 -0.0848 -0.0000
44577OCT     C289154   5.137  20.761  11.620 -0.0607 -0.3266 -0.0368
44578OCT     C189155   4.740   7.483   6.765  0.2129 -0.7945  0.5295
44578OCT     C289156   4.878   7.045   6.757 -0.2181 -0.1183  0.2675
44579OCT     C189157   9.453   7.140  22.371 -0.1609  0.3754 -0.2087
44579OCT     C289158   9.205   7.026  22.021  0.0571  0.0777  0.0681
44580OCT     C189159  14.692   2.617  15.315  0.0394  0.3172  0.0128
44580OCT     C289160  14.987   2.830  15.665 -0.0263 -0.0175 -0.1888
44581OCT     C189161   3.919  19.780  16.062 -0.2391  0.6421 -0.2572
44581OCT     C289162   3.691  19.752  16.499 -0.0632 -0.4176 -0.1092
44582OCT     C189163  15.123  15.301   6.067 -0.0972  0.2279 -0.0522
44582OCT     C289164  15.235  15.281   6.523  0.0039  0.0277 -0.2090
44583OCT     C189165   1.922   7.147  21.394  0.1148 -0.6906 -0.1332
44583OCT     C289166   2.278   7.287  21.648 -0.2834  0.3063  0.0767
44584OCT     C189167  19.520  23.131   3.634 -0.0613 -0.2656 -0.2184
44584OCT     C289168  19.335  23.553   3.504 -0.1872 -0.0196  0.1364
44585OCT     C189169   6.042   5.163  21.466 -0.0676 -0.1794  0.2537
44585OCT     C289170   5.946   5.591  21.336  0.0581 -0.1779 -0.0032
44586OCT     C189171   0.860   6.218  15.523 -0.0374  0.2725  0.3184
44586OCT     C289172   0.622   6.494  15.327  0.1528  0.3954  0.0899
44587OCT     C189173  18.913  10.271   0.917  0.0950  0.1691 -0.1420
44587OCT     C289174  18.976  10.231   0.423  0.0896 -0.3950  0.3675
44588OCT     C189175   8.735  18.163  10.141 -0.0070 -0.3911 -0.0847
44588OCT     C289176   9.206  18.286  10.092 -0.1238  0.2110 -0.1122
44589OCT     C189177  13.333   8.638  18.091  0.2919 -0.1360 -0.2104
44589OCT     C289178  12.901   8.625  17.929 -0.1028 -0.1620 -0.1932
44590OCT     C189179  20.553   2.663  17.383 -0.0779 -0.1434 -0.1818
44590OCT     C289180  20.300   2.662  17.783  0.1272  0.0485  0.0937
44591OCT     C189181  10.965  20.757   5.257  0.1525  0.1452  0.1164
44591OCT     C289182  10.820  20.722   5.710  0.3656 -0.3003  0.1933
44592OCT     C189183   9.469  13.194   7.547 -0.0917  0.0580  0.2604
44592OCT     C289184   9.530  13.620   7.717  0.1092  0.1537 -0.0808
44593OCT     C189185   5.990   2.876  12.849  0.2667 -0.2823  0.2572
44593OCT     C289186   5.879   3.148  12.496  0.2027 -0.0028 -0.2345
44594OCT     C189187  22.450   8.551   6.496  0.0213 -0.0905 -0.1811
44594OCT     C289188  22.634   8.186   6.287  0.0453 -0.0239 -0.0272
44595OCT     C189189   4.096   7.403  13.442 -0.1317  0.1889 -0.3444
44595OCT     C289190   3.901   7.213  13.836 -0.1915  0.1295 -0.1245
44596OCT     C189191   1.471   9.797  18.007  0.3142  0.2552  0.3918
44596OCT     C289192   1.026   9.827  18.099  0.1847 -0.0111 -0.2408
44597OCT     C189193   0.304   4.879  16.991 -0.2689 -0.2446  0.0518
44597OCT     C289194   0.669   5.148  16.949  0.2725 -0.5308  0.2514
44598OCT     C189195   3.373  17.297  10.234 -0.4868  0.3506 -0.2015
44598OCT     C289196   3.468  16.862  10.148  0.0949 -0.0941  0.1244
44599OCT     C189197   6.054  20.668  20.303 -0.1099  0.2558 -0.0898
44599OCT     C289198   6.000  20.423  19.879  0.1399  0.1678  0.0476
44600OCT     C189199  20.929  12.483  16.374 -0.3076 -0.2026 -0.2156
44600OCT     C289200  21.220  12.766  16.514 -0.5810 -0.0750  0.3420
44601OCT     C189201   8.318   6.882  22.833 -0.2133  0.1312  0.0363
44601OCT     C289202   8.773   6.764  22.901 -0.1075 -0.1589  0.1000
44602OCT     C189203  20.130  16.369  15.451  0.0766 -0.2241 -0.0562
44602OCT     C289204  20.397  16.460  15.082  0.0993 -0.0699 -0.2224
44603OCT     C189205  19.513   2.758  22.927  0.2111 -0.0345  0.0721
44603OCT     C289206  19.370   3.227  22.924  0.2961  0.2301 -0.1091
44604OCT     C189207  20.538  22.551   3.438  0.1216 -0.1042 -0.1119
44604OCT     C289208  20.640  22.201   3.186 -0.1444  0.0958  0.2060
44605OCT     C189209   2.071  12.711  11.078  0.0946 -0.0575  0.0270
44605OCT     C289210   1.943  13.106  11.260  0.5291 -0.1683  0.3104
44606OCT     C189211  16.136  23.168  21.659  0.0900 -0.2797  0.2914
44606OCT     C289212  15.894  22.848  21.884  0.1017 -0.1259  0.1122
44607OCT     C189213   3.337  11.760   2.384 -0.2682 -0.1339 -0.0669
44607OCT     C289214   3.664  11.860   2.098 -0.1299  0.1622 -0.0047
44608OCT     C189215   8.840  17.837  13.664 -0.0337 -0.0681 -0.0752
44608OCT     C289216   8.516  17.827  13.953  0.2558 -0.0227 -0.3089
44609OCT     C189217  21.018   7.019  10.765  0.1335  0.1946 -0.0954
44609OCT     C289218  20.993   6.533  10.868  0.0777  0.0068  0.1372
44610OCT     C189219  22.685  13.586   7.752  0.0894  0.0854 -0.3406
44610OCT     C289220  22.433  13.874   7.470  0.0282 -0.2120  0.1827
44611OCT     C189221  16.543  21.276   5.404  0.1006  0.2046  0.2350
44611OCT     C289222  16.218  21.345   5.056  0.1316 -0.0585 -0.2676
44612OCT     C189223  14.183  17.178   8.645  0.3689 -0.0676  0.0315
44612OCT     C289224  14.377  17.567   8.968 -0.1309 -0.6516 -0.1481
44613OCT     C189225   1.644   9.131   7.685  0.0338 -0.2951 -0.4990
44613OCT     C289226   1.229   8.973   7.630  0.1173 -0.1136  0.0369
44614OCT     C189227  13.369  19.615  17.768  0.2269  0.1478  0.1205
44614OCT     C289228  13.542  19.353  17.386  0.1369 -0.1983  0.1676
44615OCT     C189229   4.114  12.350  15.453  0.3517 -0.0826  0.0072
44615OCT     C289230   3.994  11.939  15.254  0.0100 -0.2384  0.0670
44616OCT     C189231  10.338  11.828   0.785 -0.2866  0.1044 -0.1729
44616OCT     C289232   9.957  12.024   0.677  0.1700  0.2076  0.3070
44617OCT     C189233   2.621   7.121   6.543 -0.0010  0.1650  0.0142
44617OCT     C289234   2.197   7.211   6.338  0.0637 -0.1001  0.0225
44618OCT     C189235   1.886   5.677  16.045 -0.0570 -0.0160  0.0374
44618OCT     C289236   1.647   5.962  15.733  0.0404 -0.3077 -0.0487
44619OCT     C189237   4.291  17.998  18.044  0.0606 -0.3103 -0.2372
44619OCT     C289238   4.366  18.000  17.584 -0.0756 -0.4424  0.0459
44620OCT     C189239  19.159   4.484  13.743  0.1477  0.4222 -0.2157
44620OCT     C289240  19.404   4.503  13.327 -0.4380  0.0978  0.1254
44621OCT     C189241   0.948   1.309  10.827  0.3257  0.1841  0.1840
44621OCT     C289242   1.059   1.211  11.230  0.0974  0.3127 -0.0305
44622OCT     C189243  12.539   2.428  15.811 -0.0724  0.1870 -0.0964
44622OCT     C289244  12.672   2.851  15.606 -0.0649 -0.1625 -0.1643
44623OCT     C189245  22.550  14.890  16.930  0.4628  0.0613 -0.1303
44623OCT     C289246  22.187  14.631  17.079 -0.0536  0.0329 -0.5636
44624OCT     C189247  14.900   7.752  11.860  0.0681 -0.2201 -0.1371
44624OCT     C289248  14.503   7.725  11.679  0.3698  0.0941 -0.1394
44625OCT     C189249   2.195  17.853   2.538 -0.0266 -0.0681 -0.2746
44625OCT     C289250   2.641  17.623   2.439  0.2711 -0.3384 -0.0789
44626OCT     C189251  12.474  21.859   7.526  0.0054  0.0573 -0.1266
44626OCT     C289252  12.819  21.781   7.819 -0.0213 -0.1902 -0.0355
44627OCT     C189253  19.577  16.849   0.645 -0.1967 -0.0063 -0.0905
44627OCT     C289254  19.213  17.060   0.622 -0.0119 -0.2821  0.1075
44628OCT     C189255   6.553  11.843  12.374  0.0676 -0.1505 -0.2179
44628OCT     C289256   6.237  11.731  12.707 -0.0987  0.1201 -0.0913
44629OCT     C189257  20.948  20.584  11.637 -0.0560 -0.6423  0.2342
44629OCT     C289258  20.534  20.544  11.477 -0.0866 -0.0944  0.1573
44630OCT     C189259  19.330   1.756  12.893 -0.1057  0.1106  0.1064
44630OCT     C289260  19.183   1.834  12.484 -0.1901 -0.4694  0.2258
44631OCT     C189261   1.818   6.396  15.666  0.0717 -0.2383 -0.0149
44631OCT     C289262   2.044   6.528  15.242 -0.0768 -0.1754 -0.0505
44632OCT     C189263   6.161  20.541  13.837 -0.2972  0.0478  0.0223
44632OCT     C289264   5.852  20.195  13.916 -0.0244 -0.1118 -0.0143
44633OCT     C189265   7.411  19.135   1.787  0.1850 -0.1104 -0.2185
44633OCT     C289266   7.361  18.721   1.888  0.1395  0.1275 -0.3919
44634OCT     C189267  16.199  23.290   3.966 -0.0889 -0.0199  0.2140
44634OCT     C289268  16.438  23.194   4.371  0.2001 -0.0669  0.0723
44635OCT     C189269   9.662  21.506  10.089  0.2240 -0.0070  0.1426
44635OCT     C289270   9.891  21.930   9.963 -0.1973 -0.0647  0.2711
44636OCT     C189271  18.099  22.801   9.037 -0.1773  0.0961  0.1501
44636OCT     C289272  18.481  22.961   9.150  0.1890 -0.0495 -0.5563
44637OCT     C189273  11.926   5.648  21.016  0.0946  0.0762 -0.5215
44637OCT     C289274  12.285   5.938  20.884  0.1660  0.1066 -0.0340
44638OCT     C189275   6.739  11.483   5.301  0.3693  0.3328 -0.0651
44638OCT     C289276   6.886  11.109   5.068  0.0815 -0.3868  0.2418
44639OCT     C189277   5.323  10.546  19.582  0.1720 -0.1946  0.1247
44639OCT     C289278   5.742  10.744  19.371  0.1675 -0.0321  0.2308
44640OCT     C189279   3.479   5.970  16.483  0.0767  0.3125  0.3204
44640OCT     C289280   3.872   5.914  16.733 -0.3666 -0.0945 -0.1287
44641OCT     C189281   7.446   6.146   7.472 -0.0458 -0.1689  0.0017
44641OCT     C289282   7.319   5.720   7.332 -0.3577 -0.0757  0.4390
44642OCT     C189283  23.321   7.431  18.042 -0.1518 -0.0708 -0.1000
44642OCT     C289284  23.606   7.195  18.402  0.0248 -0.0538 -0.1111
44643OCT     C189285  20.950  19.392   2.412 -0.0300  0.0464 -0.3480
44643OCT     C289286  20.738  19.460   2.814  0.1167  0.0634  0.0212
44644OCT     C189287  17.724   2.392  12.693 -0.0714  0.3332  0.2260
44644OCT     C289288  17.484   2.175  12.333  0.0490  0.0604  0.0090
44645OCT     C189289  14.858   2.598  10.156 -0.3049 -0.0102  0.0861
44645OCT     C289290  14.849   3.070  10.260 -0.0488  0.1366 -0.0870
44646OCT     C189291   8.469  10.146  13.428  0.2933 -0.1319  0.2282
44646OCT     C289292   8.581  10.377  13.027 -0.1075  0.3645  0.1424
44647OCT     C189293   5.788  10.922  18.895 -0.0059 -0.1328  0.0875
44647OCT     C289294   5.286  10.792  18.909 -0.2926  0.3923  0.1298
44648OCT     C189295  23.513   2.919  20.340 -0.3615 -0.0236  0.3290
44648OCT     C289296  23.642   2.933  20.785  0.0253  0.1186  0.1286
44649OCT     C189297   4.692  22.420   0.942  0.0499  0.1002 -0.0884
44649OCT     C289298   4.243  22.400   1.051  0.4121  0.0828 -0.0948
44650OCT     C189299   2.457   0.226  17.165 -0.1178  0.0489 -0.2638
44650OCT     C289300   2.617  23.529  17.309 -0.1156  0.1049  0.2075
44651OCT     C189301  12.641  16.136  22.689 -0.1019  0.0414 -0.2274
44651OCT     C289302  12.450  15.725  22.512  0.3515 -0.1495 -0.2288
44652OCT     C189303   5.595  19.469   1.544  0.2401 -0.0113  0.2158
44652OCT     C289304   5.863  19.276   1.867 -0.1864 -0.1711  0.0034
44653OCT     C189305  20.311   7.462  16.116  0.0679 -0.3811  0.1157
44653OCT     C289306  20.183   7.283  15.710  0.1110  0.1040  0.0909
44654OCT     C189307  13.579   7.301  13.890  0.0672 -0.1484 -0.1937
44654OCT     C289308  13.472   6.884  13.716  0.3649  0.0913 -0.2213
44655OCT     C189309  10.878  16.089   7.364  0.2725 -0.1221  0.0128
44655OCT     C289310  11.074  16.470   7.563  0.2160 -0.0709  0.0317
44656OCT     C189311   4.251  17.430  20.898  0.5141  0.2944 -0.0398
44656OCT     C289312   4.680  17.502  21.045 -0.1421  0.0484 -0.0080
44657OCT     C189313   3.246   2.284  19.594 -0.0753  0.0533  0.0524
44657OCT     C289314   3.048   2.636  19.358  0.1289 -0.3430  0.0333
44658OCT     C189315   1.689   6.674   6.635 -0.2206  0.0976 -0.1337
44658OCT     C289316   1.720   7.073   6.365  0.0951  0.0179  0.1152
44659OCT     C189317  13.638   1.950  18.579 -0.0518 -0.3512 -0.0559
44659OCT     C289318  13.625   1.828  18.175  0.0507  0.3459  0.0842
44660OCT     C189319  19.164   4.708  22.170  0.1915  0.3630 -0.0544
44660OCT     C289320  19.602   4.566  22.226  0.1237  0.1103 -0.0790
44661OCT     C189321   6.386  21.115   3.219  0.2295 -0.1472  0.5978
44661OCT     C289322   6.299  20.960   3.647 -0.0724 -0.4592 -0.3099
44662OCT     C189323  19.360  19.484   1.994  0.1620 -0.2708  0.1841
44662OCT     C289324  19.593  19.507   1.604 -0.3634 -0.1444  0.1142
44663OCT     C189325  12.485   0.794   3.927  0.1966  0.0715 -0.0488
44663OCT     C289326  12.049   0.630   3.945 -0.0448  0.0522 -0.2009
44664OCT     C189327  20.940  13.126   9.052  0.0721  0.1077 -0.0143
44664OCT     C289328  20.996  13.537   9.293  0.2077  0.0993 -0.2284
44665OCT     C189329  21.244  17.175   6.907 -0.2283  0.0262  0.0648
44665OCT     C289330  21.163  16.714   7.059 -0.2324 -0.2157 -0.2594
44666OCT     C189331  15.193   4.770  20.115 -0.1079  0.0411 -0.3092
44666OCT     C289332  14.714   4.759  19.950 -0.1253  0.4692  0.4509
44667OCT     C189333  21.478   9.793   1.327  0.1758 -0.3368 -0.0866
44667OCT     C289334  21.736   9.382   1.371  0.0175 -0.0479 -0.2689
44668OCT     C189335   2.272   9.741  16.665 -0.5527  0.1268  0.0389
44668OCT     C289336   2.410  10.107  16.387  0.0179  0.3731  0.0672
44669OCT     C189337   8.722   2.578  11.980  0.1239  0.1611 -0.2331
44669OCT     C289338   8.407   2.286  11.829 -0.0037 -0.1687  0.0561
44670OCT     C189339   1.696   7.810   0.513  0.2311 -0.0086  0.0377
44670OCT     C289340   1.519   7.371   0.396  0.0662 -0.3963  0.1059
44671OCT     C189341  12.615   0.506  23.262 -0.0212 -0.3699 -0.0819
44671OCT     C289342  12.986   0.203  23.236  0.0249 -0.1100 -0.0201
44672OCT     C189343  17.071  17.232   7.909  0.2920 -0.1722 -0.0964
44672OCT     C289344  16.724  17.471   7.797 -0.2032 -0.0000  0.1001
44673OCT     C189345   5.433  19.535  11.052  0.0968 -0.1283 -0.3685
44673OCT     C289346   5.111  19.543  11.419 -0.0211 -0.4343 -0.1497
44674OCT     C189347   1.580  18.171  10.352  0.1990  0.0484 -0.2968
44674OCT     C289348   1.717  18.579  10.412 -0.0467 -0.3727 -0.2731
44675OCT     C189349  22.747  17.699  12.018  0.0521  0.0161  0.1188
44675OCT     C289350  22.489  17.507  11.662 -0.1160 -0.0071 -0.1591
44676OCT     C189351  10.325  13.841  23.498 -0.0938 -0.1925 -0.0159
44676OCT     C289352  10.403  13.927  23.057 -0.0993  0.1371  0.2238
44677OCT     C189353  10.402   2.643  14.717  0.0743 -0.2552 -0.2082
44677OCT     C289354  10.393   2.472  15.130 -0.0456 -0.1776 -0.2234
44678OCT     C189355   9.063   3.198   4.701 -0.2888  0.1654  0.1781
44678OCT     C289356   9.522   3.246   4.837  0.0009  0.0457 -0.2792
44679OCT     C189357  13.129  10.339  11.536 -0.0868  0.1289 -0.2788
44679OCT     C289358  13.127  10.326  12.028  0.3335 -0.5316  0.2775
44680OCT     C189359   8.262  12.583  10.100  0.1288  0.3783 -0.0239
44680OCT     C289360   8.299  12.817   9.709  0.1222  0.1649 -0.1519
44681OCT     C189361  15.278   7.415  12.837  0.0414  0.3940  0.0653
44681OCT     C289362  14.909   7.351  12.614  0.1825 -0.0522 -0.1181
44682OCT     C189363  21.528   2.525  14.317  0.0266  0.2016  0.1317
44682OCT     C289364  21.030   2.487  14.410  0.1495 -0.0138  0.3062
44683OCT     C189365  18.015  19.527  10.307  0.1304  0.3011  0.0673
44683OCT     C289366  18.294  19.232  10.546 -0.0288  0.4234  0.0115
44684OCT     C189367  10.625  22.155   6.953  0.2165  0.0640 -0.0704
44684OCT     C289368  10.526  21.821   7.319 -0.2552 -0.0703 -0.1406
44685OCT     C189369   9.861   9.699   2.384  0.2724  0.1429  0.1143
44685OCT     C289370  10.184   9.454   2.219  0.0099 -0.2181  0.2955
44686OCT     C189371  23.048   1.959   6.448 -0.0141 -0.2462  0.1753
44686OCT     C289372  23.213   2.366   6.290 -0.1858 -0.1358  0.3699
44687OCT     C189373   1.677   7.796  16.155 -0.0432 -0.0815  0.1385
44687OCT     C289374   1.608   7.294  16.176 -0.1494 -0.0252  0.0267
44688OCT     C189375  18.491  15.860   0.174 -0.0076  0.0005  0.1862
44688OCT     C289376  18.369  15.953   0.597  0.2232 -0.0051 -0.1241
44689OCT     C189377   0.208  19.283  13.113  0.0804 -0.1675  0.2519
44689OCT     C289378   0.524  19.179  12.776  0.0180 -0.0832 -0.3127
44690OCT     C189379  19.503  19.862   9.986 -0.0668 -0.2156  0.2400
44690OCT     C289380  19.370  19.583  10.387  0.1651  0.3904 -0.1984
44691OCT     C189381  13.094  21.470  19.909  0.0151  0.0783 -0.1492
44691OCT     C289382  13.184  21.634  19.496  0.4813  0.0384  0.1864
44692OCT     C189383  12.257   0.923  21.690 -0.0224 -0.0633  0.1762
44692OCT     C289384  12.061   1.334  21.767 -0.1319 -0.1705 -0.0858
44693OCT     C189385   9.888  22.305  16.753 -0.0531 -0.0185 -0.1077
44693OCT     C289386   9.715  22.307  16.310  0.2367  0.2971 -0.4019
44694OCT     C189387   1.136   9.112  12.913 -0.1069 -0.2105 -0.1336
44694OCT     C289388   1.018   9.413  12.588  0.0022 -0.3512 -0.0757
44695OCT     C189389   2.208   8.327  12.000 -0.2197 -0.0220  0.2635
44695OCT     C289390   1.826   8.480  11.822 -0.1407  0.0670  0.1318
44696OCT     C189391  15.886   9.048  19.351 -0.2093 -0.2035  0.0443
44696OCT     C289392  15.675   8.661  19.471  0.7019  0.2195  0.1294
44697OCT     C189393  12.016  20.920  19.393 -0.2754 -0.2420 -0.0564
44697OCT     C289394  11.662  21.304  19.321 -0.1455  0.2886  0.1851
44698OCT     C189395   3.927   3.544  20.342 -0.1241  0.0235 -0.1059
44698OCT     C289396   4.029   3.467  19.912  0.1566  0.1064  0.1094
44699OCT     C189397  11.684   9.898   7.535  0.0982 -0.0513 -0.1488
44699OCT     C289398  11.541  10.290   7.326 -0.1853  0.2281 -0.2128
44700OCT     C189399  17.920  22.924   7.500  0.1269 -0.5211  0.0162
44700OCT     C289400  18.334  22.829   7.420  0.2832 -0.1157  0.3503
44701OCT     C189401   5.103  21.832   9.580  0.0701  0.1562 -0.0947
44701OCT     C289402   5.249  21.545   9.909  0.2834  0.1895  0.0795
44702OCT     C189403  16.231  11.238  17.323  0.0223  0.1367  0.0395
44702OCT     C289404  16.321  10.816  17.381 -0.1675  0.2470 -0.1022
44703OCT     C189405  12.066  22.475  16.794 -0.2078 -0.1478 -0.2135
44703OCT     C289406  12.050  22.030  16.621 -0.2683 -0.0711  0.0783
44704OCT     C189407  10.828  22.367  18.161 -0.0724  0.2519  0.0962
44704OCT     C289408  11.126  22.730  18.115 -0.0193  0.1796 -0.1090
44705OCT     C189409  12.156   6.035  19.458 -0.2290 -0.2813 -0.1898
44705OCT     C289410  12.313   6.271  19.799  0.1319 -0.1683  0.5422
44706OCT     C189411   1.584   8.638   9.469 -0.0281 -0.1343 -0.3456
44706OCT     C289412   1.753   8.216   9.454  0.1687  0.0970 -0.1812
44707OCT     C189413  14.398   4.701  14.579 -0.2612 -0.3096  0.4878
44707OCT     C289414  14.187   4.784  14.201  0.1504 -0.1086  0.0168
44708OCT     C189415   8.332   9.775   2.185 -0.3249 -0.0340  0.4890
44708OCT     C289416   8.268   9.873   2.655  0.0968  0.1713  0.2168
44709OCT     C189417  16.783   2.501  23.341 -0.2885  0.5234 -0.0493
44709OCT     C289418  16.353   2.689  23.361  0.1846 -0.0305 -0.0579
44710OCT     C189419   4.526   8.030  21.526  0.0893 -0.0226 -0.2257
44710OCT     C289420   4.990   8.138  21.565 -0.0896 -0.2673  0.0273
44711OCT     C189421  13.726   6.548  14.322 -0.0106 -0.3149 -0.3503
44711OCT     C289422  14.172   6.586  14.398 -0.2700 -0.0127  0.3718
44712OCT     C189423  15.809  23.489  11.291  0.0488 -0.0472  0.2275
44712OCT     C289424  15.854  23.416  11.738 -0.0435 -0.3233 -0.2246
44713OCT     C189425  22.165  19.185  15.470  0.4004  0.4593 -0.0414
44713OCT     C289426  22.172  18.787  15.194  0.1001  0.0426 -0.2153
44714OCT     C189427  22.954  10.894  12.787 -0.6191 -0.0654 -0.1314
44714OCT     C289428  22.601  10.973  12.460  0.0076  0.3708 -0.4201
44715OCT     C189429  17.356   4.007  16.418  0.2265  0.2699  0.1272
44715OCT     C289430  17.632   4.247  16.752 -0.1235  0.1634 -0.1404
44716OCT     C189431   9.427  18.549   2.308 -0.0461 -0.3544  0.2423
44716OCT     C289432   9.655  18.686   1.961 -0.0001  0.3282  0.3729
44717OCT     C189433  18.431   2.334  19.661  0.1586 -0.0353 -0.2588
44717OCT     C289434  18.540   2.575  20.037  0.1989 -0.2518  0.0788
44718OCT     C189435   9.779   5.653   1.578  0.0029  0.1144  0.4355
44718OCT     C289436  10.050   5.361   1.785  0.2363  0.2289 -0.1215
44719OCT     C189437   9.994  13.184  21.321 -0.0839  0.1096 -0.0380
44719OCT     C289438   9.704  13.024  20.936  0.0481 -0.0818  0.1679
44720OCT     C189439  16.130   7.163  11.296 -0.1340  0.1786 -0.0371
44720OCT     C289440  15.715   6.942  11.297  0.2586 -0.0752  0.1645
44721OCT     C189441   9.492   5.233   0.889  0.0889  0.2986 -0.1357
44721OCT     C289442   9.244   5.259   0.476 -0.1650 -0.3383  0.2053
44722OCT     C189443  13.868  21.954  13.892 -0.0662  0.4051 -0.2247
44722OCT     C289444  14.132  22.299  13.837 -0.2419 -0.0181  0.0355
44723OCT     C189445   1.769  16.835  21.654 -0.2012 -0.0293  0.3291
44723OCT     C289446   1.594  16.593  21.278  0.0288 -0.1381  0.2792
44724OCT     C189447   7.584  19.488  13.509 -0.1524  0.2073  0.1790
44724OCT     C289448   7.477  19.472  13.974  0.0252 -0.1193  0.0935
44725OCT     C189449  21.652   0.102   5.139 -0.4758  0.1350 -0.3803
44725OCT     C289450  21.593   0.454   5.398 -0.0529  0.0716 -0.2036
44726OCT     C189451  11.055  14.602  23.014 -0.2706  0.3865  0.2077
44726OCT     C289452  10.836  14.171  23.059  0.1577 -0.2501  0.4584
44727OCT     C189453  14.435   0.420  17.037 -0.0582 -0.2710  0.1065
44727OCT     C289454  14.691   0.379  17.455 -0.1592 -0.2468  0.2264
44728OCT     C189455   1.607  10.991   5.184  0.3609 -0.1320  0.1893
44728OCT     C289456   2.012  10.765   5.247 -0.2634  0.2969  0.0737
44729OCT     C189457   3.916   3.095  11.497  0.4412  0.0989  0.0520
44729OCT     C289458   3.918   2.717  11.793  0.1124 -0.2120  0.3714
44730OCT     C189459  16.859   8.130  18.992 -0.2569  0.0495  0.1267
44730OCT     C289460  17.089   7.728  18.785  0.0484  0.2547  0.0859
44731OCT     C189461  13.362   7.891  16.687  0.1143  0.1551 -0.0207
44731OCT     C289462  13.669   8.025  16.351 -0.1205  0.1474  0.0439
44732OCT     C189463  15.652  18.502   5.504 -0.2182 -0.1444 -0.1678
44732OCT     C289464  15.776  18.330   5.892  0.1514  0.1222 -0.4860
44733OCT     C189465   8.752   3.143  11.514  0.0469 -0.0740  0.1532
44733OCT     C289466   9.113   3.319  11.736 -0.1481  0.5517  0.0179
44734OCT     C189467   2.291  14.434  22.732 -0.1917  0.2960 -0.1618
44734OCT     C289468   2.285  14.756  22.464  0.0317 -0.0251  0.0622
44735OCT     C189469   6.667   5.747  21.142 -0.2274  0.2240 -0.2207
44735OCT     C289470   6.555   5.510  21.462  0.2769  0.0531 -0.2743
44736OCT     C189471  22.561  15.111  12.156  0.0786 -0.2521 -0.1205
44736OCT     C289472  22.571  14.694  12.389  0.0968  0.3135  0.2154
44737OCT     C189473   6.097  13.158  20.439  0.0615  0.1576  0.2839
44737OCT     C289474   5.964  13.557  20.576 -0.0813  0.0549  0.2494
44738OCT     C189475   8.872  12.883   5.418  0.3075  0.0176 -0.1033
44738OCT     C289476   9.086  13.127   5.068  0.2049 -0.0327 -0.2158
44739OCT     C189477  22.861   5.936  11.958 -0.1039 -0.0965  0.4823
44739OCT     C289478  23.259   6.085  11.704 -0.0831  0.1676 -0.0809
44740OCT     C189479   9.262  23.218  16.959  0.2026  0.0472 -0.0536
44740OCT     C289480   8.954  23.559  17.145  0.4359 -0.2138 -0.1556
44741OCT     C189481   5.838  21.837  12.408  0.4061  0.0021  0.2596
44741OCT     C289482   6.241  21.740  12.151  0.2523  0.0789  0.2922
44742OCT     C189483   5.595  13.186   6.239  0.0292  0.0001  0.2103
44742OCT     C289484   5.954  13.507   6.179 -0.4811 -0.1010 -0.1105
44743OCT     C189485  11.220  22.773  12.209 -0.2063  0.0629 -0.2528
44743OCT     C289486  10.998  23.085  12.574 -0.4637  0.0935  0.3729
44744OCT     C189487  13.815  10.870   5.904  0.1562 -0.0894 -0.1122
44744OCT     C289488  13.557  10.616   6.124  0.2598 -0.1428 -0.0784
44745OCT     C189489  22.346   7.613  19.962  0.1863  0.1567 -0.0198
44745OCT     C289490  22.763   7.469  19.954  0.3342 -0.1414  0.2739
44746OCT     C189491  23.173  16.393   6.884  0.0990  0.0489 -0.0664
44746OCT     C289492  22.926  16.009   6.685 -0.2637 -0.3358  0.1563
44747OCT     C189493  16.535   1.305   1.303  0.1521  0.2316 -0.4020
44747OCT     C289494  16.749   1.190   0.851 -0.0214 -0.0596 -0.0523
44748OCT     C189495  17.542  10.159   9.739  0.3938  0.0624  0.1873
44748OCT     C289496  17.657  10.379  10.134  0.1411  0.0086  0.0552
44749OCT     C189497  23.419  16.679   9.009  0.0632 -0.0220 -0.1099
44749OCT     C289498   0.117  16.407   8.913 -0.1262  0.2924 -0.0486
44750OCT     C189499  14.978   4.344   1.280  0.0918  0.2418  0.1852
44750OCT     C289500  15.296   4.200   0.924  0.1674 -0.2000  0.1937
44751OCT     C189501   7.509   3.143   8.546 -0.0781  0.0347 -0.0887
44751OCT     C289502   7.440   3.160   8.110  0.0015 -0.2092  0.0558
44752OCT     C189503   0.665   8.526  10.556  0.2143  0.4789 -0.1760
44752OCT     C289504   0.827   8.275  10.214 -0.1448  0.1518 -0.0081
44753OCT     C189505  20.254  20.565  18.019 -0.2617 -0.1498 -0.0228
44753OCT     C289506  20.355  20.338  18.426  0.3837 -0.2104 -0.1337
44754OCT     C189507   2.211  19.028  18.272  0.2780  0.0879 -0.0412
44754OCT     C289508   2.102  18.609  18.197 -0.2759 -0.1829 -0.2081
44755OCT     C189509  12.582  15.537   4.678  0.0955 -0.1318 -0.2961
44755OCT     C289510  12.755  15.279   5.076  0.0602 -0.1306  0.0258
44756OCT     C189511  12.581  21.613  22.823  0.1664  0.2289 -0.0921
44756OCT     C289512  12.159  21.798  22.976  0.0246  0.1442  0.0326
44757OCT     C189513  13.854  11.852  11.246  0.1282 -0.2182  0.1842
44757OCT     C289514  13.626  12.163  11.467 -0.0094  0.2388 -0.4481
44758OCT     C189515  13.232  16.950   2.302 -0.2173 -0.2467 -0.1087
44758OCT     C289516  12.976  17.274   2.489  0.0220 -0.3527 -0.0812
44759OCT     C189517  13.040   7.160   0.003 -0.1158 -0.0160 -0.1278
44759OCT     C289518  13.176   7.142  23.285 -0.0963  0.3464  0.2335
44760OCT     C189519  14.398   0.661  10.217  0.1352  0.0974 -0.0537
44760OCT     C289520  14.264   0.767  10.665 -0.0654 -0.0810 -0.0883
44761OCT     C189521  10.752  19.935   4.819  0.2245  0.2722 -0.0667
44761OCT     C289522  11.044  20.124   5.140 -0.0325  0.0973  0.1423
44762OCT     C189523   6.384   6.964   9.624 -0.0341 -0.2168 -0.0356
44762OCT     C289524   6.006   6.744   9.457  0.0653  0.4599  0.0620
44763OCT     C189525   1.517  15.181  23.140  0.0111  0.0108 -0.1580
44763OCT     C289526   1.036  15.224  23.045  0.3694  0.0534 -0.1397
44764OCT     C189527   7.441  15.087  10.852  0.1138 -0.0676  0.3424
44764OCT     C289528   7.270  15.394  10.642 -0.0646 -0.0597 -0.1147
44765OCT     C189529  14.256   4.961  16.034 -0.2033 -0.2084  0.0780
44765OCT     C289530  14.004   4.877  15.637 -0.0205  0.3051  0.1646
44766OCT     C189531   0.006  21.069   1.365  0.3107 -0.4867  0.1566
44766OCT     C289532   0.022  20.841   1.716 -0.1461  0.0217  0.2372
44767OCT     C189533  16.747  13.633  14.503 -0.2627 -0.0961 -0.0872
44767OCT     C289534  16.908  13.725  14.862 -0.2124 -0.1403 -0.1176
44768OCT     C189535  21.168   1.704  16.444 -0.3779 -0.0661  0.1151
44768OCT     C289536  21.252   2.169  16.267  0.3879  0.1265  0.1417
44769OCT     C189537  10.382  22.770   6.795  0.1656 -0.0423  0.1477
44769OCT     C289538  10.254  22.922   6.379 -0.0833  0.1382 -0.0977
44770OCT     C189539  17.136   6.151   1.499  0.0686  0.3504  0.1749
44770OCT     C289540  17.461   5.942   1.171  0.3624  0.1756  0.5037
44771OCT     C189541   4.828   4.533   9.766  0.0152  0.1823 -0.4389
44771OCT     C289542   5.224   4.764   9.678  0.0777  0.0329  0.1697
44772OCT     C189543  20.973   4.377  23.076  0.0851 -0.3595 -0.0996
44772OCT     C289544  20.544   4.299  22.958  0.0009 -0.1349  0.1265
44773OCT     C189545   2.989  15.227  13.814 -0.3511  0.1308 -0.0542
44773OCT     C289546   2.880  15.621  13.611 -0.2046 -0.0199 -0.1537
44774OCT     C189547   3.672  22.067   2.091 -0.5435  0.4737  0.3447
44774OCT     C289548   4.053  21.978   2.352 -0.7025 -0.2332  0.1860
44775OCT     C189549   5.279  21.531   3.098 -0.0343  0.1744  0.3145
44775OCT     C289550   4.907  21.733   3.305  0.0540  0.1943 -0.0816
44776OCT     C189551   2.332  17.852   3.716 -0.0881  0.1734  0.0593
44776OCT     C289552   2.377  17.981   3.296  0.0580 -0.2640  0.2375
44777OCT     C189553  10.796  19.274  18.844  0.0400 -0.4842 -0.2603
44777OCT     C289554  10.546  18.887  18.739  0.0736  0.4156  0.0632
44778OCT     C189555  14.078  22.871  16.759  0.2939  0.3099  0.1901
44778OCT     C289556  14.422  23.082  16.535 -0.0087 -0.1002 -0.3339
44779OCT     C189557   2.338   2.788  22.673 -0.1736  0.5789 -0.3370
44779OCT     C289558   2.489   3.179  22.769  0.2164 -0.2210 -0.0933
44780OCT     C189559  10.700  19.212  11.420 -0.1071 -0.1367  0.2473
44780OCT     C289560  10.910  19.637  11.377 -0.2815 -0.0887 -0.1634
44781OCT     C189561  20.245  21.756  18.866 -0.4669 -0.2346 -0.3059
44781OCT     C289562  20.434  22.187  18.761  0.2134 -0.0682  0.0535
44782OCT     C189563   5.733   1.449  12.714  0.1770  0.1593 -0.0762
44782OCT     C289564   5.377   1.629  12.959 -0.3486  0.0272  0.2473
44783OCT     C189565   2.363   2.594   1.542  0.0046  0.0107 -0.2073
44783OCT     C289566   2.789   2.785   1.398  0.1351  0.0972 -0.4033
44784OCT     C189567   4.486  13.348   8.774 -0.0854 -0.4375  0.2025
44784OCT     C289568   4.735  12.988   8.871  0.0620 -0.0663 -0.0547
44785OCT     C189569  14.080  21.608  23.055  0.1314  0.2443 -0.1780
44785OCT     C289570  14.432  21.866  23.071 -0.0799  0.3948  0.0388
44786OCT     C189571  17.078   8.753  22.289 -0.1702 -0.0023 -0.1468
44786OCT     C289572  17.061   8.426  21.934 -0.0944  0.0719 -0.0249
44787OCT     C189573  18.846  20.593  21.459  0.1081  0.0715  0.0600
44787OCT     C289574  18.893  20.620  21.918  0.0440 -0.2095 -0.0512
44788OCT     C189575   7.213   9.793  21.192 -0.0901 -0.1503 -0.0836
44788OCT     C289576   7.253   9.511  20.848 -0.0578 -0.2612  0.0759
44789OCT     C189577  15.389   0.443   7.396 -0.0133 -0.0388 -0.1813
44789OCT     C289578  15.380   0.354   6.954  0.2800 -0.0203  0.0491
44790OCT     C189579  13.479   1.209   7.855  0.2084 -0.0073 -0.2602
44790OCT     C289580  13.226   0.851   7.589  0.0062 -0.1211 -0.0268
44791OCT     C189581  19.134  20.619  22.758 -0.2716  0.0022 -0.0384
44791OCT     C289582  19.506  20.910  22.621 -0.3221  0.0933 -0.1444
44792OCT     C189583   5.565  15.706   2.022 -0.3741 -0.1825  0.1253
44792OCT     C289584   5.175  15.532   2.071 -0.1996  0.2402  0.0466
44793OCT     C189585  10.779   0.142   1.604  0.1397 -0.3659  0.2530
44793OCT     C289586  10.653   0.255   2.025 -0.0636  0.1161  0.0557
44794OCT     C189587   2.594   8.194  13.895 -0.1747  0.3152 -0.1009
44794OCT     C289588   2.968   7.993  13.775  0.2881  0.3179  0.2319
44795OCT     C189589  19.036  23.684  18.717  0.1576  0.2494  0.3619
44795OCT     C289590  19.413  23.470  18.993  0.2652  0.4883  0.2491
44796OCT     C189591   7.969   2.370   3.496 -0.0944 -0.0781 -0.1285
44796OCT     C289592   8.418   2.612   3.469 -0.2321  0.0640 -0.0166
44797OCT     C189593  16.316   6.955  13.150  0.1852  0.0722  0.4713
44797OCT     C289594  16.473   7.328  12.881  0.2102 -0.2977 -0.4073
44798OCT     C189595  13.888  23.259  15.693  0.2455  0.0027 -0.2121
44798OCT     C289596  14.041  23.153  16.099  0.2807  0.1469  0.1141
44799OCT     C189597   3.993   4.323   4.126 -0.1673 -0.1635 -0.1061
44799OCT     C289598   4.164   4.688   4.382  0.0422 -0.0313 -0.0851
44800OCT     C189599  12.234  14.741  17.378 -0.1284  0.2340  0.0042
44800OCT     C289600  12.397  15.113  17.485 -0.0603 -0.2020 -0.0322
44801OCT     C189601  16.114  21.218   0.011 -0.1678  0.3543  0.1775
44801OCT     C289602  16.525  21.234  23.560  0.0762  0.2433  0.2388
44802OCT     C189603  22.424   9.162  18.192  0.1492  0.0255 -0.0179
44802OCT     C289604  22.553   9.633  18.253 -0.1759 -0.1882 -0.2741
44803OCT     C189605   2.516  12.114  11.124  0.2787 -0.2030  0.2861
44803OCT     C289606   2.121  12.154  10.937 -0.0133 -0.1130  0.1714
44804OCT     C189607  18.030   4.962   3.566 -0.0914 -0.2246 -0.1881
44804OCT     C289608  18.126   5.074   3.994  0.0246 -0.2709 -0.0186
44805OCT     C189609  22.617   5.387  17.983 -0.2739 -0.3040 -0.1034
44805OCT     C289610  23.017   5.538  17.839  0.0827 -0.3265  0.1554
44806OCT     C189611   8.564   6.323  17.153  0.2533  0.0004  0.0802
44806OCT     C289612   8.205   6.495  17.391  0.3986  0.0809 -0.0733
44807OCT     C189613   6.884  19.503  22.940 -0.1604 -0.0558  0.0283
44807OCT     C289614   7.072  19.649  23.390 -0.2475 -0.0742  0.1989
44808OCT     C189615   4.627  20.855  13.610  0.0479  0.1086  0.3101
44808OCT     C289616   4.702  20.474  13.428  0.1155 -0.1420 -0.1374
44809OCT     C189617  14.223   9.881   3.574 -0.1698  0.4087  0.1889
44809OCT     C289618  13.867  10.050   3.321  0.0807  0.1449 -0.1828
44810OCT     C189619   1.459   0.324  13.770  0.0880  0.1459 -0.2480
44810OCT     C289620   1.592   0.840  13.724  0.1143  0.0464  0.1118
44811OCT     C189621   4.135  17.247   2.210  0.1992 -0.1722 -0.1194
44811OCT     C289622   4.403  16.851   2.244 -0.2651 -0.1902 -0.0320
44812OCT     C189623  18.079   6.568  10.571  0.2303  0.0862  0.1754
44812OCT     C289624  17.864   6.541  10.965  0.1225 -0.3735 -0.2047
44813OCT     C189625  19.284  16.931  14.048  0.2601  0.2310 -0.0358
44813OCT     C289626  19.370  16.730  13.599  0.1545  0.4846  0.0231
44814OCT     C189627  15.682   9.313  10.732 -0.1661  0.0409 -0.1548
44814OCT     C289628  16.089   9.071  10.776 -0.1376 -0.0012 -0.1906
44815OCT     C189629   0.289   3.868   9.029  0.0905  0.1754  0.0496
44815OCT     C289630   0.057   3.964   9.405  0.0932 -0.0664  0.1239
44816OCT     C189631   1.748   7.610   7.883 -0.0956  0.1359  0.0985
44816OCT     C289632   1.388   7.534   7.640  0.0454  0.2668 -0.0648
44817OCT     C189633  22.781  23.526  19.854 -0.1301 -0.4279 -0.0680
44817OCT     C289634  22.613   0.028  20.269 -0.0929 -0.2095  0.1022
44818OCT     C189635  23.463  21.962   1.378 -0.0935 -0.0968 -0.2844
44818OCT     C289636   0.115  22.169   1.483  0.0971  0.1975 -0.0383
44819OCT     C189637  19.526   5.215  10.622  0.1695 -0.0583  0.0113
44819OCT     C289638  19.436   5.104  11.069  0.0067  0.0087 -0.0761
44820OCT     C189639  14.518  20.636   3.253 -0.0750  0.1535 -0.1204
44820OCT     C289640  14.737  20.193   3.210 -0.0793  0.0479 -0.2468
44821OCT     C189641  17.871   2.053  19.024  0.3049 -0.3229  0.3366
44821OCT     C289642  18.146   1.871  18.694  0.3805  0.0033 -0.4251
44822OCT     C189643   1.408   6.308   8.508 -0.0886  0.0276  0.0028
44822OCT     C289644   1.048   6.188   8.262  0.1980  0.6069 -0.3191
44823OCT     C189645   6.600  13.196   2.985  0.1591  0.2475  0.2347
44823OCT     C289646   6.922  13.159   2.621 -0.2664 -0.2799 -0.0242
44824OCT     C189647   2.125   9.888   8.106  0.6104 -0.2243 -0.2104
44824OCT     C289648   2.084  10.325   8.269  0.0891  0.3546  0.2235
44825OCT     C189649  14.973   4.014  22.270  0.0681  0.1109  0.2442
44825OCT     C289650  15.227   3.889  21.905 -0.1283 -0.1190  0.0447
44826OCT     C189651  23.079   1.811  19.738  0.1307  0.1678 -0.2158
44826OCT     C289652  22.884   1.968  19.308  0.1937 -0.1065  0.1082
44827OCT     C189653   1.891   5.609  17.286 -0.2225  0.2521  0.0176
44827OCT     C289654   1.806   5.875  16.900 -0.0492 -0.0953  0.0111
44828OCT     C189655  21.000   1.335   6.859  0.0151  0.0549  0.1523
44828OCT     C289656  20.844   1.357   6.456  0.0158 -0.5586 -0.0915
44829OCT     C189657  22.595  13.731  12.327 -0.0911 -0.1193 -0.4799
44829OCT     C289658  22.764  13.483  11.967  0.1266 -0.3211 -0.1880
44830OCT     C189659  23.266  14.110  18.026 -0.0804  0.2385  0.0963
44830OCT     C289660  22.837  13.950  18.015  0.2224 -0.0313 -0.1167
44831OCT     C189661   8.974   9.244  10.295  0.2349 -0.3074 -0.0601
44831OCT     C289662   8.800   8.957   9.980  0.2443  0.1634  0.2219
44832OCT     C189663  17.724   5.730  16.784  0.4199 -0.2829  0.4147
44832OCT     C289664  17.413   5.307  16.865 -0.2775 -0.1548  0.0691
44833OCT     C189665  17.593  15.801   7.808  0.1987  0.0106 -0.0945
44833OCT     C289666  17.988  15.677   7.627 -0.3370 -0.0583  0.0938
44834OCT     C189667  13.801   0.920   8.070 -0.0701  0.2700  0.1901
44834OCT     C289668  13.606   0.949   8.461 -0.0648  0.2370  0.0958
44835OCT     C189669  13.870  12.910  10.190 -0.3714  0.1465 -0.1111
44835OCT     C289670  13.944  12.823  10.656  0.3676  0.0314 -0.0413
44836OCT     C189671  23.038   8.074  21.425  0.5264  0.0294  0.4472
44836OCT     C289672  23.431   7.789  21.443 -0.5501  0.2970  0.0240
44837OCT     C189673  10.682  18.628   6.475  0.1953  0.2503 -0.3754
44837OCT     C289674  11.022  18.743   6.724 -0.0425  0.0707  0.2438
44838OCT     C189675   6.101  20.472   9.191 -0.0743 -0.3682  0.0334
44838OCT     C289676   5.718  20.607   9.457 -0.2890 -0.0288  0.1293
44839OCT     C189677   9.553   4.726   3.829  0.1619 -0.0438  0.0961
44839OCT     C289678   9.267   4.822   4.158  0.1972  0.0272  0.2848
44840OCT     C189679   5.917  17.036  16.014 -0.1849 -0.4589 -0.1919
44840OCT     C289680   5.633  16.861  15.696 -0.2889  0.3195  0.1764
44841OCT     C189681   4.640   9.388  11.807 -0.0352 -0.0776  0.0429
44841OCT     C289682   4.393   9.484  11.423 -0.1024  0.0435 -0.0031
44842OCT     C189683   7.050  12.571   3.950 -0.0450 -0.1301  0.2530
44842OCT     C289684   7.252  12.615   4.316 -0.1402  0.2651  0.0718
44843OCT     C189685  23.062  16.119  22.781 -0.1672  0.2399 -0.0120
44843OCT     C289686  22.958  15.688  22.593  0.1246  0.3446 -0.2129
44844OCT     C189687   4.465  21.452   3.216  0.3933  0.0341 -0.1167
44844OCT     C289688   4.415  21.600   3.643 -0.3826  0.2392 -0.2327
44845OCT     C189689   5.316   6.874  17.140  0.2521 -0.1784 -0.2025
44845OCT     C289690   5.170   6.617  16.817 -0.0332  0.3104  0.0063
44846OCT     C189691   4.499   4.242  22.534 -0.2750 -0.0950  0.1155
44846OCT     C289692   4.895   4.458  22.692 -0.2562  0.1875  0.2459
44847OCT     C189693  13.852  11.543  18.094  0.2669 -0.0458  0.1235
44847OCT     C289694  13.556  11.893  18.258 -0.0168 -0.4290 -0.3465
44848OCT     C189695   0.435   1.869   3.463  0.0939 -0.3730 -0.1631
44848OCT     C289696   0.167   2.253   3.459 -0.0607 -0.1160 -0.1161
44849OCT     C189697  21.246  11.729  21.456 -0.5905 -0.0817 -0.2604
44849OCT     C289698  21.495  11.819  21.055 -0.3296 -0.2279  0.0015
44850OCT     C189699  21.914  20.456   1.452 -0.0788  0.0827  0.3139
44850OCT     C289700  21.518  20.483   1.720 -0.3003 -0.0722 -0.1640
44851OCT     C189701   7.141  13.045   4.657  0.2834  0.1868 -0.0777
44851OCT     C289702   7.581  13.146   4.886 -0.1811 -0.0466 -0.3287
44852OCT     C189703  19.826   0.471  11.513  0.2377  0.0325  0.2098
44852OCT     C289704  19.766   0.043  11.344  0.0037 -0.0894 -0.2154
44853OCT     C189705  23.336   1.832   7.870  0.0329 -0.0463  0.0549
44853OCT     C289706  23.685   1.878   8.277  0.2171  0.2233 -0.0111
44854OCT     C189707  17.703   6.393   2.081 -0.1869 -0.2681  0.1724
44854OCT     C289708  17.940   6.565   1.790 -0.1475  0.0188  0.0658
44855OCT     C189709  18.669  19.393  22.692  0.0840  0.1478  0.3044
44855OCT     C289710  18.833  18.920  22.575  0.0542 -0.3802 -0.2551
44856OCT     C189711  13.897  22.435   8.632  0.2291  0.0409  0.0689
44856OCT     C289712  14.094  22.129   8.822 -0.1069 -0.2390  0.1580
44857OCT     C189713   9.443  11.175   5.253 -0.0299  0.0102 -0.1548
44857OCT     C289714   9.385  11.439   4.903 -0.0503  0.1708  0.3330
44858OCT     C189715  17.963  11.633   1.474  0.1611 -0.1308 -0.3305
44858OCT     C289716  17.575  11.356   1.477 -0.3346 -0.2853 -0.0426
44859OCT     C189717  10.747  20.064   2.879 -0.0592 -0.1085  0.0239
44859OCT     C289718  10.975  19.917   3.239 -0.3622 -0.0136 -0.2464
44860OCT     C189719  23.488   3.726  10.577 -0.0543 -0.1038  0.0269
44860OCT     C289720  23.588   4.037  10.892  0.1059  0.0806 -0.3745
44861OCT     C189721  22.331   4.581  16.045  0.0819 -0.0529  0.0883
44861OCT     C289722  22.513   4.995  16.223 -0.3503 -0.1913 -0.1114
44862OCT     C189723  17.175   4.800  21.465  0.2125 -0.0913 -0.0621
44862OCT     C289724  17.510   4.986  21.699 -0.0717 -0.4085  0.0816
44863OCT     C189725  17.833   4.314  21.306 -0.3346 -0.0972 -0.2594
44863OCT     C289726  17.600   4.717  21.248  0.1879  0.2027 -0.3238
44864OCT     C189727   1.703  23.221  11.333  0.0835 -0.0340 -0.0238
44864OCT     C289728   1.462  23.456  10.996 -0.2606  0.1136 -0.2222
44865OCT     C189729   8.520  12.555   0.490 -0.0673  0.2683 -0.0983
44865OCT     C289730   8.918  12.462   0.525  0.4190 -0.1557  0.0720
44866OCT     C189731  19.612   7.876  17.758  0.0039  0.2206 -0.3124
44866OCT     C289732  19.292   7.602  18.035  0.1610  0.0752  0.3502
44867OCT     C189733  16.591   6.976  15.946 -0.2693 -0.1857  0.2856
44867OCT     C289734  16.314   7.129  16.324 -0.5156  0.1377  0.2848
44868OCT     C189735  16.181   2.546   2.106  0.0266  0.1331 -0.1911
44868OCT     C289736  16.167   2.311   1.675  0.1803  0.0075  0.0833
44869OCT     C189737   2.470  20.593  15.658 -0.2068 -0.0203 -0.1715
44869OCT     C289738   2.462  20.164  15.857  0.3798  0.1347  0.4495
44870OCT     C189739   2.601  13.056  17.327  0.1372  0.1319  0.1672
44870OCT     C289740   2.406  12.789  17.655 -0.1614 -0.2148 -0.5465
44871OCT     C189741   9.857  18.907   7.891  0.0490 -0.0572 -0.1753
44871OCT     C289742  10.084  19.291   7.694 -0.1485  0.3484  0.1327
44872OCT     C189743  22.657  20.005  18.577 -0.2530  0.4544 -0.2614
44872OCT     C289744  22.715  20.389  18.407  0.0687  0.3032  0.2598
44873OCT     C189745  12.728   5.628   2.165  0.1208  0.3911  0.2642
44873OCT     C289746  12.387   5.310   2.048 -0.4498  0.2262 -0.1204
44874OCT     C189747  17.005   3.252  22.864  0.0083 -0.4104 -0.1400
44874OCT     C289748  17.277   2.972  23.124 -0.0094 -0.0951 -0.2482
44875OCT     C189749  22.538  15.270  15.469  0.0169 -0.3505 -0.0997
44875OCT     C289750  22.441  15.310  15.930  0.0466  0.0281  0.0439
44876OCT     C189751  15.913  11.690  11.295 -0.1851  0.1039 -0.2477
44876OCT     C289752  15.654  11.455  10.948  0.0983  0.0348 -0.2243
44877OCT     C189753   3.410   9.881  12.503 -0.2145  0.2711 -0.0933
44877OCT     C289754   2.943   9.626  12.493  0.1347 -0.2258  0.1470
44878OCT     C189755  17.807  18.657   7.279  0.3155 -0.0282 -0.0460
44878OCT     C289756  17.709  18.793   7.717 -0.1108 -0.1493 -0.0237
44879OCT     C189757  12.271   7.803  23.544 -0.1182  0.1366 -0.1209
44879OCT     C289758  12.428   8.033  23.184  0.0672  0.1551 -0.1997
44880OCT     C189759  11.451  18.103   1.656  0.4560 -0.1114 -0.3645
44880OCT     C289760  11.458  18.492   1.992  0.1273 -0.2307  0.1860
44881OCT     C189761   1.724   2.750  14.424  0.0527 -0.2706  0.0491
44881OCT     C289762   1.660   2.786  14.835 -0.2195 -0.0929  0.0968
44882OCT     C189763  18.018  20.037   4.927  0.0044 -0.4718 -0.0764
44882OCT     C289764  17.909  20.039   4.506 -0.3141 -0.0809  0.0286
44883OCT     C189765  17.523  23.130  22.883 -0.0840  0.3406 -0.0905
44883OCT     C289766  17.570  23.080  22.393 -0.1756 -0.4223  0.2229
44884OCT     C189767  21.818   9.764   0.917  0.1644  0.2661  0.1228
44884OCT     C289768  21.656   9.379   0.736  0.0775 -0.0964  0.0341
44885OCT     C189769  16.395  14.992  13.564  0.0120 -0.2531  0.2547
44885OCT     C289770  16.705  15.323  13.631  0.3292  0.1491 -0.0505
44886OCT     C189771   6.916   0.736   7.193  0.0782 -0.0824 -0.0849
44886OCT     C289772   6.533   0.522   7.372 -0.0831  0.1347  0.1414
44887OCT     C189773  16.241  17.916  19.137 -0.0978  0.0104  0.0723
44887OCT     C289774  15.907  17.666  19.330  0.2597 -0.0656  0.1151
44888OCT     C189775  16.730  22.694   7.887 -0.3055  0.1189  0.0051
44888OCT     C289776  16.419  22.658   7.499  0.1620 -0.0659  0.3152
44889OCT     C189777   4.173  21.554   0.543  0.0973  0.0457  0.0501
44889OCT     C289778   4.162  21.044   0.636  0.1230  0.1092 -0.0253
44890OCT     C189779  21.349  19.575  16.023  0.0236  0.1461 -0.3471
44890OCT     C289780  21.163  19.280  15.701 -0.2971 -0.1068 -0.1650
44891OCT     C189781   8.196  13.176   6.901  0.1722  0.4081  0.0463
44891OCT     C289782   8.207  13.609   6.863  0.1320 -0.3510 -0.0188
44892OCT     C189783  15.280   2.599  11.509  0.0426 -0.1978 -0.0312
44892OCT     C289784  14.951   2.351  11.667  0.3245  0.3261  0.0378
44893OCT     C189785  15.365  22.091   7.635 -0.0493  0.1902 -0.0201
44893OCT     C289786  15.653  22.479   7.826  0.2853 -0.1591 -0.3101
44894OCT     C189787  16.309   8.753  17.711  0.0155  0.1851 -0.2454
44894OCT     C289788  16.379   9.081  17.405  0.0093  0.0095 -0.2194
44895OCT     C189789  13.793   0.030  22.112  0.2657 -0.1404 -0.0809
44895OCT     C289790  13.388   0.029  21.847 -0.0511 -0.2964 -0.2501
44896OCT     C189791  11.490   1.148  14.947 -0.2095  0.0330  0.4812
44896OCT     C289792  11.765   0.813  14.944 -0.1389  0.0133 -0.0469
44897OCT     C189793   9.499   9.533  15.313 -0.1283  0.0875  0.0402
44897OCT     C289794   9.709   9.730  15.659  0.1053  0.0538 -0.3019
44898OCT     C189795  13.218  13.203  13.554 -0.2300  0.1618  0.0086
44898OCT     C289796  13.469  13.034  13.959  0.1360 -0.1414  0.1876
44899OCT     C189797  16.570  16.560  13.230 -0.3526  0.1634  0.2115
44899OCT     C289798  16.438  16.975  13.418  0.2081  0.1295  0.0870
44900OCT     C189799   8.058   1.778  11.552  0.0005  0.1474 -0.1275
44900OCT     C289800   8.314   2.087  11.365 -0.0867 -0.1830 -0.4084
44901OCT     C189801  17.157   8.456   1.557 -0.0633  0.0708 -0.3649
44901OCT     C289802  16.718   8.425   1.693 -0.2404 -0.3200  0.1468
44902OCT     C189803  20.231  14.195   9.176  0.0616  0.0312  0.2007
44902OCT     C289804  20.722  14.331   9.289 -0.1147 -0.3997 -0.0470
44903OCT     C189805   7.075   7.509  15.066 -0.2702  0.0328 -0.0886
44903OCT     C289806   7.103   7.520  14.598  0.1370  0.1285 -0.2984
44904OCT     C189807   6.281  16.178  22.055 -0.0713 -0.1488 -0.0481
44904OCT     C289808   6.747  16.140  22.075 -0.2728  0.1273  0.4103
44905OCT     C189809  18.762  17.505   9.555 -0.1716  0.0951 -0.0921
44905OCT     C289810  18.472  17.171   9.597 -0.4256  0.2278  0.2150
44906OCT     C189811  21.432   3.027  11.430 -0.2744  0.1070 -0.1858
44906OCT     C289812  21.027   3.205  11.350  0.1452 -0.2500  0.1751
44907OCT     C189813  17.904  17.979   4.768  0.0226 -0.1947  0.0931
44907OCT     C289814  17.753  18.006   4.305  0.0540 -0.3292 -0.4048
44908OCT     C189815  16.087   5.437   7.430 -0.1487 -0.0484 -0.2893
44908OCT     C289816  16.190   5.002   7.600 -0.2451 -0.0276  0.0574
44909OCT     C189817  17.213   0.773   0.003  0.5366 -0.0041  0.0984
44909OCT     C289818  16.893   0.495   0.210 -0.5182 -0.2425 -0.1064
44910OCT     C189819   6.920  17.505   1.013  0.2380 -0.1943  0.0101
44910OCT     C289820   7.164  17.123   0.905  0.0275 -0.0806  0.2053
44911OCT     C189821  19.689   4.701   1.359 -0.1145  0.2037 -0.3735
44911OCT     C289822  19.818   4.353   1.053 -0.0236 -0.2025 -0.0262
44912OCT     C189823   3.583  20.059   3.752  0.2946 -0.2330  0.1505
44912OCT     C289824   3.166  20.140   3.693 -0.1017 -0.1333  0.2953
44913OCT     C189825   7.956  18.615  14.715 -0.2219 -0.2013 -0.0588
44913OCT     C289826   8.288  18.967  14.686 -0.0270 -0.1067 -0.4049
44914OCT     C189827  18.571  13.198  19.863 -0.1121 -0.0433  0.2721
44914OCT     C289828  18.599  12.729  19.664 -0.0768 -0.0682 -0.0048
44915OCT     C189829   2.970   7.881  22.279 -0.0916 -0.1294  0.1322
44915OCT     C289830   2.750   8.229  21.983  0.2539  0.0666 -0.3654
44916OCT     C189831  21.419  23.266   6.673  0.0440  0.4639  0.2485
44916OCT     C289832  21.100  23.596   6.494 -0.2817  0.2516  0.1964
44917OCT     C189833   9.436   4.452  20.969  0.1282  0.1325 -0.0105
44917OCT     C289834   9.698   4.347  20.584 -0.1523 -0.4638 -0.0873
44918OCT     C189835  23.523   8.817   6.732  0.0703 -0.0341  0.0620
44918OCT     C289836  23.395   8.353   6.604 -0.3455  0.2012  0.1347
44919OCT     C189837   0.408  22.829  17.658  0.0297 -0.3093 -0.4596
44919OCT     C289838   0.688  22.972  18.008 -0.0643 -0.1875 -0.0038
44920OCT     C189839  10.610   9.893  12.076  0.1231 -0.1586  0.2687
44920OCT     C289840  10.942  10.144  11.915 -0.1274 -0.1192 -0.0648
44921OCT     C189841   9.438   3.646   0.952 -0.4771 -0.2343  0.0361
44921OCT     C289842   9.557   3.508   1.320  0.1169  0.1374  0.0445
44922OCT     C189843  16.252   3.336   4.541  0.3903  0.0232 -0.1122
44922OCT     C289844  16.372   3.436   4.079  0.2327  0.0742 -0.1159
44923OCT     C189845  21.293   2.260  22.398  0.3524  0.1217  0.0885
44923OCT     C289846  21.609   2.186  22.074 -0.0442  0.2904  0.3955
44924OCT     C189847   2.288  17.287   4.683 -0.0949  0.0215 -0.3773
44924OCT     C289848   2.084  17.699   4.577 -0.1759  0.2921 -0.3484
44925OCT     C189849  13.710  21.305  10.320 -0.1150  0.0272 -0.0753
44925OCT     C289850  13.518  21.079   9.932 -0.1765  0.0298  0.1801
44926OCT     C189851   1.440   3.988  13.599 -0.3845  0.3772 -0.0075
44926OCT     C289852   1.773   3.655  13.426  0.1743  0.0213 -0.1795
44927OCT     C189853  17.015   3.832  16.057 -0.0136  0.5888 -0.3525
44927OCT     C289854  16.537   3.666  16.043 -0.2616  0.2785 -0.0490
44928OCT     C189855  10.701  14.359  10.116  0.1275  0.4619 -0.0709
44928OCT     C289856  10.372  14.517   9.914 -0.1492 -0.3708 -0.3531
44929OCT     C189857  23.091  13.217  18.814  0.2220 -0.3665 -0.1164
44929OCT     C289858  22.923  13.466  18.552  0.1072  0.0667 -0.2031
44930OCT     C189859  11.100  18.831  14.237 -0.0455 -0.0525  0.1230
44930OCT     C289860  10.913  18.478  14.394  0.1451  0.1852  0.0870
44931OCT     C189861  18.901   6.674  23.244 -0.1168 -0.0302 -0.4594
44931OCT     C289862  19.231   6.569  23.558 -0.0653  0.1135 -0.1452
44932OCT     C189863  21.693  17.286  10.588 -0.1079  0.0482 -0.2657
44932OCT     C289864  22.163  17.355  10.766 -0.1040  0.0958  0.1545
44933OCT     C189865   2.632   6.204  12.457 -0.0837 -0.2695  0.1325
44933OCT     C289866   3.026   6.156  12.275  0.1307 -0.3003  0.0531
44934OCT     C189867  19.510  23.543   1.138 -0.3255  0.2893  0.1143
44934OCT     C289868  19.337  23.548   1.548 -0.0511 -0.1161 -0.1215
44935OCT     C189869  13.408  22.209   9.733 -0.3014 -0.1401 -0.1734
44935OCT     C289870  13.053  22.059  10.023 -0.0645 -0.2762  0.3566
44936OCT     C189871  22.247  10.518   3.624 -0.2108 -0.0350  0.0929
44936OCT     C289872  22.252  10.059   3.760 -0.1492 -0.3945 -0.0052
44937OCT     C189873  14.113  22.108  18.965 -0.0564 -0.1614 -0.1540
44937OCT     C289874  13.913  21.747  18.663  0.0145 -0.0533 -0.3157
44938OCT     C189875  14.334   8.391  16.700 -0.0477  0.2087 -0.0820
44938OCT     C289876  14.317   8.034  17.049 -0.1222  0.0603 -0.0548
44939OCT     C189877   8.459  21.801   4.818 -0.0608 -0.1573  0.4264
44939OCT     C289878   8.278  21.431   4.548  0.0016 -0.1924 -0.0239
44940OCT     C189879  22.328  18.196  21.247 -0.0333 -0.1912  0.2313
44940OCT     C289880  22.310  17.962  20.810 -0.1860  0.1057  0.1968
44941OCT     C189881   5.626  19.632  14.948 -0.3932  0.3594 -0.3332
44941OCT     C289882   5.432  19.262  15.259  0.1015  0.3324 -0.0026
44942OCT     C189883  23.378  12.241  18.982 -0.0500  0.1346 -0.2130
44942OCT     C289884  23.525  11.783  19.090 -0.2110  0.0416 -0.1290
44943OCT     C189885   2.356   5.877  13.036 -0.5046 -0.0790 -0.1476
44943OCT     C289886   2.446   5.761  12.614 -0.1443 -0.0502 -0.3874
44944OCT     C189887   8.404   1.105   6.972 -0.2223  0.2383 -0.0861
44944OCT     C289888   8.402   1.550   6.990  0.2700  0.0446  0.0550
44945OCT     C189889  10.310   8.951   8.190  0.3408  0.0434 -0.2181
44945OCT     C289890  10.580   8.593   8.379  0.2091 -0.2564 -0.2325
44946OCT     C189891   2.473  13.216   3.715 -0.0410 -0.1792  0.0255
44946OCT     C289892   2.697  12.844   3.893  0.1498  0.2059 -0.0513
44947OCT     C189893  17.228   0.850   6.082 -0.6568  0.2237 -0.0325
44947OCT     C289894  17.051   1.133   6.407 -0.3114  0.1166  0.1962
44948OCT     C189895  17.616   0.332   8.699  0.1108  0.1922  0.1018
44948OCT     C289896  17.177   0.252   8.880  0.1084  0.0245 -0.0959
44949OCT     C189897   7.718  10.962   9.958  0.1493 -0.0730  0.1074
44949OCT     C289898   7.255  11.152   9.959 -0.1412 -0.1799 -0.1451
44950OCT     C189899   9.194   3.095  15.433 -0.2199 -0.3072  0.1414
44950OCT     C289900   9.578   3.237  15.708 -0.2042  0.0317 -0.0187
44951OCT     C189901   4.725  16.042   9.165  0.2742 -0.2358 -0.1491
44951OCT     C289902   4.720  16.343   9.596  0.3000  0.0925  0.3192
44952OCT     C189903  17.991  17.662  16.572 -0.0305 -0.0620  0.1670
44952OCT     C289904  17.979  17.213  16.611 -0.1488  0.1180  0.0802
44953OCT     C189905  14.661  15.861  11.793 -0.1147  0.3668  0.0748
44953OCT     C289906  14.269  15.827  11.525  0.0880 -0.0374  0.2952
44954OCT     C189907   5.697  10.786  10.223  0.2174  0.0559  0.1005
44954OCT     C289908   5.936  11.229  10.154  0.0116  0.0780 -0.2799
44955OCT     C189909   9.963  14.633  18.953  0.1562  0.2979 -0.0160
44955OCT     C289910   9.703  14.236  19.034 -0.0492  0.1459  0.5201
44956OCT     C189911  16.042  17.523   0.670 -0.0240  0.4623 -0.1609
44956OCT     C289912  16.454  17.735   0.447 -0.2532 -0.1881  0.2497
44957OCT     C189913   7.410  16.465  22.898 -0.3255 -0.3716 -0.3378
44957OCT     C289914   7.739  16.235  23.139  0.0861  0.2331 -0.0256
44958OCT     C189915  17.971  16.574  22.541  0.0545  0.0580 -0.1572
44958OCT     C289916  18.307  16.607  22.885 -0.1352  0.1231 -0.1313
44959OCT     C189917   6.083   1.737   2.564  0.0973 -0.4131  0.0110
44959OCT     C289918   5.979   2.038   2.914  0.3131 -0.1185 -0.3333
44960OCT     C189919  17.705  20.745  20.004  0.2585  0.3447 -0.2005
44960OCT     C289920  17.348  20.940  20.185 -0.0737 -0.1990 -0.2944
44961OCT     C189921   2.593   6.635  20.945  0.3312  0.1597  0.3611
44961OCT     C289922   2.353   6.979  21.186  0.0350 -0.1741 -0.1379
44962OCT     C189923  19.284   4.293   2.899  0.1897  0.3222  0.0923
44962OCT     C289924  18.984   4.193   3.240 -0.1865 -0.1365  0.1979
44963OCT     C189925  22.915  18.577   7.394  0.0316  0.3029 -0.3138
44963OCT     C289926  22.877  19.054   7.429 -0.0437 -0.4106  0.1620
44964OCT     C189927   9.822  16.307  17.656  0.1211 -0.1160 -0.0238
44964OCT     C289928   9.595  16.550  17.269 -0.4355  0.0939 -0.1352
44965OCT     C189929  14.724  13.964  23.566 -0.2957 -0.0322  0.1839
44965OCT     C289930  14.898  14.192   0.156  0.0105 -0.1675 -0.2345
44966OCT     C189931   1.946   0.798   4.642  0.1443 -0.0092 -0.0681
44966OCT     C289932   1.800   0.435   4.823 -0.0664  0.0169  0.3138
44967OCT     C189933   7.045  17.539  10.573 -0.2618  0.2167  0.0536
44967OCT     C289934   7.064  17.689  10.110  0.1197  0.0062  0.0526
44968OCT     C189935   4.151  17.023   3.521  0.0938 -0.2857  0.1619
44968OCT     C289936   4.564  17.286   3.524  0.5522 -0.3274  0.0304
44969OCT     C189937   1.357   2.747   5.561 -0.0945 -0.2270 -0.0823
44969OCT     C289938   0.971   2.902   5.714  0.3083  0.3045 -0.1499
44970OCT     C189939  17.836   2.447   4.544 -0.1515  0.1331 -0.3831
44970OCT     C289940  18.285   2.311   4.483 -0.0579 -0.1716 -0.0663
44971OCT     C189941  16.707  13.526  12.352  0.0682 -0.2623 -0.0429
44971OCT     C289942  16.840  13.524  12.789  0.4617  0.2037 -0.0747
44972OCT     C189943  17.053   4.475  18.821  0.2474 -0.1595 -0.1043
44972OCT     C289944  17.009   4.032  19.025  0.2673  0.1425 -0.1325
44973OCT     C189945  15.785  11.621  16.847 -0.0988 -0.2972  0.2066
44973OCT     C289946  16.216  11.468  16.863  0.0937  0.2996  0.2891
44974OCT     C189947  19.940  14.697   4.605  0.3460 -0.2166  0.1020
44974OCT     C289948  20.333  14.788   4.460  0.0611 -0.4089  0.0076
44975OCT     C189949  17.131  17.047  12.629  0.0521 -0.3257  0.1541
44975OCT     C289950  17.310  16.653  12.575 -0.1649 -0.1171 -0.3195
44976OCT     C189951   1.073  20.060  16.106 -0.2985 -0.1105  0.2302
44976OCT     C289952   1.498  20.050  15.838  0.2432 -0.3865 -0.2749
44977OCT     C189953  20.857  23.257  19.306  0.1022  0.6261  0.3144
44977OCT     C289954  20.507  23.063  19.080  0.3930  0.2323  0.0998
44978OCT     C189955  13.688   7.986   6.299 -0.1183  0.1501  0.1863
44978OCT     C289956  13.482   8.277   5.965 -0.2406 -0.3253  0.2116
44979OCT     C189957  21.529   1.099   9.559  0.0671 -0.1431  0.0662
44979OCT     C289958  21.459   1.094   9.038  0.0399  0.1480 -0.1349
44980OCT     C189959  19.432   1.356   5.985 -0.3083 -0.2005  0.0704
44980OCT     C289960  19.850   1.559   5.993  0.5711 -0.0466  0.4084
44981OCT     C189961  23.547  21.300  19.121  0.0503 -0.0801 -0.5640
44981OCT     C289962   0.064  21.071  18.771  0.2226  0.1584  0.1304
44982OCT     C189963  20.507  13.587   8.556  0.4009  0.1977 -0.3580
44982OCT     C289964  20.233  13.967   8.530  0.0569  0.2067 -0.3454
44983OCT     C189965  23.220   5.201  14.189  0.0666 -0.4500 -0.2478
44983OCT     C289966  23.454   5.506  14.475 -0.0726 -0.0038  0.4633
44984OCT     C189967   5.245  14.010  13.895  0.0891 -0.0980 -0.1237
44984OCT     C289968   5.529  14.229  13.568 -0.0666  0.3759 -0.0313
44985OCT     C189969  11.943  17.915   5.709 -0.1546 -0.2000  0.0869
44985OCT     C289970  11.632  17.641   5.833 -0.2691 -0.0324  0.0175
44986OCT     C189971  16.628   5.733   6.803  0.0646  0.0142 -0.2018
44986OCT     C289972  16.902   6.069   7.017 -0.2500 -0.0402 -0.0653
44987OCT     C189973  19.828   4.118  16.636 -0.1019 -0.0514 -0.0493
44987OCT     C289974  19.443   4.169  16.855  0.0393 -0.1740 -0.0681
44988OCT     C189975   0.345   0.607  18.748 -0.0515  0.1445  0.0355
44988OCT     C289976   0.605   0.284  18.494 -0.0800 -0.0296  0.1860
44989OCT     C189977   8.302  23.618  23.187 -0.0253  0.0258  0.1523
44989OCT     C289978   8.138  23.559  22.741  0.2585  0.1770 -0.2243
44990OCT     C189979   2.308  15.471  16.680  0.0402 -0.3339 -0.0844
44990OCT     C289980   2.649  15.781  16.578  0.2071 -0.4973 -0.2354
44991OCT     C189981   7.449  16.924   6.247 -0.0572  0.2437 -0.1603
44991OCT     C289982   7.030  16.825   6.111 -0.0889  0.1913 -0.0830
44992OCT     C189983  17.158  16.598  13.891  0.0194 -0.1850 -0.2472
44992OCT     C289984  17.222  16.124  13.875 -0.0229 -0.4735 -0.2321
44993OCT     C189985  18.368  19.622   9.476  0.0274  0.3266 -0.2486
44993OCT     C289986  18.298  19.339   9.895 -0.0307 -0.0246  0.2378
44994OCT     C189987   0.026   0.689  19.451 -0.1457 -0.2786  0.2135
44994OCT     C289988  23.433   0.369  19.205 -0.1178  0.0589  0.0917
44995OCT     C189989   9.303   3.854  17.590 -0.1024 -0.3160  0.1375
44995OCT     C289990   9.040   3.893  17.224 -0.1644 -0.0724  0.0399
44996OCT     C189991   2.773   9.384  19.999  0.4137  0.0783 -0.1588
44996OCT     C289992   3.026   9.190  20.389 -0.0336 -0.0922  0.1728
44997OCT     C189993  19.609   8.589   7.798 -0.1341  0.1055 -0.1555
44997OCT     C289994  19.428   8.459   7.357 -0.1972  0.1310 -0.4169
44998OCT     C189995  15.092  22.690  12.301  0.2000  0.0248  0.2270
44998OCT     C289996  15.236  22.291  12.501 -0.3693  0.1642  0.1666
44999OCT     C189997   0.349  23.573  18.697 -0.1252 -0.0480 -0.0769
44999OCT     C289998   0.598  23.316  18.374  0.1916  0.2924  0.0880
45000OCT     C189999  14.114   6.519   8.624 -0.1241  0.4000 -0.4162
45000OCT     C290000  14.549   6.359   8.452 -0.1783 -0.2927 -0.1159
45001OCT     C190001   1.201  17.997   7.374 -0.1158  0.0783 -0.1316
45001OCT     C290002   1.005  17.621   7.242  0.0639  0.0682 -0.0120
45002OCT     C190003   7.733   6.508  23.318  0.0369 -0.3725  0.2760
45002OCT     C290004   8.030   6.925  23.308  0.2173 -0.0549 -0.2345
45003OCT     C190005  16.992   5.811   0.994 -0.4498  0.0590  0.5423
45003OCT     C290006  17.140   5.531   1.310  0.2057 -0.3688 -0.0118
45004OCT     C190007  12.188  21.770  15.435  0.0664 -0.1805 -0.1273
45004OCT     C290008  12.235  21.715  15.872 -0.0029 -0.2401  0.1555
45005OCT     C190009   3.875   8.856  10.893 -0.1615  0.1562  0.1234
45005OCT     C290010   4.051   8.909  11.319 -0.2300  0.1324  0.2429
45006OCT     C190011   1.304   5.796  11.210  0.1486  0.1963 -0.1854
45006OCT     C290012   1.732   5.780  11.115  0.0781 -0.1257 -0.0329
45007OCT     C190013  14.288  14.720   6.485 -0.3403  0.1229  0.1236
45007OCT     C290014  14.353  14.641   6.001  0.0975 -0.0647 -0.3406
45008OCT     C190015  23.726  23.469   3.545  0.1064  0.1675 -0.1077
45008OCT     C290016   0.083   0.185   3.691  0.5081 -0.0395  0.0625
45009OCT     C190017   7.469   6.982  16.413 -0.1303  0.0058 -0.0530
45009OCT     C290018   7.145   7.256  16.258  0.2136  0.0563  0.0315
45010OCT     C190019  20.796   9.167  20.909 -0.0581  0.0918  0.1382
45010OCT     C290020  20.336   9.213  20.838 -0.1526  0.2509  0.2746
45011OCT     C190021   4.620  15.487  17.424 -0.0768 -0.2966  0.0209
45011OCT     C290022   4.670  15.592  16.941  0.1143  0.0413  0.0300
45012OCT     C190023  14.817  10.934   8.519 -0.1087  0.0112 -0.2452
45012OCT     C290024  14.910  10.746   8.143 -0.1249 -0.0732  0.2632
45013OCT     C190025  15.428   6.877  22.503 -0.0233  0.4230  0.1907
45013OCT     C290026  15.473   6.621  22.870  0.1373 -0.2560  0.0035
45014OCT     C190027  16.628  14.960   3.163 -0.1994  0.3884 -0.4355
45014OCT     C290028  16.254  15.187   3.250 -0.6837 -0.0323 -0.2340
45015OCT     C190029   7.506  18.229   1.940 -0.1182 -0.5841  0.0238
45015OCT     C290030   7.772  18.578   1.758 -0.2384  0.0356 -0.1819
45016OCT     C190031   6.950  15.125  18.736  0.0160 -0.0082 -0.0210
45016OCT     C290032   6.554  15.030  19.031 -0.1697 -0.4970  0.0874
45017OCT     C190033   4.716  12.842   1.361  0.0538  0.0316 -0.0324
45017OCT     C290034   5.143  12.918   1.512 -0.1695  0.0033  0.3044
45018OCT     C190035   7.051  17.776  14.534  0.3384  0.3954  0.3528
45018OCT     C290036   6.910  17.410  14.764  0.0228  0.0036 -0.2138
45019OCT     C190037  21.141   1.131  21.425 -0.3458  0.1060 -0.0059
45019OCT     C290038  20.933   1.070  21.043 -0.1406  0.2491  0.1405
45020OCT     C190039  15.605   7.445  10.538 -0.2290 -0.1769  0.3295
45020OCT     C290040  15.320   7.807  10.571 -0.2542  0.1565 -0.3596
45021OCT     C190041  13.258  14.425  23.343 -0.1352 -0.1169 -0.0229
45021OCT     C290042  12.941  14.781  23.261  0.0882  0.2624  0.1804
45022OCT     C190043  11.366   1.710   3.408 -0.0297 -0.2293 -0.3892
45022OCT     C290044  11.776   1.762   3.187 -0.0281 -0.2873  0.1617
45023OCT     C190045   2.643  12.726  19.166 -0.0429  0.1026 -0.1724
45023OCT     C290046   2.352  12.644  19.577 -0.1952 -0.3352  0.0436
45024OCT     C190047   6.925   9.706  21.574  0.0075 -0.2157  0.0164
45024OCT     C290048   6.512   9.540  21.418 -0.0102 -0.0070  0.0266
45025OCT     C190049   8.161  13.594  22.673 -0.4892 -0.5008  0.1513
45025OCT     C290050   7.854  13.661  23.012  0.0109 -0.1636  0.0948
45026OCT     C190051  17.399   7.852  13.838  0.2361 -0.0258 -0.0074
45026OCT     C290052  17.659   7.504  13.988  0.0873  0.0438 -0.3416
45027OCT     C190053   9.070  17.330  12.767 -0.0045  0.4115  0.1524
45027OCT     C290054   8.637  17.540  12.588 -0.0407 -0.1953  0.1717
45028OCT     C190055   3.345   5.276   7.785 -0.1683  0.1638 -0.2522
45028OCT     C290056   3.249   5.734   7.705  0.1573 -0.0797 -0.2375
45029OCT     C190057  18.998  23.353   4.505  0.0022  0.0172 -0.0243
45029OCT     C290058  19.458  23.362   4.609 -0.1434 -0.2208 -0.1054
45030OCT     C190059  22.918  21.070   5.794 -0.1269 -0.3621  0.1065
45030OCT     C290060  22.633  21.312   5.539 -0.2004 -0.0890  0.0859
45031OCT     C190061   8.842  23.226  15.319 -0.3837  0.2106  0.1497
45031OCT     C290062   8.719  23.591  15.564  0.0342 -0.2790  0.0448
45032OCT     C190063   8.361  17.995   1.679 -0.5365  0.1275  0.5062
45032OCT     C290064   7.968  17.843   1.879 -0.1141 -0.0089  0.2095
45033OCT     C190065   5.782   4.729   8.510 -0.3986  0.0945  0.0672
45033OCT     C290066   5.552   5.088   8.756 -0.0623 -0.1212 -0.2492
45034OCT     C190067  21.974  17.179  20.053  0.3140  0.3902  0.1779
45034OCT     C290068  22.261  17.134  20.396  0.2965  0.1823  0.1611
45035OCT     C190069  22.980  11.566   5.342 -0.1387  0.0903 -0.2531
45035OCT     C290070  23.252  11.950   5.293  0.1482 -0.2035 -0.1340
45036OCT     C190071   6.682   7.601   8.315  0.1792 -0.1521  0.1692
45036OCT     C290072   6.549   7.992   8.433 -0.1322  0.0250  0.0462
45037OCT     C190073  11.755   8.718  16.790 -0.6541  0.4344 -0.0378
45037OCT     C290074  11.620   8.353  16.656  0.1878 -0.0942 -0.2090
45038OCT     C190075   1.446  23.039   5.017  0.1192  0.0758  0.0821
45038OCT     C290076   1.734  22.875   4.723  0.0849 -0.3292 -0.0201
45039OCT     C190077  17.248  18.058  17.367  0.2411  0.0272  0.0530
45039OCT     C290078  17.323  17.825  16.972 -0.2011 -0.2550  0.4079
45040OCT     C190079  19.014   8.669   6.650 -0.0162 -0.1517 -0.4099
45040OCT     C290080  18.792   8.396   6.365  0.2588  0.0435 -0.4719
45041OCT     C190081  12.606   8.249  20.871  0.3002 -0.3052 -0.3299
45041OCT     C290082  12.386   8.636  21.055 -0.0055 -0.1659  0.0285
45042OCT     C190083  17.145   9.291  13.571 -0.0907  0.2870 -0.3176
45042OCT     C290084  17.326   9.459  13.990 -0.4664  0.1181  0.0403
45043OCT     C190085   1.493  13.117  16.480  0.2423 -0.1659 -0.0438
45043OCT     C290086   1.557  13.192  16.952 -0.0718  0.0603 -0.2862
45044OCT     C190087  21.654  22.216   0.143 -0.2138  0.3753  0.1019
45044OCT     C290088  21.966  21.977  23.669 -0.1064 -0.1209  0.1942
45045OCT     C190089  17.784  12.259  18.045 -0.2414  0.0882 -0.1449
45045OCT     C290090  17.996  11.850  18.170  0.0391 -0.2463  0.0290
45046OCT     C190091   1.488  12.318  13.243  0.0066 -0.1346 -0.1043
45046OCT     C290092   1.045  12.440  13.016 -0.1529 -0.0344 -0.1596
45047OCT     C190093   2.658   2.040   3.727 -0.0813  0.1628  0.0966
45047OCT     C290094   2.217   2.131   3.596 -0.4467  0.1521  0.0108
45048OCT     C190095   1.506   4.736  20.195 -0.0238  0.3931 -0.3804
45048OCT     C290096   1.882   4.722  20.468  0.4205  0.0708  0.0559
45049OCT     C190097  13.611   4.135  16.946  0.1854  0.3279  0.0755
45049OCT     C290098  13.333   4.261  16.562 -0.1979 -0.2551 -0.1260
45050OCT     C190099   5.241  18.675   9.488 -0.0523 -0.0695  0.0372
45050OCT     C290100   5.587  18.405   9.410  0.0282  0.0262  0.1999
45051OCT     C190101   0.664  14.049   6.791  0.3293 -0.0017 -0.2192
45051OCT     C290102   0.202  13.912   6.649  0.1595 -0.2901  0.4182
45052OCT     C190103  16.963  16.060  12.114  0.0511 -0.1751  0.1244
45052OCT     C290104  17.047  15.802  12.519  0.2553  0.0492 -0.0316
45053OCT     C190105  12.230  11.166   5.392  0.1842  0.0399  0.0293
45053OCT     C290106  12.374  10.778   5.436 -0.0720 -0.1324  0.0491
45054OCT     C190107   0.634  13.316  14.539 -0.0854 -0.1030 -0.3476
45054OCT     C290108   0.503  13.043  14.907  0.1604  0.1156  0.2312
45055OCT     C190109   8.440  10.578  17.021 -0.0285  0.1632  0.2226
45055OCT     C290110   7.990  10.725  16.931 -0.0160 -0.3440 -0.1622
45056OCT     C190111  19.841   4.451  19.696 -0.2586 -0.2492  0.3310
45056OCT     C290112  19.463   4.219  19.824  0.1543 -0.1391  0.1065
45057OCT     C190113   7.201  20.307   4.985  0.0936 -0.2697 -0.0761
45057OCT     C290114   6.744  20.397   4.854 -0.2645 -0.1101  0.0011
45058OCT     C190115   9.615   3.729   4.949  0.6390  0.2139  0.2959
45058OCT     C290116   9.130   3.645   4.960 -0.0657 -0.1325 -0.1084
45059OCT     C190117   6.061  19.941  21.659  0.0340 -0.3215 -0.0049
45059OCT     C290118   6.478  19.974  21.420  0.2192 -0.0792 -0.1282
45060OCT     C190119  15.335   9.326  16.287  0.0171 -0.1304  0.1932
45060OCT     C290120  14.896   9.408  16.499 -0.2940 -0.0826  0.1844
45061OCT     C190121  12.415   4.129   3.430 -0.0835  0.0091 -0.3158
45061OCT     C290122  12.481   3.945   3.040 -0.2265  0.2928 -0.1318
45062OCT     C190123   2.957  13.040   7.133 -0.0904  0.1755 -0.2554
45062OCT     C290124   2.706  13.260   6.804 -0.0020 -0.0336  0.0618
45063OCT     C190125  19.892   5.526  17.362 -0.1309 -0.3910 -0.2390
45063OCT     C290126  19.788   5.330  16.949 -0.1778  0.0565 -0.2087
45064OCT     C190127  11.651   1.802  22.493 -0.2816  0.2514 -0.3911
45064OCT     C290128  11.816   1.326  22.613 -0.0012 -0.3506 -0.0489
45065OCT     C190129  20.758   1.519  11.984  0.0914  0.1770 -0.0255
45065OCT     C290130  20.819   1.546  11.569 -0.0624 -0.1974  0.0638
45066OCT     C190131   1.889  19.841  14.398  0.1679 -0.0884  0.1476
45066OCT     C290132   2.038  20.231  14.555 -0.0433  0.1529  0.2081
45067OCT     C190133  16.582   3.022   5.909  0.0915 -0.1837 -0.2392
45067OCT     C290134  16.657   2.554   5.814 -0.1004 -0.3087 -0.1200
45068OCT     C190135   4.504   1.194   8.829 -0.3770 -0.1705 -0.0712
45068OCT     C290136   4.536   1.040   8.395 -0.4210 -0.0053  0.1597
45069OCT     C190137   6.882   7.146   2.214 -0.3188  0.2089 -0.2232
45069OCT     C290138   6.606   7.498   2.252  0.2701 -0.2021 -0.0049
45070OCT     C190139   0.855   5.675  12.791 -0.0121 -0.2345 -0.1833
45070OCT     C290140   0.559   6.041  12.596 -0.3106 -0.1579 -0.1544
45071OCT     C190141   7.048   2.682  14.279 -0.2266 -0.0637 -0.2388
45071OCT     C290142   6.707   2.959  14.158  0.1058 -0.2734  0.3281
45072OCT     C190143  21.407  21.376  18.660  0.2674  0.1097 -0.2937
45072OCT     C290144  20.935  21.407  18.491 -0.4201  0.4809 -0.3462
45073OCT     C190145   5.592   5.971   2.746  0.2398 -0.0481  0.4243
45073OCT     C290146   5.270   6.305   2.721  0.3740 -0.0031 -0.1244
45074OCT     C190147   2.134   6.815  11.602  0.0802  0.2432  0.0394
45074OCT     C290148   2.333   6.842  11.955  0.0428  0.0665 -0.1781
45075OCT     C190149   7.658   6.184   3.916  0.1399  0.0395  0.0872
45075OCT     C290150   7.504   6.051   4.376 -0.1548  0.1854 -0.3305
45076OCT     C190151   0.820   5.653   2.123 -0.0516 -0.3287 -0.0877
45076OCT     C290152   1.032   5.279   1.883  0.3545  0.4574 -0.2848
45077OCT     C190153   3.306   8.993  19.483  0.1398  0.0486 -0.3884
45077OCT     C290154   3.235   8.530  19.492  0.1449  0.0778  0.0256
45078OCT     C190155  21.516  13.261   9.216 -0.6065  0.1261 -0.1929
45078OCT     C290156  21.644  13.246   8.740 -0.1332 -0.1759 -0.0316
45079OCT     C190157   2.522   1.687  15.579 -0.1347 -0.2718  0.2150
45079OCT     C290158   2.760   1.283  15.676  0.0935  0.3328 -0.0452
45080OCT     C190159   7.266   6.142  16.100 -0.3379  0.1343 -0.2736
45080OCT     C290160   7.600   5.855  15.958  0.1925 -0.0471  0.0256
45081OCT     C190161  23.252   9.086   9.085  0.0136 -0.0778  0.1354
45081OCT     C290162  23.130   9.161   8.630 -0.1010  0.0770  0.1258
45082OCT     C190163   3.128  21.045   1.112  0.1502 -0.1528  0.0984
45082OCT     C290164   3.382  20.656   1.135  0.4664  0.0026 -0.3105
45083OCT     C190165   4.004   3.198  13.781 -0.1898 -0.1338  0.1026
45083OCT     C290166   4.174   3.102  13.330  0.0519 -0.1730 -0.0407
45084OCT     C190167   9.293  11.611   2.816 -0.3018  0.1476 -0.0747
45084OCT     C290168   9.622  11.808   2.486  0.4928  0.1707  0.3299
45085OCT     C190169  17.959  16.977   5.221  0.1996  0.1542  0.1196
45085OCT     C290170  18.093  16.991   5.678 -0.1978  0.0150  0.2828
45086OCT     C190171  19.425   2.523   4.237  0.4258 -0.0177 -0.0566
45086OCT     C290172  19.393   2.950   4.247 -0.2287 -0.1972 -0.3895
45087OCT     C190173   2.411   5.093  22.017  0.0002 -0.0404 -0.2932
45087OCT     C290174   2.439   4.629  22.172  0.0940 -0.4205 -0.4221
45088OCT     C190175  23.304   4.458  22.556  0.0171  0.5078  0.2683
45088OCT     C290176  23.448   4.711  22.882  0.3055  0.0579 -0.2907
45089OCT     C190177   5.292  20.239  13.440  0.0679  0.0293  0.3346
45089OCT     C290178   5.068  20.476  13.099  0.2746  0.2717  0.0171
45090OCT     C190179   9.265  19.815  16.145  0.0383 -0.0148 -0.1768
45090OCT     C290180   9.251  19.830  16.613  0.0817 -0.1732  0.0579
45091OCT     C190181  19.287  22.330   9.554 -0.1403 -0.2064 -0.1015
45091OCT     C290182  19.286  22.669   9.906 -0.0588  0.0762  0.5248
45092OCT     C190183  18.118   7.676  19.346  0.1077  0.2890  0.0474
45092OCT     C290184  18.151   7.744  19.828 -0.2671 -0.1814 -0.2821
45093OCT     C190185   5.845   0.698   5.906  0.2989  0.0495 -0.0839
45093OCT     C290186   5.418   0.511   6.078 -0.0885 -0.0192 -0.2623
45094OCT     C190187   4.469   9.899   5.884 -0.3419  0.0838  0.0855
45094OCT     C290188   4.760   9.940   6.270  0.2926 -0.0238  0.0725
45095OCT     C190189  13.943   3.383   5.740  0.0306  0.5380  0.0918
45095OCT     C290190  13.744   3.040   6.031  0.3201 -0.3201  0.1383
45096OCT     C190191  17.607  19.772  20.331 -0.1232 -0.1586  0.0394
45096OCT     C290192  17.899  20.116  20.437  0.1473 -0.1544  0.0670
45097OCT     C190193  13.402   8.442  18.500 -0.0239  0.2273  0.0000
45097OCT     C290194  13.520   8.038  18.528 -0.0262 -0.1140 -0.1799
45098OCT     C190195  10.795  15.072  13.811  0.0955  0.1777  0.2880
45098OCT     C290196  10.890  15.147  13.348 -0.3379  0.0841 -0.0413
45099OCT     C190197   7.342  11.781  13.326 -0.1126  0.1303 -0.0939
45099OCT     C290198   7.687  11.445  13.239 -0.0917 -0.1014 -0.0878
45100OCT     C190199  21.584  22.172  13.777 -0.2857 -0.2518 -0.3156
45100OCT     C290200  21.677  22.111  13.368  0.2105  0.1271 -0.0832
45101OCT     C190201   1.112   5.558   0.981  0.0941  0.1584 -0.1362
45101OCT     C290202   1.403   5.396   0.624 -0.2764 -0.3568 -0.3190
45102OCT     C190203   4.608   5.340  18.630  0.0828 -0.0445 -0.1115
45102OCT     C290204   4.992   5.180  18.466  0.0270 -0.3913 -0.1425
45103OCT     C190205   9.246   8.728  17.618 -0.3729  0.0677  0.1217
45103OCT     C290206   9.611   8.806  17.342 -0.0864 -0.3356  0.0756
45104OCT     C190207   8.789  17.569  23.424 -0.1861 -0.3313  0.1250
45104OCT     C290208   8.560  17.972  23.481 -0.0290 -0.1400  0.0716
45105OCT     C190209  14.216  16.669   4.062 -0.2406  0.2443  0.0366
45105OCT     C290210  14.634  16.862   4.004  0.0120 -0.4565  0.1206
45106OCT     C190211   4.726  10.983   7.075 -0.2745  0.2259  0.2660
45106OCT     C290212   5.178  10.853   6.998  0.1246  0.1355 -0.1622
45107OCT     C190213  17.703  17.173   1.416  0.2364  0.0807 -0.0052
45107OCT     C290214  17.941  16.950   1.090  0.2921 -0.4718 -0.1567
45108OCT     C190215  13.768  10.204   8.734  0.2591  0.0803  0.1449
45108OCT     C290216  13.951   9.747   8.717 -0.0253 -0.1937  0.3145
45109OCT     C190217   8.667   8.422  11.820  0.2374 -0.1527  0.1594
45109OCT     C290218   9.085   8.255  11.858 -0.1955 -0.1599  0.1126
45110OCT     C190219   4.766  17.273  11.257 -0.1920 -0.1350 -0.0153
45110OCT     C290220   5.023  17.136  11.568 -0.2400 -0.1594  0.4788
45111OCT     C190221  18.024  22.882   8.387 -0.0529 -0.2202  0.1457
45111OCT     C290222  17.863  22.444   8.473 -0.2577  0.0347 -0.0323
45112OCT     C190223  16.489   6.500  18.142 -0.0427 -0.2064 -0.4370
45112OCT     C290224  16.487   6.755  17.715 -0.0310  0.1407  0.2179
45113OCT     C190225  19.780  19.063  19.356 -0.2347 -0.2441 -0.2467
45113OCT     C290226  19.679  18.752  19.022 -0.0379  0.2889  0.1337
45114OCT     C190227   6.656   3.951  13.259 -0.1580 -0.1001 -0.0911
45114OCT     C290228   6.877   3.648  13.524 -0.0616  0.1551  0.0075
45115OCT     C190229  10.260  16.030  17.601  0.1611 -0.1539  0.4258
45115OCT     C290230  10.177  15.707  17.219  0.0748 -0.1725  0.1766
45116OCT     C190231  22.424  16.289  11.218 -0.0575 -0.0370  0.0632
45116OCT     C290232  22.412  16.743  11.374 -0.0897  0.1570 -0.0519
45117OCT     C190233   7.845  17.739   8.642 -0.0213  0.4114  0.0878
45117OCT     C290234   7.776  17.268   8.772 -0.2566  0.1948  0.0306
45118OCT     C190235  19.335   2.896   9.715  0.1345 -0.3949  0.2271
45118OCT     C290236  19.446   2.410   9.808  0.3569  0.0686 -0.0964
45119OCT     C190237  15.995   4.808  17.140  0.1946  0.3391  0.0872
45119OCT     C290238  16.136   4.685  17.540  0.5134 -0.0217  0.1929
45120OCT     C190239   1.477  15.900   3.896 -0.1581 -0.4728 -0.2523
45120OCT     C290240   1.695  15.683   4.275  0.0324  0.0088  0.2390
45121OCT     C190241  15.252  11.409  15.619 -0.1543 -0.1596 -0.1552
45121OCT     C290242  15.424  11.332  15.260 -0.6008 -0.1162  0.1670
45122OCT     C190243   9.444  20.773   4.987  0.1205  0.3528  0.0143
45122OCT     C290244   9.696  20.446   5.109 -0.2931 -0.0249 -0.3259
45123OCT     C190245   4.759  15.858  22.110  0.3261 -0.1319  0.3266
45123OCT     C290246   5.142  15.958  21.864  0.1033  0.0454  0.1139
45124OCT     C190247   6.989  12.400  15.281 -0.1413  0.1656 -0.3984
45124OCT     C290248   7.034  12.068  14.988  0.0104  0.0097 -0.3693
45125OCT     C190249   0.228  10.177   2.276  0.0126  0.1779  0.1054
45125OCT     C290250   0.146   9.715   2.421  0.1548 -0.1410 -0.1060
45126OCT     C190251  19.910  23.015   8.067  0.1484  0.0198 -0.3953
45126OCT     C290252  19.510  22.892   8.176  0.1175 -0.0983 -0.6130
45127OCT     C190253   1.244  15.805  20.701  0.0373  0.2190  0.0389
45127OCT     C290254   0.957  15.529  20.437 -0.3495  0.1579  0.0284
45128OCT     C190255  10.137  20.413   9.285  0.3220 -0.4599 -0.0184
45128OCT     C290256   9.958  19.963   9.334  0.2412  0.3159  0.3945
45129OCT     C190257  17.430   0.279  11.478  0.0291  0.0260 -0.1125
45129OCT     C290258  17.637   0.732  11.323  0.2698  0.1538 -0.1240
45130OCT     C190259  19.155  23.731  22.026 -0.1560  0.4775  0.2163
45130OCT     C290260  18.833  23.673  22.361 -0.1194  0.0448  0.2079
45131OCT     C190261   0.838   1.126  18.839 -0.0021 -0.3962  0.0467
45131OCT     C290262   0.427   1.318  19.042 -0.1706 -0.3300  0.2882
45132OCT     C190263   6.656   2.029  13.550 -0.1137  0.1483  0.3899
45132OCT     C290264   6.637   1.736  13.092 -0.0359 -0.3570  0.1908
45133OCT     C190265   6.542  13.201  18.065  0.2131  0.1984  0.3759
45133OCT     C290266   6.334  13.579  18.024 -0.4752 -0.2055  0.2118
45134OCT     C190267   2.966   6.868  16.686 -0.4402 -0.1885 -0.3340
45134OCT     C290268   3.052   6.446  16.883  0.0531  0.2618 -0.0965
45135OCT     C190269  20.073  16.285   4.549  0.1631 -0.1147 -0.1963
45135OCT     C290270  20.277  16.289   4.118 -0.3528  0.0142  0.0857
45136OCT     C190271   3.987  10.157   2.693 -0.0329  0.1989 -0.1216
45136OCT     C290272   4.177  10.568   2.838  0.1015 -0.0321  0.1169
45137OCT     C190273  16.878   4.961  15.710 -0.1527 -0.1232 -0.3640
45137OCT     C290274  16.856   4.842  15.272 -0.4980  0.0513 -0.0186
45138OCT     C190275  16.770   1.611   3.513 -0.1027 -0.1746 -0.2233
45138OCT     C290276  16.625   1.809   3.073 -0.6395 -0.1495  0.0411
45139OCT     C190277   4.049  16.549  19.070  0.1080  0.1091  0.3095
45139OCT     C290278   3.786  16.185  19.210  0.2589  0.0784  0.0893
45140OCT     C190279  13.078   8.521  13.292  0.2036  0.1087  0.0139
45140OCT     C290280  13.156   8.966  13.503 -0.2039 -0.2054  0.0877
45141OCT     C190281  17.906   1.014  18.447 -0.2173 -0.0197  0.0626
45141OCT     C290282  17.706   0.701  18.749  0.3700 -0.1170 -0.1924
45142OCT     C190283  18.668  19.598  20.860 -0.0942 -0.0251 -0.0317
45142OCT     C290284  18.851  19.866  20.514  0.3135  0.1911 -0.0850
45143OCT     C190285   8.696  10.650  13.465 -0.0381 -0.0007  0.1802
45143OCT     C290286   9.043  10.453  13.244  0.1326  0.0243 -0.0556
45144OCT     C190287   1.445  12.493   6.391  0.0782  0.2516 -0.0252
45144OCT     C290288   1.533  12.116   6.190 -0.0318 -0.1528  0.3741
45145OCT     C190289  20.721   2.715  16.179 -0.0912  0.0394 -0.1436
45145OCT     C290290  20.319   2.528  16.285  0.0564  0.0185 -0.1751
45146OCT     C190291   3.733  15.283   8.594  0.1556  0.3576 -0.2817
45146OCT     C290292   3.853  15.437   8.158  0.2098 -0.0214 -0.1313
45147OCT     C190293   1.544   1.871   6.590  0.0657 -0.3245 -0.2228
45147OCT     C290294   1.663   1.380   6.421 -0.0342  0.4088 -0.1422
45148OCT     C190295   9.015  16.661  11.475  0.3265 -0.3440  0.2539
45148OCT     C290296   9.057  16.522  11.011  0.0684 -0.0601 -0.3112
45149OCT     C190297   7.161   0.379  13.225 -0.2883 -0.1912  0.1422
45149OCT     C290298   7.064   0.546  12.795 -0.0790  0.1217  0.1741
45150OCT     C190299  10.217   7.512   1.385 -0.0348  0.1868  0.0901
45150OCT     C290300  10.047   7.200   1.069 -0.1575 -0.0648  0.1573
45151OCT     C190301   1.403  13.392   4.515  0.0063 -0.2609 -0.0283
45151OCT     C290302   1.291  13.822   4.387 -0.1528 -0.1792 -0.2564
45152OCT     C190303  21.649  12.109  15.897  0.2739 -0.4467 -0.1558
45152OCT     C290304  21.914  11.720  15.964  0.1920 -0.0510 -0.2119
45153OCT     C190305  19.188  10.328  12.882 -0.0090  0.4264  0.5902
45153OCT     C290306  19.434  10.472  13.222 -0.1230  0.1227 -0.0659
45154OCT     C190307   6.175  14.648   0.507 -0.1221  0.0055  0.4197
45154OCT     C290308   6.601  14.591   0.777 -0.1093 -0.2979  0.1148
45155OCT     C190309  12.915  18.794  13.640 -0.4521 -0.1073 -0.2676
45155OCT     C290310  12.978  19.209  13.433  0.4715 -0.0585 -0.0210
45156OCT     C190311  19.594  12.227   8.367 -0.1800 -0.1737 -0.0120
45156OCT     C290312  19.420  12.607   8.451  0.3275  0.3275  0.1845
45157OCT     C190313  18.112   6.713   2.345  0.1233  0.2126  0.0530
45157OCT     C290314  17.664   6.700   2.545  0.2095  0.1475 -0.1069
45158OCT     C190315   1.800   6.387   4.987 -0.1133  0.0925  0.3645
45158OCT     C290316   1.483   6.330   5.305 -0.0277 -0.5660  0.3416
45159OCT     C190317  11.515  13.595   5.921 -0.1343 -0.4109  0.0604
45159OCT     C290318  11.347  13.179   6.082 -0.0081 -0.0481 -0.2808
45160OCT     C190319  13.277   0.882  22.520 -0.2218  0.3021  0.5565
45160OCT     C290320  13.593   0.632  22.681  0.0737  0.2182 -0.2854
45161OCT     C190321  14.944   0.920  22.900 -0.2378  0.0462 -0.4346
45161OCT     C290322  14.878   0.526  23.082 -0.2020  0.0891  0.0251
45162OCT     C190323   4.408  19.869  16.440 -0.0588  0.0605 -0.1677
45162OCT     C290324   4.828  19.784  16.696  0.1111  0.4786  0.2190
45163OCT     C190325  19.120   7.275   4.433  0.3086 -0.2591 -0.0762
45163OCT     C290326  18.690   7.446   4.332 -0.1724 -0.0750  0.2952
45164OCT     C190327  23.305   5.667  10.533 -0.5156  0.2165 -0.0108
45164OCT     C290328  23.102   5.267  10.400  0.2215 -0.0681 -0.2742
45165OCT     C190329  22.723   9.838  14.029  0.0744  0.0703  0.0047
45165OCT     C290330  23.054   9.713  14.276  0.0177  0.3276  0.0219
45166OCT     C190331   9.527  21.993  13.076 -0.3101 -0.1632  0.0254
45166OCT     C290332   9.889  22.106  13.350  0.1324 -0.1786 -0.2355
45167OCT     C190333   0.556   0.145   5.690 -0.4661  0.0284  0.2136
45167OCT     C290334   0.884   0.505   5.526 -0.0773  0.1426  0.1964
45168OCT     C190335  12.021  14.503   6.617  0.3102  0.1937  0.2900
45168OCT     C290336  12.104  14.984   6.777  0.0132 -0.2849  0.2430
45169OCT     C190337  12.008  10.578  22.188  0.3774 -0.0652  0.1587
45169OCT     C290338  11.738  10.869  22.405 -0.0364 -0.1438  0.1813
45170OCT     C190339  13.400  19.485  19.559 -0.1722  0.4008  0.0128
45170OCT     C290340  13.111  19.090  19.589  0.0032  0.2119 -0.0539
45171OCT     C190341   9.059   9.949  15.518 -0.0197 -0.0596 -0.2046
45171OCT     C290342   9.172   9.758  15.904  0.1339  0.1070  0.1157
45172OCT     C190343   5.525   2.232   4.984 -0.2925 -0.2064 -0.0877
45172OCT     C290344   5.788   2.478   4.631  0.2809 -0.1556  0.2698
45173OCT     C190345   2.245  18.338   6.280  0.1718  0.1241 -0.0806
45173OCT     C290346   1.932  17.963   6.369  0.1378  0.3023  0.1857
45174OCT     C190347  18.885  10.274  23.569 -0.4470 -0.0664 -0.3370
45174OCT     C290348  19.179   9.972  23.338  0.0506  0.0326 -0.0901
45175OCT     C190349   5.306  10.717   0.769 -0.2066  0.3248  0.0381
45175OCT     C290350   5.619  10.688   0.486  0.1871  0.0466 -0.1896
45176OCT     C190351  14.429  16.006   3.653 -0.2820 -0.1712 -0.2463
45176OCT     C290352  14.149  15.687   3.908 -0.2559  0.4877  0.0578
45177OCT     C190353   0.798  14.616   9.789  0.0877 -0.1548 -0.3732
45177OCT     C290354   1.162  14.350   9.805 -0.1043 -0.2045  0.1259
45178OCT     C190355   1.138  15.453  12.874  0.1680 -0.0803  0.1343
45178OCT     C290356   0.804  15.165  12.904 -0.0413 -0.2485  0.2398
45179OCT     C190357   1.785  17.349   9.784 -0.0834  0.0211 -0.0872
45179OCT     C290358   1.513  17.301  10.205 -0.0029  0.2059  0.2106
45180OCT     C190359  17.583   9.799  13.495 -0.2451 -0.2004  0.3852
45180OCT     C290360  17.636  10.214  13.324 -0.1677  0.1014  0.1825
45181OCT     C190361  20.805  15.419  15.815  0.1307  0.0337 -0.2742
45181OCT     C290362  20.687  15.239  16.244 -0.2543  0.2402  0.1522
45182OCT     C190363   1.260   5.037   3.439  0.1527 -0.5911 -0.1581
45182OCT     C290364   1.000   4.906   3.848 -0.0318 -0.1414 -0.0095
45183OCT     C190365   3.186  10.911  11.807 -0.2729  0.1829 -0.1560
45183OCT     C290366   3.054  11.074  12.197 -0.0873 -0.3456 -0.3282
45184OCT     C190367   0.054  23.186   6.233 -0.3840 -0.0297 -0.0770
45184OCT     C290368  23.460  23.045   5.968  0.0052 -0.0663  0.0280
45185OCT     C190369   8.251  23.440  16.529 -0.0555  0.4869  0.2872
45185OCT     C290370   8.211   0.140  16.418 -0.0082 -0.2229  0.0357
45186OCT     C190371  23.052  14.294  15.051 -0.0253  0.0381  0.0766
45186OCT     C290372  23.490  14.173  14.884  0.3613  0.2773 -0.5900
45187OCT     C190373  12.951   8.401  17.063 -0.2655  0.0621 -0.1897
45187OCT     C290374  12.984   7.938  17.065  0.1884 -0.2672 -0.0354
45188OCT     C190375   8.432  21.959   8.815  0.2895  0.0489 -0.1320
45188OCT     C290376   8.201  21.927   9.172 -0.5945 -0.0015 -0.2774
45189OCT     C190377  10.421   7.798  22.015  0.1851  0.0164  0.2823
45189OCT     C290378  10.262   7.608  22.397 -0.1364  0.1463  0.0543
45190OCT     C190379   5.834  13.199  12.420  0.0507  0.1460  0.1723
45190OCT     C290380   5.964  13.573  12.118  0.2034  0.1143 -0.1686
45191OCT     C190381  23.189   1.685  14.160  0.1996 -0.0031 -0.1299
45191OCT     C290382  22.976   1.377  13.900  0.1349 -0.2438 -0.3822
45192OCT     C190383   5.368  20.008  13.932 -0.0898 -0.0535 -0.0646
45192OCT     C290384   5.372  19.701  14.259  0.0525 -0.0913 -0.0902
45193OCT     C190385  13.759  17.176   2.038  0.2698 -0.3443  0.1228
45193OCT     C290386  13.687  17.425   1.643 -0.0721 -0.1956  0.1296
45194OCT     C190387   5.077  23.720   0.255  0.0706 -0.3098 -0.2457
45194OCT     C290388   4.721   0.112   0.585 -0.0534  0.2628  0.1768
45195OCT     C190389   8.680   0.641   4.966 -0.1181 -0.4737 -0.0480
45195OCT     C290390   8.223   0.496   4.997 -0.3219 -0.2204  0.0713
45196OCT     C190391  17.183  18.337  16.856 -0.0398  0.3140 -0.1186
45196OCT     C290392  17.101  18.633  17.244  0.0163 -0.1071 -0.6834
45197OCT     C190393  16.032   8.165   5.037 -0.0997  0.2863 -0.2617
45197OCT     C290394  15.874   8.083   4.628 -0.2171 -0.2090  0.4978
45198OCT     C190395   1.913   1.544   5.627 -0.0078  0.2840  0.3168
45198OCT     C290396   1.923   1.194   5.990 -0.2231  0.0217 -0.2008
45199OCT     C190397   6.208  11.422  13.677 -0.2554  0.2609 -0.1254
45199OCT     C290398   5.938  11.743  13.464 -0.1770 -0.6151 -0.2173
45200OCT     C190399  10.933  16.576   2.136  0.2103  0.0851  0.4171
45200OCT     C290400  11.271  16.870   2.197  0.3805 -0.1677 -0.0971
45201OCT     C190401  14.194   2.829  11.290 -0.2116  0.2501 -0.2724
45201OCT     C290402  14.337   2.499  11.010  0.0898  0.1739 -0.0324
45202OCT     C190403   4.051  10.065  18.868 -0.1805 -0.3291 -0.1462
45202OCT     C290404   3.589   9.980  18.803 -0.0982 -0.2301  0.0034
45203OCT     C190405   7.488  17.677  21.082 -0.2759 -0.6032  0.0586
45203OCT     C290406   7.244  17.789  20.713 -0.4785  0.2784  0.1952
45204OCT     C190407   6.349  23.712   3.910 -0.4732  0.1204 -0.2083
45204OCT     C290408   6.407   0.145   3.475 -0.1033  0.1938 -0.0570
45205OCT     C190409   1.178  18.379   3.074 -0.2564  0.2812  0.0515
45205OCT     C290410   1.597  18.170   3.157 -0.4678 -0.1208 -0.3059
45206OCT     C190411  18.519   4.764  13.180 -0.1709 -0.0616  0.1339
45206OCT     C290412  18.814   4.365  13.236 -0.0449  0.1990  0.1186
45207OCT     C190413   0.986  17.757  21.879  0.0551  0.1114  0.2165
45207OCT     C290414   1.418  17.734  21.880 -0.0112  0.4757  0.2458
45208OCT     C190415   3.502   3.217   7.198 -0.0575  0.0016 -0.1249
45208OCT     C290416   3.609   3.683   7.250 -0.3597  0.1466  0.0256
45209OCT     C190417   9.327  10.666   9.083  0.0822 -0.2576  0.0427
45209OCT     C290418   9.131  10.648   8.661 -0.3818  0.1440  0.0312
45210OCT     C190419   6.492   4.976  22.996  0.2058  0.0262 -0.1254
45210OCT     C290420   6.094   5.185  22.772 -0.0100  0.0922  0.2987
45211OCT     C190421  19.665  17.445  13.516 -0.1233 -0.2090 -0.2755
45211OCT     C290422  19.825  17.793  13.765  0.4312 -0.2163 -0.2944
45212OCT     C190423  16.497   7.614   3.554 -0.0239 -0.2099 -0.4836
45212OCT     C290424  16.239   7.316   3.749  0.2475  0.3313 -0.0291
45213OCT     C190425  13.456   8.324   4.909 -0.1852  0.2127  0.0312
45213OCT     C290426  13.263   7.896   4.797 -0.1063 -0.0102  0.1212
45214OCT     C190427  18.697  21.016   1.167 -0.3171 -0.1354  0.0938
45214OCT     C290428  18.402  20.736   1.375 -0.2311  0.1243 -0.0136
45215OCT     C190429  13.102   1.497   9.029 -0.1226  0.2182  0.0533
45215OCT     C290430  12.870   1.260   9.345  0.5386 -0.2026  0.0357
45216OCT     C190431  17.476   1.094  18.860  0.1209  0.0745  0.2539
45216OCT     C290432  17.243   1.288  19.209 -0.1068  0.0337  0.1150
45217OCT     C190433  14.044  17.326  16.889 -0.0261  0.2747  0.2008
45217OCT     C290434  14.167  17.770  16.719  0.1609 -0.1144  0.2535
45218OCT     C190435   7.310   9.890  17.831 -0.1833  0.0841 -0.2316
45218OCT     C290436   7.129   9.522  17.607 -0.0397  0.0532  0.0181
45219OCT     C190437  21.151  10.463  14.599 -0.0380  0.0883  0.1552
45219OCT     C290438  20.895  10.416  14.201  0.0041  0.0429 -0.2951
45220OCT     C190439  20.375  19.132  16.517 -0.2980  0.0892 -0.1055
45220OCT     C290440  20.108  18.815  16.724  0.0471  0.3244 -0.0092
45221OCT     C190441   8.109   7.846   5.415  0.0252  0.0032 -0.0895
45221OCT     C290442   7.941   7.423   5.268  0.0432  0.0300 -0.2110
45222OCT     C190443  23.591  18.695   9.024  0.1386  0.1351 -0.1179
45222OCT     C290444  23.121  18.711   9.005 -0.2309 -0.0417  0.1889
45223OCT     C190445  18.977  13.096  21.751 -0.5063  0.1812 -0.3602
45223OCT     C290446  18.929  12.736  21.987  0.0565  0.1896  0.0958
45224OCT     C190447   1.169   2.611  15.644 -0.2187 -0.1353  0.2307
45224OCT     C290448   1.422   2.825  16.001  0.3843 -0.0772  0.1901
45225OCT     C190449  12.534   7.097   7.254 -0.4942 -0.0534 -0.0344
45225OCT     C290450  12.454   6.641   7.315 -0.3838  0.3152 -0.2259
45226OCT     C190451   7.516  18.951  20.095  0.0424  0.0390  0.0395
45226OCT     C290452   7.297  19.341  20.261 -0.2989  0.1185 -0.1542
45227OCT     C190453  17.108   5.971  20.906 -0.1009 -0.2139  0.2049
45227OCT     C290454  16.815   5.824  20.564 -0.2585 -0.4374 -0.4415
45228OCT     C190455   0.598   1.379  22.763  0.0482 -0.0782  0.1935
45228OCT     C290456   0.951   1.210  22.502 -0.1523 -0.2168 -0.1130
45229OCT     C190457   9.036   0.705   0.439  0.0263  0.4820 -0.2206
45229OCT     C290458   9.444   0.442   0.438 -0.5003 -0.1484 -0.0004
45230OCT     C190459   8.409  20.802   6.993 -0.0514  0.4233  0.0713
45230OCT     C290460   8.444  20.300   7.126 -0.2078  0.4001 -0.3956
45231OCT     C190461  22.959   7.592  10.776 -0.2298  0.3564  0.0895
45231OCT     C290462  23.243   8.001  10.831  0.1111  0.2111 -0.0682
45232OCT     C190463  23.648  19.847   3.126  0.2676  0.2389  0.3173
45232OCT     C290464  23.200  19.890   3.259  0.1444  0.0942  0.1137
45233OCT     C190465  16.946  19.330  19.314  0.0902  0.0076  0.2386
45233OCT     C290466  16.793  19.183  18.933  0.0336  0.0312  0.1544
45234OCT     C190467   6.183  11.311   6.954 -0.2478  0.3720 -0.0464
45234OCT     C290468   6.346  11.697   6.967 -0.2572 -0.0151  0.1432
45235OCT     C190469  19.320   4.471  10.053 -0.1237 -0.2987 -0.1082
45235OCT     C290470  19.081   4.405   9.672 -0.1562  0.1596  0.0061
45236OCT     C190471  18.001   2.052  10.595 -0.0681 -0.1904 -0.1882
45236OCT     C290472  18.142   1.897  10.188  0.3111 -0.2356 -0.0676
45237OCT     C190473  22.909  18.967  11.801  0.0472  0.0778 -0.2408
45237OCT     C290474  22.565  19.138  11.570 -0.1151  0.0837  0.3380
45238OCT     C190475   2.388   8.180  13.461 -0.3072 -0.0803 -0.1650
45238OCT     C290476   2.044   7.986  13.236 -0.0565 -0.0882 -0.3308
45239OCT     C190477  20.927  22.688  12.465 -0.1388 -0.5017  0.1968
45239OCT     C290478  21.186  22.948  12.751  0.0378 -0.0513 -0.0704
45240OCT     C190479  13.679  17.367  14.486 -0.0268  0.2728 -0.0095
45240OCT     C290480  13.636  17.386  14.987 -0.0361  0.3067  0.1964
45241OCT     C190481   8.130   7.842   1.055  0.0899  0.2310 -0.3491
45241OCT     C290482   8.314   7.734   0.608 -0.0015  0.3392  0.1445
45242OCT     C190483  22.161   6.059   3.265  0.3189 -0.4604 -0.1057
45242OCT     C290484  22.202   6.116   3.716  0.2990  0.5497 -0.1089
45243OCT     C190485  21.345  19.659  19.367 -0.2271  0.3968  0.0242
45243OCT     C290486  20.930  19.585  19.545 -0.0268 -0.0420  0.0937
45244OCT     C190487   9.559  18.699   5.003 -0.0182 -0.0203  0.1545
45244OCT     C290488   9.723  18.418   5.378  0.0027  0.0704 -0.4989
45245OCT     C190489   8.973   2.680  13.086  0.0470  0.1480  0.1005
45245OCT     C290490   9.015   3.131  13.068  0.1100  0.0567  0.2474
45246OCT     C190491  16.237   6.563   4.064 -0.0145 -0.1661 -0.3624
45246OCT     C290492  16.082   6.581   4.471 -0.0393 -0.1320 -0.2172
45247OCT     C190493  15.871   3.347  11.257 -0.3294 -0.1110  0.2572
45247OCT     C290494  15.769   3.527  11.664  0.0791 -0.0923 -0.2542
45248OCT     C190495  21.876  10.408  20.215 -0.0918  0.1352 -0.1485
45248OCT     C290496  21.761  10.717  20.597 -0.0819  0.0954  0.1687
45249OCT     C190497   0.318   5.942  16.315 -0.2142 -0.0222  0.0673
45249OCT     C290498   0.465   6.354  16.146  0.3746  0.2167  0.0005
45250OCT     C190499  21.292   3.232  21.369  0.1137 -0.4220 -0.4925
45250OCT     C290500  21.726   3.422  21.527 -0.0759 -0.1839  0.0227
45251OCT     C190501  17.335  22.519  21.058 -0.1096  0.0702  0.1457
45251OCT     C290502  17.150  22.944  21.211 -0.1779 -0.0371  0.1081
45252OCT     C190503   8.292   5.101   4.376 -0.1560  0.2303  0.1081
45252OCT     C290504   8.257   4.964   4.874  0.1244 -0.1380  0.1437
45253OCT     C190505  21.344  10.814   2.310  0.3923  0.4753  0.3282
45253OCT     C290506  21.780  10.825   2.088  0.1070  0.1352  0.3956
45254OCT     C190507   2.866   8.535  18.156  0.1033 -0.1670  0.3611
45254OCT     C290508   3.246   8.569  18.448  0.3958  0.2089 -0.1029
45255OCT     C190509  16.882   6.705  20.223  0.4958 -0.0740 -0.0789
45255OCT     C290510  17.324   6.602  20.118  0.1927 -0.1150 -0.0370
45256OCT     C190511  18.226   3.873  22.497  0.1868 -0.1238 -0.3696
45256OCT     C290512  17.745   3.826  22.624  0.0177  0.0259 -0.3409
45257OCT     C190513   7.442   2.455   0.144  0.1584 -0.1672  0.0346
45257OCT     C290514   7.189   2.339   0.557  0.3566  0.0317 -0.0581
45258OCT     C190515  16.953  17.973  13.015 -0.2681  0.0198 -0.0120
45258OCT     C290516  16.515  18.176  12.847 -0.1515  0.3842  0.3140
45259OCT     C190517   1.931  11.885   3.711 -0.2244  0.0288  0.0642
45259OCT     C290518   1.651  11.741   3.341 -0.0206 -0.4691  0.1465
45260OCT     C190519   6.092  18.285  14.626 -0.3310  0.0701 -0.1019
45260OCT     C290520   6.016  18.377  15.060  0.1489 -0.1036 -0.3853
45261OCT     C190521  22.474   5.555  17.524 -0.0435  0.0365 -0.0490
45261OCT     C290522  22.673   5.217  17.325 -0.3950 -0.2805 -0.1709
45262OCT     C190523  20.645   4.358   5.611 -0.0831  0.0844 -0.0223
45262OCT     C290524  20.529   4.261   6.075  0.2061 -0.1043 -0.1736
45263OCT     C190525   5.537   9.772  16.966 -0.2931  0.0900 -0.2598
45263OCT     C290526   5.158   9.523  17.106  0.1191  0.0999  0.0547
45264OCT     C190527  10.389  18.605  19.198 -0.2007  0.1513  0.1428
45264OCT     C290528  10.766  18.819  19.424  0.0203  0.4641  0.2043
45265OCT     C190529  19.713  21.635   0.079  0.2052  0.0059  0.4531
45265OCT     C290530  19.460  21.937  23.566 -0.1611 -0.1479 -0.0749
45266OCT     C190531   6.191  22.574  11.014 -0.5096 -0.0855  0.1794
45266OCT     C290532   6.154  22.481  11.480 -0.3590  0.1425 -0.0612
45267OCT     C190533  12.434   5.416   5.244  0.0654  0.0979 -0.1129
45267OCT     C290534  12.889   5.504   5.261 -0.2288  0.0827 -0.5754
45268OCT     C190535   9.633  10.800   2.360 -0.1442  0.2203  0.0979
45268OCT     C290536  10.023  10.667   2.604 -0.0594 -0.0241 -0.0323
45269OCT     C190537   9.628  18.666  15.214 -0.1185  0.3092 -0.0363
45269OCT     C290538   9.420  18.913  14.862 -0.1168 -0.0711  0.0909
45270OCT     C190539   7.669  10.785  14.016 -0.0410  0.1455 -0.1419
45270OCT     C290540   7.812  11.220  14.177 -0.0563 -0.0258  0.2327
45271OCT     C190541  13.231   5.635   1.425  0.1502  0.1678 -0.2990
45271OCT     C290542  12.851   5.900   1.399  0.0640  0.0731 -0.0383
45272OCT     C190543   5.310   7.036  18.462 -0.0097  0.0291 -0.1391
45272OCT     C290544   4.863   7.087  18.479 -0.0966  0.2110 -0.0901
45273OCT     C190545  14.826   3.465  18.284 -0.1596  0.1315  0.1389
45273OCT     C290546  14.809   3.125  17.967  0.2485  0.0985 -0.1341
45274OCT     C190547   6.415  15.148   6.880 -0.0132 -0.2316  0.0879
45274OCT     C290548   6.110  14.873   6.618 -0.0911 -0.1664  0.0398
45275OCT     C190549  16.139   2.214  18.351  0.0153 -0.0744 -0.1702
45275OCT     C290550  15.937   2.644  18.429 -0.2282 -0.1835  0.1575
45276OCT     C190551   0.095  11.742   3.536  0.0364  0.1191  0.4042
45276OCT     C290552   0.016  11.558   3.995 -0.3072  0.1130 -0.1959
45277OCT     C190553  19.513  10.521  19.808 -0.4043  0.4212 -0.0702
45277OCT     C290554  19.800  10.108  19.803 -0.3205  0.0068  0.2653
45278OCT     C190555   2.324   6.489   0.049  0.0801  0.0342 -0.0465
45278OCT     C290556   2.516   6.936   0.110  0.0972  0.0801 -0.2929
45279OCT     C190557  22.922  15.361   2.021 -0.1913  0.3786  0.1281
45279OCT     C290558  22.695  15.246   1.613 -0.1786 -0.0534 -0.3778
45280OCT     C190559   3.453  17.678   9.236 -0.0589  0.0481 -0.1332
45280OCT     C290560   3.664  17.810   9.624 -0.2820 -0.3058  0.1572
45281OCT     C190561   6.900   1.048   7.573 -0.0692  0.1738  0.2244
45281OCT     C290562   6.950   1.253   7.151  0.0636 -0.0898 -0.0817
45282OCT     C190563  17.849   5.643   5.188  0.3608 -0.2194 -0.0983
45282OCT     C290564  17.672   6.091   5.099 -0.1636  0.4880 -0.4521
45283OCT     C190565   1.109  16.434   6.408 -0.2402 -0.5549  0.2440
45283OCT     C290566   0.946  16.817   6.158 -0.1524 -0.1055 -0.2528
45284OCT     C190567   8.142  18.454  15.369 -0.5506  0.1205 -0.1658
45284OCT     C290568   8.188  18.542  15.875  0.0095  0.0251  0.1753
45285OCT     C190569  15.110  17.347  10.106  0.0496  0.1442 -0.1560
45285OCT     C290570  14.804  17.540   9.834 -0.0652 -0.0469  0.0933
45286OCT     C190571  13.353  14.434   6.180  0.5551 -0.0028 -0.0450
45286OCT     C290572  13.040  14.706   5.894 -0.1744 -0.2435 -0.4636
45287OCT     C190573   1.532   3.685  19.495 -0.0392 -0.0084  0.2964
45287OCT     C290574   1.615   3.857  19.903 -0.3835 -0.0128  0.3658
45288OCT     C190575   2.990   8.017  19.582  0.1190 -0.2074  0.0643
45288OCT     C290576   3.321   8.099  19.283 -0.1895  0.1528  0.2766
45289OCT     C190577  22.366  21.902  18.652  0.1425  0.2326  0.0770
45289OCT     C290578  22.786  21.811  18.534 -0.3309 -0.0905  0.0313
45290OCT     C190579   6.765  23.604  19.364 -0.1361 -0.0131  0.1843
45290OCT     C290580   6.788   0.195  18.994 -0.1526  0.0621 -0.3317
45291OCT     C190581   8.253   5.216  19.985 -0.2415 -0.0055  0.2816
45291OCT     C290582   8.694   5.416  20.035 -0.0651  0.1823  0.0450
45292OCT     C190583   0.859  15.968   6.275 -0.0597  0.1206 -0.0051
45292OCT     C290584   0.749  16.364   6.107  0.0299 -0.3642 -0.2789
45293OCT     C190585  19.190  22.969   2.359  0.0041  0.0575 -0.4632
45293OCT     C290586  18.762  23.122   2.431 -0.0883  0.3198 -0.2251
45294OCT     C190587   1.913  11.682  20.968 -0.1865  0.0508  0.1646
45294OCT     C290588   1.509  11.482  20.979  0.0385  0.0202  0.2140
45295OCT     C190589   9.835  21.643  13.042 -0.2694  0.3643 -0.1117
45295OCT     C290590  10.150  21.682  12.746 -0.1110  0.0304  0.1429
45296OCT     C190591  15.943   1.358  23.672  0.1250 -0.0111  0.0601
45296OCT     C290592  15.862   1.261  23.277  0.4523 -0.1506  0.0980
45297OCT     C190593  12.881  12.131  19.568  0.0285 -0.1788  0.1111
45297OCT     C290594  12.690  12.526  19.626 -0.0059 -0.1601  0.2374
45298OCT     C190595  11.097  16.642   3.100 -0.2499  0.0459 -0.2181
45298OCT     C290596  11.006  17.001   3.380 -0.3005 -0.2355 -0.1047
45299OCT     C190597  16.482   4.030  18.282 -0.1033 -0.1864  0.4232
45299OCT     C290598  16.377   3.606  18.416  0.1704 -0.4147  0.2464
45300OCT     C190599  18.833   2.675  19.484 -0.2049  0.3448 -0.0281
45300OCT     C290600  18.470   2.673  19.181  0.1983 -0.3564  0.1324
45301OCT     C190601  18.893  10.484  20.254 -0.1205  0.0712 -0.0414
45301OCT     C290602  19.272  10.351  20.438  0.3235 -0.1187  0.3924
45302OCT     C190603  22.215  19.188   0.700  0.3321 -0.1531  0.1583
45302OCT     C290604  22.195  19.457   0.272  0.0900 -0.1283 -0.2416
45303OCT     C190605   1.157   6.501  16.341 -0.0460 -0.1662  0.0561
45303OCT     C290606   1.033   6.380  16.801 -0.0786  0.1748 -0.1670
45304OCT     C190607  12.769   5.268  20.974 -0.0752  0.2388  0.0720
45304OCT     C290608  12.533   4.886  21.147 -0.1026 -0.1554  0.0376
45305OCT     C190609  17.540  19.484  18.470  0.1188 -0.4137 -0.0578
45305OCT     C290610  17.478  19.022  18.526 -0.1872  0.2393  0.0798
45306OCT     C190611  16.268  20.165  20.055 -0.1091  0.0771 -0.0481
45306OCT     C290612  16.641  20.218  20.312 -0.4138 -0.1970  0.2333
45307OCT     C190613  15.314  20.196  20.965  0.2933  0.1483 -0.3177
45307OCT     C290614  15.315  19.916  20.658  0.1493  0.3312 -0.3470
45308OCT     C190615  11.429   8.370  19.914 -0.1296 -0.0771  0.3648
45308OCT     C290616  11.657   8.216  20.302 -0.1128  0.3154  0.0976
45309OCT     C190617   8.810   1.425   1.347 -0.0774  0.2593 -0.0215
45309OCT     C290618   8.910   1.223   1.762 -0.1415 -0.1315  0.0589
45310OCT     C190619   7.835  16.571   7.673  0.2658 -0.3115  0.0125
45310OCT     C290620   7.501  16.310   7.393  0.1268 -0.0662  0.1536
45311OCT     C190621   2.745   8.201   5.222  0.1510  0.2100 -0.1327
45311OCT     C290622   3.013   8.056   5.593 -0.0805  0.1669  0.0526
45312OCT     C190623   0.511   9.201  17.754  0.1102  0.3024  0.1354
45312OCT     C290624   0.681   9.427  18.099 -0.1091 -0.0350  0.0047
45313OCT     C190625   8.667  16.012   2.657  0.0613 -0.1606 -0.1267
45313OCT     C290626   8.681  16.187   3.120  0.0065 -0.1415  0.0620
45314OCT     C190627   0.473   3.711   7.818 -0.1839 -0.0920 -0.0744
45314OCT     C290628   0.633   3.373   7.665 -0.0671 -0.0388 -0.0630
45315OCT     C190629  12.683  12.504  15.060 -0.3581 -0.1096  0.0419
45315OCT     C290630  13.129  12.344  15.113  0.1526 -0.0640 -0.0983
45316OCT     C190631   2.447   3.421  18.610 -0.1763 -0.1490  0.0814
45316OCT     C290632   2.593   2.951  18.541 -0.2946  0.1725 -0.1028
45317OCT     C190633  21.672  15.932  15.046  0.0835  0.6850 -0.2404
45317OCT     C290634  21.719  15.551  14.768  0.1197 -0.1746 -0.0746
45318OCT     C190635  15.259  20.276   9.056 -0.2046  0.2509 -0.0682
45318OCT     C290636  15.389  20.775   9.059 -0.0022 -0.0200 -0.1363
45319OCT     C190637  22.381   2.206  17.552  0.0809  0.3265  0.1789
45319OCT     C290638  22.656   2.478  17.306  0.5327 -0.1608 -0.1040
45320OCT     C190639  21.070  21.822   8.673 -0.1440 -0.0609  0.0599
45320OCT     C290640  20.735  21.727   8.902 -0.0863 -0.0886 -0.3385
45321OCT     C190641   4.296  19.190  17.873  0.1610 -0.1341 -0.2442
45321OCT     C290642   3.917  19.311  18.047 -0.1117  0.3742  0.2559
45322OCT     C190643   6.233   8.641  12.260 -0.1113  0.1698  0.2441
45322OCT     C290644   6.390   8.842  11.852  0.1446  0.2232  0.1691
45323OCT     C190645   2.250  10.464   4.938 -0.1203  0.1540 -0.1137
45323OCT     C290646   2.517  10.094   4.668 -0.2698  0.0226 -0.1155
45324OCT     C190647  16.429  12.446  12.120  0.3339  0.2853  0.0189
45324OCT     C290648  16.497  12.155  11.753  0.0566  0.0747 -0.2321
45325OCT     C190649  10.712   7.054  20.971  0.1441 -0.3471 -0.2740
45325OCT     C290650  10.287   7.110  20.826  0.3206  0.2013  0.2699
45326OCT     C190651  12.326  10.122  13.591 -0.2619  0.2176  0.1859
45326OCT     C290652  11.854  10.237  13.478  0.4153  0.1124  0.1770
45327OCT     C190653  10.743  15.942  13.767  0.2219  0.2115 -0.0765
45327OCT     C290654  10.906  15.532  13.685 -0.1655  0.6093  0.2593
45328OCT     C190655  12.175  20.191   3.469 -0.2507 -0.5513 -0.5789
45328OCT     C290656  11.720  20.337   3.516  0.2428 -0.3005  0.0913
45329OCT     C190657  17.668   5.352  17.859 -0.0309 -0.1411 -0.0983
45329OCT     C290658  17.415   5.014  17.995 -0.1490  0.0165  0.0097
45330OCT     C190659   2.832  10.652  23.524 -0.1575 -0.1725 -0.1811
45330OCT     C290660   3.120  10.567  23.154  0.0292  0.1323  0.1008
45331OCT     C190661  14.417   3.246   3.142  0.2954  0.0343  0.5673
45331OCT     C290662  14.605   2.894   3.363 -0.1555  0.1501 -0.1392
45332OCT     C190663   2.429   6.423   5.744  0.0141 -0.4792  0.0453
45332OCT     C290664   2.839   6.679   5.592 -0.1119 -0.0329  0.0187
45333OCT     C190665   0.106  12.669   9.277  0.0471  0.0495  0.1550
45333OCT     C290666   0.216  12.183   9.293 -0.2380  0.0631 -0.1827
45334OCT     C190667  23.491   6.766   3.783 -0.1487 -0.1444 -0.3660
45334OCT     C290668  23.176   6.678   4.106 -0.2656  0.1255  0.2859
45335OCT     C190669  12.528  12.410   7.202  0.0616 -0.1482 -0.0602
45335OCT     C290670  12.619  11.939   7.264  0.3274 -0.1238  0.3100
45336OCT     C190671   9.121  21.668  11.095 -0.2585  0.4396  0.2029
45336OCT     C290672   8.916  21.671  10.643 -0.2865 -0.5321 -0.0683
45337OCT     C190673   3.499   8.405   4.614  0.0406  0.1763 -0.1255
45337OCT     C290674   3.108   8.146   4.510 -0.2192 -0.1558 -0.3924
45338OCT     C190675   3.897   8.849  20.316  0.0833  0.1732 -0.0536
45338OCT     C290676   4.049   8.731  19.912  0.2310  0.1362 -0.0268
45339OCT     C190677  13.838  20.736  20.858 -0.0517 -0.3589 -0.3799
45339OCT     C290678  14.019  20.276  20.822 -0.2855 -0.3574 -0.3769
45340OCT     C190679   4.863  21.256  10.196 -0.0320 -0.1941  0.0981
45340OCT     C290680   5.088  21.653  10.364  0.0728  0.0138  0.1597
45341OCT     C190681   6.191   1.444  18.429 -0.1653 -0.0314 -0.0029
45341OCT     C290682   6.480   1.108  18.647  0.0698  0.2368  0.2498
45342OCT     C190683   1.761   5.525  10.604  0.2342  0.2676 -0.2014
45342OCT     C290684   1.804   5.908  10.327 -0.4732 -0.0958  0.0446
45343OCT     C190685  22.796  12.803   6.765  0.0000 -0.2415  0.0556
45343OCT     C290686  22.355  12.684   6.594 -0.1529 -0.1980  0.3716
45344OCT     C190687   3.136  14.460   0.042 -0.3758 -0.2975  0.1626
45344OCT     C290688   3.070  14.002   0.170 -0.0287 -0.0791 -0.0829
45345OCT     C190689   7.577  17.777  14.369  0.1866  0.0291  0.3388
45345OCT     C290690   7.266  17.604  14.137 -0.1279 -0.0974  0.1727
45346OCT     C190691  20.916   3.912  20.896 -0.3675 -0.0251 -0.4359
45346OCT     C290692  20.549   3.622  20.932  0.1453  0.0213  0.0441
45347OCT     C190693  14.715  14.548   0.418 -0.0625  0.2238  0.3005
45347OCT     C290694  14.555  14.941   0.187 -0.2136 -0.0051  0.1736
45348OCT     C190695  11.796  22.107   0.555  0.1702  0.0751  0.0087
45348OCT     C290696  11.727  22.000   1.016  0.3565  0.0633 -0.3524
45349OCT     C190697   1.019  16.730  16.549 -0.0191 -0.1817  0.0693
45349OCT     C290698   1.036  16.831  16.104 -0.0231  0.3453  0.0934
45350OCT     C190699   9.492  13.473  10.427  0.2467  0.3319  0.1496
45350OCT     C290700   9.196  13.624  10.803  0.1592  0.1973 -0.0254
45351OCT     C190701   7.315  10.165   7.393  0.1754  0.4327  0.2773
45351OCT     C290702   7.703  10.318   7.308 -0.0106  0.2153  0.0300
45352OCT     C190703  21.244  21.540  17.229 -0.3345 -0.2459  0.5235
45352OCT     C290704  21.679  21.511  16.980  0.1455  0.2736 -0.1159
45353OCT     C190705   5.334   8.064   4.952  0.0788 -0.0143  0.0930
45353OCT     C290706   5.643   8.433   5.007 -0.1006  0.5429 -0.1386
45354OCT     C190707  15.919  22.810   2.292  0.2189 -0.0828  0.0074
45354OCT     C290708  16.222  22.639   1.959 -0.0974  0.0099 -0.2125
45355OCT     C190709   3.772   5.656  13.295  0.3642  0.0093 -0.3740
45355OCT     C290710   3.573   5.954  13.563 -0.0959 -0.3400  0.0711
45356OCT     C190711  17.319   4.215   1.048 -0.0569 -0.1846 -0.2050
45356OCT     C290712  17.198   4.104   0.637 -0.2373 -0.4659  0.2117
45357OCT     C190713   3.562  12.398  15.448 -0.0408 -0.3508 -0.1243
45357OCT     C290714   3.651  12.461  14.990 -0.2117 -0.0865  0.0423
45358OCT     C190715   1.422  21.417  15.262 -0.2420 -0.4451 -0.0255
45358OCT     C290716   1.109  21.748  15.118  0.3233  0.1248  0.0102
45359OCT     C190717  11.763  21.226   5.288 -0.0548  0.3063  0.2230
45359OCT     C290718  11.389  21.044   5.354  0.2701  0.3276  0.0673
45360OCT     C190719   0.737  10.754  16.831  0.1462  0.1047 -0.3152
45360OCT     C290720   1.044  10.623  16.483  0.2929 -0.0860  0.3392
45361OCT     C190721  11.846   2.377  12.026  0.1778 -0.2170 -0.0040
45361OCT     C290722  11.402   2.410  11.909 -0.1936  0.4792 -0.1374
45362OCT     C190723  13.636   7.783  14.864  0.1113  0.0302 -0.1645
45362OCT     C290724  13.294   7.960  15.113 -0.0558  0.2120 -0.2642
45363OCT     C190725  23.464   2.717   0.641  0.3257 -0.0543  0.1730
45363OCT     C290726  23.475   3.110   0.365  0.2514 -0.0257 -0.0860
45364OCT     C190727  10.536  15.331  21.006 -0.2238  0.0184  0.1434
45364OCT     C290728  10.171  15.086  21.054  0.0497  0.1163  0.1238
45365OCT     C190729  11.634  16.961   4.886  0.2583  0.1899  0.0549
45365OCT     C290730  11.288  16.686   5.081  0.2266 -0.3107  0.1901
45366OCT     C190731  22.877   5.901   1.278 -0.0981  0.1813 -0.2904
45366OCT     C290732  22.567   5.529   1.477  0.3068 -0.3074  0.2488
45367OCT     C190733  19.000   1.948   7.572  0.2177  0.0423 -0.0581
45367OCT     C290734  18.838   1.806   7.135  0.1239  0.5238  0.1591
45368OCT     C190735  20.333   8.235  12.313  0.3776  0.0893  0.1094
45368OCT     C290736  20.611   8.409  12.651  0.3881  0.1576  0.2313
45369OCT     C190737  19.881  10.868  22.901  0.1637 -0.0834 -0.1610
45369OCT     C290738  19.606  10.734  22.518 -0.0891  0.3463 -0.0172
45370OCT     C190739  14.294  22.034  13.358  0.1068 -0.2101  0.3747
45370OCT     C290740  14.265  22.534  13.463 -0.2103  0.0745  0.2410
45371OCT     C190741   6.817  19.949   1.863  0.0828 -0.0756 -0.0328
45371OCT     C290742   6.639  19.928   1.429  0.1718 -0.2729 -0.3419
45372OCT     C190743  13.491   4.489   9.128 -0.0079  0.0307  0.1471
45372OCT     C290744  13.137   4.218   9.083  0.1577  0.7012  0.0190
45373OCT     C190745  22.918   4.047  14.209  0.1090  0.3143 -0.2012
45373OCT     C290746  22.809   4.318  14.594  0.1553 -0.3518 -0.2688
45374OCT     C190747  14.111  19.748   2.280 -0.0354 -0.0329  0.1188
45374OCT     C290748  13.728  19.770   2.500  0.0357  0.0493  0.0166
45375OCT     C190749  23.334   7.708  12.183  0.3871  0.0009 -0.0850
45375OCT     C290750  23.290   7.738  12.644  0.0381 -0.0686 -0.1291
45376OCT     C190751   8.947  14.798  20.466 -0.1296  0.4212 -0.2426
45376OCT     C290752   9.293  14.535  20.504 -0.1599 -0.1243 -0.0073
45377OCT     C190753  16.619  14.157  22.482  0.1196 -0.1876  0.1027
45377OCT     C290754  16.691  13.824  22.746 -0.1543 -0.3395 -0.0840
45378OCT     C190755   2.438   3.357   2.891  0.0935 -0.0656 -0.3715
45378OCT     C290756   2.215   3.617   2.556 -0.0843  0.4357  0.0135
45379OCT     C190757  13.516   6.084   9.230 -0.1205 -0.4084 -0.1485
45379OCT     C290758  13.840   6.169   8.874 -0.0877 -0.0655  0.5658
45380OCT     C190759   4.562  13.100   5.425 -0.0649  0.1864 -0.0882
45380OCT     C290760   4.728  13.510   5.518 -0.0110 -0.0269  0.1253
45381OCT     C190761  18.767  20.153  23.601  0.4692 -0.1725  0.2192
45381OCT     C290762  18.469  20.103   0.200 -0.0385 -0.1229  0.0491
45382OCT     C190763  17.653  21.486   2.011  0.4344  0.0468 -0.0912
45382OCT     C290764  17.237  21.653   2.150 -0.1711 -0.1040  0.3495
45383OCT     C190765   2.118  13.119  12.326 -0.1299 -0.0477  0.1890
45383OCT     C290766   2.078  12.945  12.739  0.4118 -0.0692 -0.0399
45384OCT     C190767  18.620   9.198  17.011  0.3599  0.2830 -0.1924
45384OCT     C290768  18.667   9.049  16.528 -0.1522  0.1735 -0.1185
45385OCT     C190769   2.140  20.193  11.455  0.0635  0.0057 -0.1163
45385OCT     C290770   2.150  19.943  11.896  0.0710  0.1161  0.0366
45386OCT     C190771   1.414  17.958  16.364  0.1344  0.1898  0.0203
45386OCT     C290772   1.056  17.692  16.584  0.1622 -0.2498  0.2019
45387OCT     C190773  14.409   4.045   3.212  0.0738 -0.3778  0.0989
45387OCT     C290774  14.793   3.990   3.020  0.0683  0.0274  0.2964
45388OCT     C190775   7.378   0.682   8.830  0.0161 -0.1216  0.0734
45388OCT     C290776   7.568   0.737   9.230  0.0277  0.2058 -0.0786
45389OCT     C190777  13.579  10.566   4.630  0.1091 -0.0656 -0.0127
45389OCT     C290778  13.858  10.262   4.377  0.4727 -0.0717  0.0989
45390OCT     C190779   5.233   3.731  11.270  0.0517 -0.0192 -0.2114
45390OCT     C290780   5.595   3.704  11.598 -0.1003 -0.0679 -0.0103
45391OCT     C190781   9.546  19.593   9.514 -0.1872 -0.3375  0.0284
45391OCT     C290782   9.154  19.735   9.772  0.1375 -0.2300  0.0489
45392OCT     C190783   9.418  20.550   5.987  0.2525  0.0997  0.0287
45392OCT     C290784   9.602  20.521   6.402 -0.5289  0.3984  0.0274
45393OCT     C190785  16.032  19.466   6.825  0.0471 -0.1863  0.0724
45393OCT     C290786  15.769  19.194   6.527  0.2177 -0.0635 -0.0173
45394OCT     C190787   2.195  16.508  15.051  0.1838 -0.0234  0.0761
45394OCT     C290788   2.480  16.550  14.700 -0.2028 -0.0605 -0.1809
45395OCT     C190789  21.480  14.530   8.478  0.1257  0.0783  0.0329
45395OCT     C290790  21.406  14.992   8.512 -0.3707 -0.2004  0.2267
45396OCT     C190791   4.513  15.511  11.517  0.3350  0.0928  0.1020
45396OCT     C290792   4.136  15.617  11.236 -0.0412 -0.5824  0.2109
45397OCT     C190793   7.672  11.592   7.294 -0.2194  0.2217  0.1974
45397OCT     C290794   7.986  11.824   7.550  0.1963 -0.0495  0.0551
45398OCT     C190795  11.761   3.769   4.758  0.4120  0.1475 -0.4006
45398OCT     C290796  11.436   3.806   4.451 -0.0095  0.0102 -0.1815
45399OCT     C190797  15.680   1.967  21.487 -0.0224  0.0701 -0.0801
45399OCT     C290798  15.767   1.974  20.999 -0.1738  0.0324  0.0329
45400OCT     C190799   6.978  10.816   7.025 -0.1279 -0.0111  0.0140
45400OCT     C290800   7.302  10.669   7.288  0.0347  0.0457  0.3494
45401OCT     C190801   2.734   4.687  23.221  0.2673 -0.2451 -0.1705
45401OCT     C290802   2.720   5.099  22.955 -0.0909  0.0181  0.1018
45402OCT     C190803  21.915  17.600  17.226  0.0253 -0.2588  0.2490
45402OCT     C290804  21.916  17.968  16.906  0.1785  0.1975  0.4277
45403OCT     C190805  11.788  20.219  19.097 -0.3999 -0.5203  0.2465
45403OCT     C290806  11.893  20.694  18.921  0.2984 -0.1322  0.1445
45404OCT     C190807   0.651  11.130  10.922 -0.2434 -0.1888 -0.0329
45404OCT     C290808   0.920  11.546  10.928  0.1019  0.1737 -0.0332
45405OCT     C190809   8.082  15.703  16.167  0.3393  0.2447 -0.1118
45405OCT     C290810   8.406  15.757  15.871  0.5273 -0.1301 -0.3473
45406OCT     C190811   9.678   9.120  13.422  0.1767 -0.2583 -0.3043
45406OCT     C290812   9.709   8.908  13.048  0.1365 -0.0902  0.4119
45407OCT     C190813  14.921  23.683  12.255 -0.4571  0.3028 -0.4083
45407OCT     C290814  15.108   0.293  12.502  0.1463  0.2003 -0.0511
45408OCT     C190815  20.754  22.444  22.787 -0.1697  0.1443 -0.1486
45408OCT     C290816  20.816  22.071  23.048 -0.1200  0.0348  0.0582
45409OCT     C190817   2.609  23.685  20.861 -0.0610 -0.1258 -0.1004
45409OCT     C290818   2.312  23.500  20.490 -0.0025  0.1356 -0.0818
45410OCT     C190819   6.737   6.379  16.925  0.3485  0.3018  0.0940
45410OCT     C290820   6.335   6.472  16.721 -0.0105 -0.0860 -0.1187
45411OCT     C190821   5.388   5.256  17.826 -0.1004  0.0029  0.0245
45411OCT     C290822   5.251   5.068  17.429 -0.1797 -0.0129 -0.0386
45412OCT     C190823  15.679   4.331  14.387 -0.3976 -0.0102  0.0503
45412OCT     C290824  15.822   4.366  14.845 -0.0248 -0.1094 -0.0876
45413OCT     C190825  23.013  13.724  23.627  0.2719 -0.0179  0.0074
45413OCT     C290826  22.594  13.585  23.409  0.1925 -0.0800 -0.3235
45414OCT     C190827   1.717  19.077  13.814  0.0160 -0.0286 -0.1027
45414OCT     C290828   1.742  19.114  14.263 -0.1125  0.0386  0.0418
45415OCT     C190829  11.749  17.396  17.259 -0.1960  0.0397 -0.1151
45415OCT     C290830  11.337  17.662  17.183 -0.2666  0.1434 -0.0753
45416OCT     C190831  11.916   6.512  19.378  0.0619 -0.2064 -0.1499
45416OCT     C290832  12.127   6.769  19.754  0.1243  0.6274  0.1839
45417OCT     C190833  14.376  14.227  21.752  0.3052  0.2219 -0.3000
45417OCT     C290834  14.353  13.864  22.102  0.1482  0.3941  0.2089
45418OCT     C190835  13.766  12.178   4.313 -0.1486  0.0384  0.0700
45418OCT     C290836  13.884  11.895   4.671  0.0321  0.1399 -0.3685
45419OCT     C190837  16.779   0.271   9.470 -0.2388 -0.1691  0.2993
45419OCT     C290838  16.645   0.095   9.046 -0.3285  0.2011 -0.3677
45420OCT     C190839   6.907   5.710  13.841 -0.1021  0.2235 -0.0785
45420OCT     C290840   6.776   6.092  13.604  0.4281 -0.3195 -0.1674
45421OCT     C190841  21.045  10.863   3.866 -0.1874  0.0935  0.4039
45421OCT     C290842  20.780  11.067   3.554 -0.1550  0.1985  0.0585
45422OCT     C190843   0.486  11.344  14.465 -0.0541  0.2719 -0.0919
45422OCT     C290844   1.003  11.372  14.375  0.2428  0.1193  0.2307
45423OCT     C190845  20.581   1.708   4.617  0.2319 -0.0475 -0.0208
45423OCT     C290846  20.659   1.539   4.200  0.0133  0.5344  0.0249
45424OCT     C190847   5.288  23.264   9.475  0.1002 -0.1376 -0.3085
45424OCT     C290848   5.065  23.686   9.428 -0.0216  0.1953  0.1355
45425OCT     C190849  20.987  21.954   3.704  0.2039  0.0619  0.0079
45425OCT     C290850  20.826  21.576   3.638  0.0308 -0.1164 -0.3117
45426OCT     C190851  15.053  14.023  20.734 -0.0576 -0.0605  0.1855
45426OCT     C290852  14.873  14.468  20.694  0.2348 -0.0279 -0.1339
45427OCT     C190853  21.472  23.627  11.492 -0.1562 -0.3254 -0.1392
45427OCT     C290854  21.118   0.162  11.675  0.1267  0.0502  0.1997
45428OCT     C190855   1.883  21.986   4.798 -0.1486  0.3313  0.3027
45428OCT     C290856   1.876  21.577   5.107  0.0057  0.3082 -0.1289
45429OCT     C190857   1.967  20.182   1.424 -0.1266 -0.0636  0.1305
45429OCT     C290858   2.245  19.950   1.725  0.3883  0.0101 -0.3772
45430OCT     C190859   6.042  22.884   1.329  0.1662 -0.0357  0.2197
45430OCT     C290860   6.335  22.759   1.017 -0.1474 -0.3951 -0.0825
45431OCT     C190861  21.387  17.694   7.221  0.0688 -0.2500  0.0752
45431OCT     C290862  21.386  18.004   6.800 -0.0517 -0.1219 -0.0696
45432OCT     C190863   8.138  11.252   3.075 -0.2715 -0.0366 -0.2116
45432OCT     C290864   7.655  11.393   3.136 -0.1373  0.0229 -0.0109
45433OCT     C190865  12.311  19.258   4.470  0.0641 -0.0801  0.0873
45433OCT     C290866  11.890  19.208   4.315  0.1031  0.2427  0.0397
45434OCT     C190867   0.503  20.031  18.547 -0.0793 -0.0293  0.0473
45434OCT     C290868   0.344  20.242  18.937 -0.4257 -0.2285 -0.3016
45435OCT     C190869   9.474  18.177   0.636  0.0743  0.0574  0.0036
45435OCT     C290870   9.913  18.267   0.521  0.0491 -0.0385  0.3201
45436OCT     C190871  19.641  22.734  18.229  0.1356  0.0449  0.1542
45436OCT     C290872  19.384  23.131  18.155 -0.1172 -0.3087  0.0093
45437OCT     C190873  22.238  22.148  22.819 -0.0123 -0.1168 -0.0272
45437OCT     C290874  22.536  21.793  22.868  0.2156  0.0757  0.0736
45438OCT     C190875  11.280   7.643   7.991  0.1977 -0.3995 -0.1476
45438OCT     C290876  11.183   7.179   8.038 -0.0181 -0.0283  0.0302
45439OCT     C190877   7.248  19.924   6.376  0.2861  0.1349 -0.0345
45439OCT     C290878   7.557  20.155   6.090 -0.2607  0.1801 -0.0093
45440OCT     C190879  22.661  20.465   7.138 -0.1931  0.2389  0.1436
45440OCT     C290880  22.432  20.221   7.505 -0.0754 -0.2367 -0.1411
45441OCT     C190881   2.321   4.369  15.015 -0.3222 -0.0984  0.1341
45441OCT     C290882   2.639   4.004  15.132 -0.0447 -0.0464  0.3697
45442OCT     C190883   4.708   1.197   7.607  0.0863 -0.3593  0.0171
45442OCT     C290884   4.466   1.326   7.998  0.2091 -0.0945 -0.0650
45443OCT     C190885  23.501  20.426   5.957  0.4487 -0.0795  0.0876
45443OCT     C290886   0.037  20.723   5.681 -0.2770  0.2734  0.6096
45444OCT     C190887  19.310  23.577  20.526 -0.0479 -0.5117  0.0744
45444OCT     C290888  19.698  23.545  20.784 -0.2058 -0.2304  0.0127
45445OCT     C190889  17.837  12.704  23.150 -0.1288 -0.1166  0.0962
45445OCT     C290890  17.569  12.688  23.467  0.0021 -0.0825  0.1758
45446OCT     C190891  16.263  19.185  17.279 -0.0211 -0.2276  0.1653
45446OCT     C290892  15.990  19.503  17.528 -0.1467 -0.1201  0.1824
45447OCT     C190893   5.818   9.905  13.971  0.0976 -0.0513 -0.0665
45447OCT     C290894   5.554  10.262  13.933 -0.4484 -0.1035  0.0255
45448OCT     C190895  18.224  17.739  15.544 -0.2032  0.1108 -0.0889
45448OCT     C290896  18.686  17.562  15.390 -0.1193 -0.2343  0.0544
45449OCT     C190897  19.218  12.857  19.346  0.1364  0.1416 -0.1131
45449OCT     C290898  19.072  13.032  18.931  0.3067 -0.5027 -0.4267
45450OCT     C190899  16.119   5.767  17.197  0.1333 -0.1533  0.1942
45450OCT     C290900  16.307   5.959  16.771  0.0648 -0.1468  0.0310
45451OCT     C190901   7.044   8.229  19.587 -0.1239  0.1644  0.2399
45451OCT     C290902   7.313   7.969  19.268  0.3992 -0.1732 -0.1603
45452OCT     C190903   5.175   7.992   1.413 -0.1034 -0.0466 -0.0502
45452OCT     C290904   4.918   8.385   1.267 -0.0414  0.4534 -0.2767
45453OCT     C190905  17.296  20.470   5.600  0.0504 -0.0559  0.0585
45453OCT     C290906  17.653  20.289   5.353  0.1725  0.1661  0.1649
45454OCT     C190907  22.788   1.090   0.291  0.3549 -0.0256 -0.0408
45454OCT     C290908  22.407   1.062   0.008  0.0951  0.0493  0.2020
45455OCT     C190909   1.593  18.489   9.118 -0.1018  0.1196  0.1310
45455OCT     C290910   2.056  18.518   9.107  0.2097 -0.1327  0.3839
45456OCT     C190911   4.515   8.002  10.637 -0.1568 -0.1428 -0.2586
45456OCT     C290912   4.320   8.002  11.105 -0.1024 -0.1757 -0.1842
45457OCT     C190913  15.684  20.791   0.175  0.0754  0.2027  0.0558
45457OCT     C290914  16.024  20.454   0.182 -0.2045 -0.3090 -0.0959
45458OCT     C190915  17.057   8.552  23.413  0.3543  0.1712  0.1965
45458OCT     C290916  17.027   8.976  23.611 -0.0405  0.1680 -0.0787
45459OCT     C190917  17.112  13.279  17.713 -0.0058 -0.1639  0.3254
45459OCT     C290918  17.574  13.359  17.661  0.2773  0.2404  0.0183
45460OCT     C190919  10.050   9.121  19.203  0.0672 -0.0884 -0.1175
45460OCT     C290920  10.412   9.172  18.906 -0.2332 -0.2170 -0.1108
45461OCT     C190921  13.861  14.003   7.017 -0.5876  0.0942 -0.0233
45461OCT     C290922  14.317  14.019   7.032 -0.0618  0.1697 -0.0384
45462OCT     C190923   8.820  21.589   5.438  0.0108 -0.1256  0.3626
45462OCT     C290924   9.279  21.552   5.289 -0.2524 -0.0508 -0.1005
45463OCT     C190925  22.521  22.356  15.855  0.0898  0.0693  0.1572
45463OCT     C290926  22.938  22.269  16.049  0.0184 -0.0577  0.0767
45464OCT     C190927  17.814  23.101   0.878 -0.3365 -0.1294  0.1498
45464OCT     C290928  18.274  23.020   1.078  0.2038 -0.2166 -0.0351
45465OCT     C190929   7.721   4.271  21.727 -0.0286  0.2884 -0.4264
45465OCT     C290930   8.003   4.499  21.537 -0.0059  0.0510 -0.2112
45466OCT     C190931   9.814   8.952  15.310 -0.2870  0.0244 -0.3321
45466OCT     C290932   9.778   8.588  15.030 -0.0174  0.0934 -0.0494
45467OCT     C190933  20.671   2.362  13.518  0.0792  0.3183  0.2729
45467OCT     C290934  20.403   2.146  13.765  0.1415  0.0089 -0.1180
45468OCT     C190935  21.150  16.447  10.867  0.2239  0.1541 -0.1619
45468OCT     C290936  20.798  16.290  11.046 -0.0244 -0.1249 -0.4023
45469OCT     C190937   0.043  20.262   2.563  0.1533 -0.2759 -0.0885
45469OCT     C290938   0.158  19.838   2.622 -0.2579 -0.1166  0.1157
45470OCT     C190939   8.078  19.827  20.380  0.4435  0.0965  0.3108
45470OCT     C290940   7.890  20.002  20.797 -0.0094  0.2329 -0.0409
45471OCT     C190941  14.186   0.351   2.396 -0.4171 -0.1522  0.1134
45471OCT     C290942  14.523   0.407   2.732  0.0278 -0.1231  0.1376
45472OCT     C190943   1.980   8.533   2.686 -0.3152  0.1493  0.0912
45472OCT     C290944   1.733   8.378   2.358  0.0531 -0.0748 -0.0270
45473OCT     C190945   5.936   0.523  18.648 -0.2470 -0.1152 -0.1806
45473OCT     C290946   6.060   0.932  18.331  0.0260  0.3033 -0.1494
45474OCT     C190947  13.811  23.106  17.122  0.1445  0.0550  0.1439
45474OCT     C290948  14.266  23.170  17.166  0.1137  0.0747 -0.4296
45475OCT     C190949   1.124  10.745  15.641  0.0931 -0.1840  0.0661
45475OCT     C290950   1.429  10.673  15.266 -0.0194 -0.1567  0.0815
45476OCT     C190951   4.284  15.782  15.946 -0.2484  0.0022 -0.1899
45476OCT     C290952   4.769  15.954  16.018  0.2259 -0.1100 -0.1809
45477OCT     C190953   5.706  22.613  11.653 -0.1300  0.0392  0.1889
45477OCT     C290954   5.322  22.624  11.369  0.0209  0.4607 -0.0304
45478OCT     C190955  22.799  19.076   8.755 -0.0080 -0.0549 -0.0175
45478OCT     C290956  23.053  19.378   8.620 -0.1572  0.3302 -0.0394
45479OCT     C190957  11.693   9.810   0.874  0.4731 -0.0052 -0.0019
45479OCT     C290958  12.013   9.670   0.613  0.1320  0.0197 -0.2245
45480OCT     C190959  10.796  18.228  14.896  0.2564 -0.0592  0.0393
45480OCT     C290960  10.614  17.757  14.975  0.0624 -0.2120 -0.0635
45481OCT     C190961  10.853  18.164   6.552  0.1558  0.1782  0.0456
45481OCT     C290962  10.531  17.891   6.423 -0.1648  0.3639 -0.1266
45482OCT     C190963   0.132  14.416   3.340 -0.5399 -0.0983  0.0977
45482OCT     C290964   0.071  14.028   3.580  0.0641  0.0400 -0.2625
45483OCT     C190965  18.075  21.528   8.863  0.2148 -0.0069  0.0551
45483OCT     C290966  17.711  21.420   9.097 -0.1260  0.1737 -0.1962
45484OCT     C190967   9.969   0.715  16.386 -0.0320  0.3529  0.0245
45484OCT     C290968   9.761   0.946  16.755  0.1746 -0.3453 -0.0150
45485OCT     C190969   7.752  10.998   8.036 -0.1936 -0.0579 -0.1221
45485OCT     C290970   7.759  11.386   7.745 -0.0818  0.1139 -0.3100
45486OCT     C190971   4.014   2.500   1.047 -0.0049  0.2704  0.1581
45486OCT     C290972   4.166   2.385   0.659  0.0738  0.0664 -0.1036
45487OCT     C190973  13.964  10.925  10.690 -0.3051 -0.2658  0.0324
45487OCT     C290974  13.473  11.005  10.854 -0.2342  0.1263  0.1542
45488OCT     C190975  19.684  15.816  23.225  0.1171 -0.0814  0.0021
45488OCT     C290976  19.680  15.437  23.478  0.2607 -0.2219  0.0681
45489OCT     C190977   9.753   9.949  16.463 -0.0812 -0.1430 -0.0957
45489OCT     C290978   9.378   9.719  16.353 -0.1881  0.1983  0.3070
45490OCT     C190979  20.352  23.692  22.914  0.1224 -0.3855 -0.1223
45490OCT     C290980  20.807  23.644  22.758  0.1547  0.0352  0.0306
45491OCT     C190981  11.617  14.364   5.610 -0.2412 -0.1988  0.2967
45491OCT     C290982  11.388  14.476   5.170 -0.1815  0.0247 -0.1418
45492OCT     C190983   9.660   1.204   1.119 -0.0483 -0.5468  0.1146
45492OCT     C290984   9.744   0.872   0.756  0.0006  0.0777  0.0678
45493OCT     C190985  18.723   9.550   3.400 -0.1092 -0.1400  0.1225
45493OCT     C290986  18.371   9.440   3.180  0.2150 -0.1031  0.0767
45494OCT     C190987   3.956  23.720   4.115 -0.2483 -0.1413 -0.0734
45494OCT     C290988   4.143   0.296   3.932 -0.2198  0.4962 -0.1672
45495OCT     C190989  18.242   0.183  11.530  0.0592  0.0005  0.0291
45495OCT     C290990  18.395   0.234  11.076  0.0649  0.2949 -0.0556
45496OCT     C190991   0.483  21.165  15.205 -0.1148  0.2441 -0.2526
45496OCT     C290992   0.104  20.951  15.366  0.3701  0.0895 -0.1414
45497OCT     C190993  11.824  12.811  22.944  0.1969  0.2579  0.2408
45497OCT     C290994  12.232  12.847  22.737 -0.0297 -0.4034 -0.1908
45498OCT     C190995   2.416  16.398  16.682 -0.1159 -0.1355  0.0177
45498OCT     C290996   2.577  16.249  17.072 -0.4006  0.0121 -0.0980
45499OCT     C190997   8.452   8.951   0.524  0.0818  0.5793  0.5127
45499OCT     C290998   8.141   9.109   0.831  0.0263  0.2177 -0.1566
45500OCT     C190999   5.774  19.897  23.213  0.1635  0.3138  0.0520
45500OCT     C291000   5.957  19.584  23.502 -0.1919  0.2693  0.0417
45501OCT     C191001  14.832  12.881   2.733  0.0029 -0.0732 -0.0972
45501OCT     C291002  15.041  12.830   2.297  0.6233 -0.1456  0.0036
45502OCT     C191003  16.772  22.331  10.344  0.4301  0.1743  0.3464
45502OCT     C291004  17.141  22.525  10.385 -0.0739 -0.0280 -0.2966
45503OCT     C191005  12.767   6.457   1.402 -0.0557  0.1533  0.1081
45503OCT     C291006  12.523   6.228   1.127 -0.2789  0.0537 -0.0392
45504OCT     C191007  13.113   2.029  19.409 -0.2148 -0.0586 -0.0995
45504OCT     C291008  13.314   2.436  19.479  0.1781 -0.1428  0.0010
45505OCT     C191009  16.581   2.790   4.737 -0.5821  0.0574 -0.4107
45505OCT     C291010  16.924   2.754   4.389 -0.1818 -0.0797  0.1990
45506OCT     C191011  22.109  11.948  13.935 -0.1120  0.1341 -0.1550
45506OCT     C291012  21.951  11.470  13.959 -0.0327 -0.0152  0.2739
45507OCT     C191013  14.129  17.476  14.698  0.0125  0.2984  0.3055
45507OCT     C291014  14.269  17.762  14.993  0.2385  0.0803  0.0920
45508OCT     C191015   2.541  17.429  19.430 -0.0789  0.4539 -0.0913
45508OCT     C291016   2.127  17.183  19.478  0.0180 -0.1185 -0.3075
45509OCT     C191017  21.856   2.089  10.910  0.1132  0.1103  0.1218
45509OCT     C291018  21.400   2.235  10.837  0.5124  0.1535 -0.2468
45510OCT     C191019  17.061  14.750  19.015 -0.4080 -0.4086  0.1993
45510OCT     C291020  17.040  15.119  19.309 -0.4147 -0.0098  0.5710
45511OCT     C191021   3.521   4.964   6.725  0.3159 -0.0825 -0.0105
45511OCT     C291022   3.619   5.407   6.544  0.0309 -0.0389 -0.1689
45512OCT     C191023  17.071   2.629  19.861 -0.3412 -0.0464 -0.1630
45512OCT     C291024  17.316   2.382  20.191 -0.2570  0.1084  0.2776
45513OCT     C191025  23.143   6.828   3.182  0.0684  0.0326  0.2538
45513OCT     C291026  23.571   6.613   3.316  0.1035 -0.1861  0.2715
45514OCT     C191027  21.777  18.731  10.164 -0.3499 -0.2484 -0.1333
45514OCT     C291028  22.207  18.896  10.021 -0.0055  0.0665  0.0113
45515OCT     C191029  23.473  15.133   1.748 -0.0982 -0.1667 -0.2070
45515OCT     C291030  23.692  15.187   1.327  0.1189 -0.1237  0.1862
45516OCT     C191031   4.661  22.680   5.809  0.1296  0.2925 -0.3418
45516OCT     C291032   4.384  22.528   5.497 -0.0689 -0.3244  0.0655
45517OCT     C191033   7.004  23.737  11.066  0.3704  0.0363  0.0472
45517OCT     C291034   7.273   0.185  10.740 -0.0003 -0.1759  0.0286
45518OCT     C191035   4.463   5.481   4.020  0.0874 -0.1866 -0.0370
45518OCT     C291036   4.594   5.743   3.667  0.0521  0.0148  0.0710
45519OCT     C191037  11.865  18.361  21.548  0.2316  0.3633 -0.1427
45519OCT     C291038  11.398  18.479  21.603 -0.0196 -0.0125 -0.1248
45520OCT     C191039  12.595  14.445  21.858 -0.3903  0.0749  0.1606
45520OCT     C291040  12.178  14.229  21.812  0.1883  0.0245  0.0823
45521OCT     C191041   0.597   5.840   1.292 -0.2738 -0.0888 -0.3704
45521OCT     C291042   0.148   5.902   1.249  0.0469  0.1665  0.0807
45522OCT     C191043  12.201  13.739   2.073  0.0083  0.3552  0.4502
45522OCT     C291044  11.820  13.521   2.291 -0.2200 -0.0089 -0.0268
45523OCT     C191045   6.890  11.079  11.839 -0.1497  0.3033  0.3073
45523OCT     C291046   7.187  10.991  12.235 -0.0915  0.2429 -0.0809
45524OCT     C191047  22.293  19.909  11.905  0.0123  0.4798  0.1918
45524OCT     C291048  22.364  19.413  11.912  0.1207  0.0235  0.1328
45525OCT     C191049   1.150  16.120  10.832 -0.1457 -0.0033 -0.1576
45525OCT     C291050   1.584  15.973  10.775 -0.0833  0.1321 -0.2814
45526OCT     C191051  15.443   5.222   9.105 -0.0045 -0.0619 -0.3238
45526OCT     C291052  15.702   5.137   9.469 -0.0122  0.3652  0.1648
45527OCT     C191053  11.448  14.007  19.577  0.0353  0.1092 -0.3127
45527OCT     C291054  11.333  14.067  20.053 -0.2977  0.1564  0.1649
45528OCT     C191055  18.470   4.512  22.992  0.0730 -0.0298 -0.2204
45528OCT     C291056  18.452   4.072  23.079  0.1708  0.0772 -0.0829
45529OCT     C191057   1.715  10.275  15.165  0.0755  0.2675  0.3089
45529OCT     C291058   1.899   9.950  14.843 -0.0384 -0.2744 -0.4776
45530OCT     C191059   5.497  11.712  21.330  0.2644  0.1626  0.2619
45530OCT     C291060   5.898  11.868  21.557 -0.1133  0.2811  0.1923
45531OCT     C191061   1.155  12.828  20.831  0.0396  0.0554 -0.1664
45531OCT     C291062   0.705  12.817  20.959  0.3551  0.3465 -0.4026
45532OCT     C191063   1.714   9.587  21.255 -0.1925  0.2060 -0.0841
45532OCT     C291064   1.787   9.317  21.641  0.2706 -0.0180 -0.0448
45533OCT     C191065  23.537  21.523   6.603  0.1935  0.2761 -0.0545
45533OCT     C291066  23.711  21.167   6.298 -0.1185  0.0364  0.1116
45534OCT     C191067  23.659   3.482  19.295 -0.2460 -0.0632 -0.4736
45534OCT     C291068   0.180   3.254  18.967 -0.1176  0.0369  0.0956
45535OCT     C191069  18.722  19.753   2.623 -0.0167 -0.0801  0.0333
45535OCT     C291070  18.298  19.957   2.658 -0.5822 -0.0140 -0.1472
45536OCT     C191071  22.993   1.899   8.802  0.0299  0.1718 -0.1532
45536OCT     C291072  23.295   1.628   8.560  0.4809  0.3071  0.2335
45537OCT     C191073  21.812  11.452  16.356  0.1253  0.1201 -0.3436
45537OCT     C291074  22.196  11.656  16.606  0.0261  0.1532  0.0437
45538OCT     C191075  13.737  20.380   9.160  0.3225  0.3157  0.2735
45538OCT     C291076  13.456  20.447   8.702  0.3027  0.1510  0.1093
45539OCT     C191077  12.357   0.418  14.116 -0.0603 -0.1277 -0.0124
45539OCT     C291078  12.632   0.143  14.336  0.0555  0.5776 -0.2818
45540OCT     C191079  13.058   8.587  19.695  0.2450 -0.0883 -0.1815
45540OCT     C291080  12.744   8.741  19.976 -0.1809  0.1219 -0.1136
45541OCT     C191081  22.098  12.392   3.402  0.2307  0.3188 -0.0616
45541OCT     C291082  22.326  12.016   3.605  0.0347 -0.2046 -0.2250
45542OCT     C191083  16.472  16.265  15.924  0.0885 -0.0174  0.1619
45542OCT     C291084  16.828  15.916  15.818 -0.0858  0.2222 -0.2485
45543OCT     C191085  22.764   1.575  16.953 -0.0984 -0.3853 -0.1843
45543OCT     C291086  22.830   2.047  17.150  0.2766 -0.0545  0.0557
45544OCT     C191087  23.235  11.588   1.074  0.0883  0.0018  0.1607
45544OCT     C291088  23.380  11.141   1.060 -0.0255 -0.2615 -0.2920
45545OCT     C191089  16.655   9.708   5.170  0.0700 -0.0014  0.1691
45545OCT     C291090  16.470  10.125   5.067  0.2184  0.4234  0.0844
45546OCT     C191091  10.949   0.665  20.634  0.3365  0.0530  0.1849
45546OCT     C291092  10.588   0.875  20.745 -0.3664  0.0254  0.1602
45547OCT     C191093  21.237   0.514   7.175 -0.1668 -0.2583 -0.3886
45547OCT     C291094  21.320   0.271   6.779  0.0386 -0.0971 -0.1920
45548OCT     C191095   4.859   3.564   8.935 -0.4229 -0.2676 -0.0757
45548OCT     C291096   4.625   3.152   8.939 -0.1641 -0.0061  0.1884
45549OCT     C191097  16.509  21.947  14.016 -0.1230 -0.2846  0.2212
45549OCT     C291098  16.900  21.763  14.183 -0.2154 -0.0247  0.1266
45550OCT     C191099   6.940   2.150   0.100 -0.1690  0.2845  0.0900
45550OCT     C291100   6.930   1.810   0.401 -0.6891 -0.0575  0.5141
45551OCT     C191101  10.292   4.245   6.205 -0.3761  0.0787  0.3636
45551OCT     C291102  10.734   4.221   5.918  0.4261  0.0758 -0.1328
45552OCT     C191103   5.979  16.094  18.181  0.0345 -0.4690 -0.0602
45552OCT     C291104   6.414  16.008  18.010  0.0156 -0.4881 -0.2605
45553OCT     C191105  16.080   5.333   0.037  0.1254  0.3215 -0.0170
45553OCT     C291106  15.863   4.938  23.725 -0.0154 -0.2060 -0.0536
45554OCT     C191107   6.852  15.643  20.731  0.2235  0.0651 -0.1102
45554OCT     C291108   6.504  15.934  20.675 -0.1922  0.1223 -0.0544
45555OCT     C191109  13.486   3.077   5.593 -0.0676 -0.1570  0.3831
45555OCT     C291110  13.516   2.619   5.497 -0.1874  0.2755 -0.2223
45556OCT     C191111  20.015   0.272  10.528 -0.0713  0.4265 -0.2758
45556OCT     C291112  19.669   0.015  10.307 -0.0972 -0.4235  0.0889
45557OCT     C191113  18.528  13.723  15.223  0.1962  0.0600 -0.0750
45557OCT     C291114  18.803  14.141  15.148  0.2277  0.1772 -0.0139
45558OCT     C191115   3.135  22.911   0.250 -0.3013  0.0129 -0.0574
45558OCT     C291116   2.720  22.970   0.370 -0.3337  0.5168 -0.1247
45559OCT     C191117  17.740  17.532  18.666  0.1498 -0.4192 -0.1864
45559OCT     C291118  17.441  17.541  18.319  0.0425 -0.0253 -0.2657
45560OCT     C191119  11.324   8.239  17.775 -0.1088  0.0537 -0.1227
45560OCT     C291120  11.411   8.374  17.379 -0.1431  0.1236  0.3211
45561OCT     C191121   7.661  13.160  22.296 -0.3402  0.0711 -0.1969
45561OCT     C291122   7.584  12.832  21.933  0.3827 -0.1899  0.0970
45562OCT     C191123  16.824  15.763  22.994  0.1768  0.2441  0.1345
45562OCT     C291124  17.172  15.453  23.047  0.3542 -0.2111  0.1095
45563OCT     C191125   9.141   5.207   1.306 -0.2712  0.2971 -0.5527
45563OCT     C291126   9.327   4.757   1.189  0.4286  0.0863 -0.0835
45564OCT     C191127  14.728  14.436   7.993 -0.0295  0.0152  0.1861
45564OCT     C291128  15.034  14.106   7.858 -0.3612  0.1844 -0.2390
45565OCT     C191129   0.509   7.923   8.494  0.1028  0.0171  0.2982
45565OCT     C291130   0.225   7.931   8.100  0.1147  0.2636  0.2901
45566OCT     C191131   5.043  20.728   2.925  0.2485 -0.0144  0.2843
45566OCT     C291132   4.885  20.528   2.499 -0.1608 -0.0798 -0.3598
45567OCT     C191133   0.961   1.874  21.791 -0.0132 -0.0755  0.5984
45567OCT     C291134   0.740   1.946  22.157  0.0844 -0.0427  0.3486
45568OCT     C191135  11.078  20.363  12.541 -0.0739 -0.1032  0.1174
45568OCT     C291136  10.847  20.377  12.142 -0.0384  0.1203 -0.2682
45569OCT     C191137  14.924  22.886   2.047  0.1742 -0.1554 -0.2396
45569OCT     C291138  14.582  22.669   2.357  0.2924  0.1837 -0.1427
45570OCT     C191139  20.405   8.812  16.708 -0.2246 -0.1387 -0.2331
45570OCT     C291140  19.954   8.943  16.765 -0.0591 -0.1088  0.1448
45571OCT     C191141  21.460  19.038   5.574 -0.2566  0.1416 -0.3201
45571OCT     C291142  21.438  18.574   5.459  0.2458  0.1075  0.1468
45572OCT     C191143  21.070  20.845   1.356  0.3122 -0.3967 -0.0105
45572OCT     C291144  21.403  20.984   1.608 -0.1904  0.1935  0.0291
45573OCT     C191145   6.043   1.237  19.433 -0.1402 -0.3942 -0.2153
45573OCT     C291146   6.142   1.350  19.886 -0.0888 -0.0638  0.0872
45574OCT     C191147   6.083   3.858  19.231  0.1220 -0.1450 -0.1662
45574OCT     C291148   5.880   4.164  18.871 -0.3702  0.0036  0.3490
45575OCT     C191149  10.555  21.615  17.915  0.0683  0.3418  0.2995
45575OCT     C291150  10.818  21.980  17.842 -0.2448  0.3128  0.3423
45576OCT     C191151  11.324   0.013  16.396 -0.2380  0.2574  0.2901
45576OCT     C291152  11.543  23.511  16.756 -0.1658 -0.3193  0.0954
45577OCT     C191153  23.673   4.400  23.159 -0.1075 -0.3439 -0.0040
45577OCT     C291154  23.416   4.164  22.899  0.1873 -0.1662  0.1554
45578OCT     C191155  12.637   1.144  18.593  0.0330 -0.1143 -0.0960
45578OCT     C291156  12.531   1.243  18.130  0.1959  0.0978  0.1875
45579OCT     C191157  17.831  22.888  21.148 -0.1087  0.3117  0.1010
45579OCT     C291158  17.528  23.236  21.268 -0.0745 -0.1708 -0.0681
45580OCT     C191159  16.930  22.422   0.075  0.2434  0.0034 -0.5076
45580OCT     C291160  17.286  22.685   0.117 -0.4222  0.0302  0.2309
45581OCT     C191161  12.782  11.167   9.646 -0.1557  0.0319  0.0456
45581OCT     C291162  12.892  11.160  10.112  0.0577 -0.0045  0.2626
45582OCT     C191163   2.728   8.469  21.058  0.0879  0.3254  0.0394
45582OCT     C291164   3.019   8.578  21.412 -0.0081 -0.5366 -0.0448
45583OCT     C191165  11.033  13.316  16.758  0.2595  0.4292  0.0670
45583OCT     C291166  11.114  13.215  16.265  0.0902  0.0927  0.1443
45584OCT     C191167  15.073   8.544  21.576  0.2047  0.1442 -0.0896
45584OCT     C291168  15.157   8.438  21.126  0.0002  0.1502 -0.1977
45585OCT     C191169   6.579  14.600   1.311 -0.3324  0.2726 -0.1103
45585OCT     C291170   7.032  14.476   1.423  0.1849 -0.0669  0.1692
45586OCT     C191171  18.488  14.067   5.231  0.2813 -0.3763 -0.2565
45586OCT     C291172  18.107  14.198   5.481  0.1441  0.0716 -0.0102
45587OCT     C191173  21.282   9.835  10.709  0.0883 -0.2128 -0.4022
45587OCT     C291174  20.842   9.997  10.759 -0.1479 -0.1888  0.0052
45588OCT     C191175  20.308  18.159   7.089  0.0322 -0.2693  0.0204
45588OCT     C291176  20.660  18.147   6.770  0.0130 -0.1116  0.0003
45589OCT     C191177   2.264  12.395  11.445  0.1524 -0.0353  0.1095
45589OCT     C291178   2.581  12.582  11.754 -0.1171 -0.1705  0.2791
45590OCT     C191179   8.866  13.210   8.278  0.0261 -0.3777 -0.0158
45590OCT     C291180   9.038  13.658   8.313  0.4695  0.1066  0.1280
45591OCT     C191181   3.458  19.198  23.238  0.0008 -0.1641  0.1749
45591OCT     C291182   3.168  19.495  23.215  0.0782 -0.1239  0.3260
45592OCT     C191183  20.619   7.169  23.035 -0.3411  0.0195  0.0707
45592OCT     C291184  20.180   7.220  23.014 -0.1411 -0.4309 -0.0621
45593OCT     C191185  11.971   0.168  23.356  0.3439  0.3024 -0.2529
45593OCT     C291186  11.708  23.561  23.186 -0.2597 -0.0187 -0.1577
45594OCT     C191187   3.795   6.800  21.127  0.0205  0.3042 -0.4295
45594OCT     C291188   3.483   7.067  20.923 -0.3853  0.4827  0.3470
45595OCT     C191189  14.488   7.350   2.187  0.2699 -0.0026  0.2453
45595OCT     C291190  14.179   7.065   2.488  0.2057 -0.1927 -0.0985
45596OCT     C191191   1.755  22.170  13.366  0.0273 -0.0029  0.0283
45596OCT     C291192   1.567  22.167  12.917 -0.0236  0.0973  0.1436
45597OCT     C191193  22.214  19.887  21.172 -0.0186 -0.1151 -0.0145
45597OCT     C291194  22.194  19.511  20.958 -0.0542 -0.0303 -0.0403
45598OCT     C191195  15.544  13.675  12.910  0.1064  0.2811 -0.0046
45598OCT     C291196  15.674  14.085  12.984  0.0351 -0.1458 -0.0736
45599OCT     C191197  19.640  20.759   0.227  0.1409  0.4971 -0.3137
45599OCT     C291198  19.883  20.452   0.465 -0.3712 -0.3900  0.2214
45600OCT     C191199   7.546   2.561  11.190  0.0094 -0.0251 -0.0847
45600OCT     C291200   7.818   2.294  11.006 -0.0340 -0.2242 -0.1668
45601OCT     C191201  15.116  13.855   4.980 -0.0811  0.2462  0.1340
45601OCT     C291202  14.655  13.876   5.117  0.2610 -0.1611  0.3089
45602OCT     C191203  16.245   7.125   1.024  0.3104 -0.0350 -0.3360
45602OCT     C291204  15.866   7.171   1.350 -0.4595 -0.1521  0.2530
45603OCT     C191205  11.053  13.733  19.849  0.3416 -0.0307  0.1030
45603OCT     C291206  10.803  14.114  19.907 -0.2656 -0.2005  0.0688
45604OCT     C191207  22.848  17.247  15.981 -0.0972  0.0803  0.2147
45604OCT     C291208  23.062  17.309  15.578  0.1279 -0.2809 -0.1171
45605OCT     C191209  21.197  16.194   1.321  0.0096  0.3072 -0.0453
45605OCT     C291210  21.069  16.622   1.386  0.2232  0.1722  0.0828
45606OCT     C191211  15.554  21.998  15.499  0.0583 -0.2290 -0.0301
45606OCT     C291212  15.424  21.641  15.737  0.2686  0.0953  0.2183
45607OCT     C191213  14.414  12.298   1.905  0.1225 -0.0556  0.3096
45607OCT     C291214  14.043  12.301   2.180  0.2178 -0.1793 -0.2701
45608OCT     C191215  11.955  16.412   0.658  0.1443 -0.0134  0.0576
45608OCT     C291216  12.483  16.409   0.759 -0.1731  0.1521  0.3175
45609OCT     C191217  23.218  22.825  11.575  0.0993  0.0739 -0.2244
45609OCT     C291218  23.558  23.126  11.545  0.0287  0.0309 -0.0218
45610OCT     C191219  15.140  23.617   6.867  0.1858 -0.1384 -0.0781
45610OCT     C291220  15.031   0.040   7.263 -0.2162 -0.1638  0.2303
45611OCT     C191221  19.071  16.219   5.530 -0.0105  0.0173  0.0146
45611OCT     C291222  19.012  16.553   5.842 -0.0669 -0.6383 -0.1520
45612OCT     C191223  10.155   8.309  11.854  0.0844  0.0298 -0.2837
45612OCT     C291224   9.960   8.693  12.150 -0.2138  0.1673  0.2612
45613OCT     C191225   5.692   1.575  16.590 -0.3714 -0.0888  0.0706
45613OCT     C291226   5.298   1.758  16.472  0.0836 -0.0091 -0.0099
45614OCT     C191227   7.377   9.007  11.125 -0.1950  0.1265 -0.0648
45614OCT     C291228   7.548   9.426  11.150  0.4702  0.1579 -0.1490
45615OCT     C191229   6.436  21.806   9.252  0.0616 -0.0477  0.0745
45615OCT     C291230   6.223  21.402   8.992 -0.1370 -0.1662 -0.0297
45616OCT     C191231   0.805  19.164  20.672 -0.1452  0.1568 -0.2719
45616OCT     C291232   1.258  19.256  20.772  0.2909  0.1981  0.3583
45617OCT     C191233   6.617   4.915  17.650  0.1167  0.1749 -0.0715
45617OCT     C291234   6.449   4.463  17.526 -0.2134 -0.0517 -0.5594
45618OCT     C191235  16.203  14.349   4.537 -0.2685  0.1897  0.2156
45618OCT     C291236  16.196  14.648   4.873  0.2375 -0.0397 -0.0078
45619OCT     C191237  22.057   1.836   2.220 -0.0914 -0.3850 -0.0860
45619OCT     C291238  22.321   1.806   1.793 -0.2492 -0.4144 -0.5218
45620OCT     C191239   6.575  14.796  10.785  0.0942  0.3183  0.1757
45620OCT     C291240   6.955  14.859  10.574  0.2850 -0.2947 -0.0835
45621OCT     C191241   7.197  22.470   6.449  0.1361  0.2666  0.1974
45621OCT     C291242   7.605  22.403   6.675 -0.1628  0.1350  0.3675
45622OCT     C191243  15.108  18.640  10.070  0.6113  0.1178  0.3638
45622OCT     C291244  14.847  18.697   9.671  0.0766  0.5732 -0.1897
45623OCT     C191245  20.232  15.924  19.286  0.1537 -0.0153 -0.1192
45623OCT     C291246  20.220  16.149  19.712  0.0752  0.2068 -0.1213
45624OCT     C191247  21.548   0.160   7.363  0.0468  0.3340  0.2244
45624OCT     C291248  21.982   0.335   7.375  0.1971  0.3139 -0.0743
45625OCT     C191249   4.198   4.746   9.161  0.0534  0.4212 -0.6115
45625OCT     C291250   4.635   4.919   9.184  0.5512 -0.0941 -0.2202
45626OCT     C191251  20.755  19.159  12.446 -0.2741 -0.1767  0.0533
45626OCT     C291252  20.351  18.963  12.421  0.1086  0.2667 -0.2854
45627OCT     C191253   8.034   2.812   3.683 -0.2504  0.1166  0.1573
45627OCT     C291254   7.963   2.807   3.208  0.0978  0.0546  0.2646
45628OCT     C191255  12.299   5.076  16.274 -0.0710 -0.1235  0.0624
45628OCT     C291256  11.911   5.353  16.231 -0.0578 -0.0538  0.1024
45629OCT     C191257  20.553   0.282  12.024 -0.2170 -0.0385 -0.0922
45629OCT     C291258  20.728  23.716  12.392 -0.0952  0.2244  0.1952
45630OCT     C191259  18.636  21.598  15.700 -0.2152 -0.4375 -0.0544
45630OCT     C291260  18.276  21.793  15.453 -0.0079  0.0910  0.0923
45631OCT     C191261   0.476   4.442   3.043 -0.0196 -0.0683  0.1909
45631OCT     C291262   0.842   4.781   3.239  0.2405 -0.2495  0.2988
45632OCT     C191263   4.585   7.250  20.532 -0.0238  0.1787 -0.0534
45632OCT     C291264   4.415   7.269  20.070 -0.3283  0.0140 -0.2060
45633OCT     C191265  19.821  21.793   1.025  0.1163  0.1451  0.4986
45633OCT     C291266  19.479  21.499   0.988 -0.0099 -0.0369  0.2021
45634OCT     C191267   5.047   6.100  16.694 -0.0376 -0.2587  0.2176
45634OCT     C291268   5.498   6.263  16.669 -0.0898  0.1950 -0.1416
45635OCT     C191269   4.689  19.697   3.126  0.2139  0.3096  0.0867
45635OCT     C291270   4.940  19.316   3.220  0.0886 -0.0189 -0.0571
45636OCT     C191271   7.698   2.796   2.025  0.2876  0.2154  0.2062
45636OCT     C291272   7.580   2.826   1.592  0.2743  0.1799 -0.3641
45637OCT     C191273  11.511  14.250   6.035  0.2200 -0.0020  0.0971
45637OCT     C291274  11.881  13.970   5.882  0.1924 -0.2100 -0.2243
45638OCT     C191275  22.486   6.221  10.501  0.1342 -0.0742  0.5654
45638OCT     C291276  22.927   6.309  10.382 -0.1577 -0.1503 -0.1347
45639OCT     C191277  16.626  22.389  18.900  0.0245  0.2532 -0.0482
45639OCT     C291278  16.208  22.530  18.633  0.1555  0.1400 -0.1466
45640OCT     C191279  17.498  11.025  10.570 -0.0626 -0.1308  0.1045
45640OCT     C291280  17.480  10.938  10.124 -0.0526  0.0913  0.1565
45641OCT     C191281  23.495   9.959  20.867 -0.2447 -0.0083  0.2794
45641OCT     C291282  23.538  10.356  20.712  0.1315 -0.0626  0.3809
45642OCT     C191283  10.692  16.418   2.881  0.2605 -0.0339 -0.0881
45642OCT     C291284  11.011  16.089   3.027  0.1807  0.0945  0.1985
45643OCT     C191285  11.976  22.674   4.612 -0.2013 -0.0288  0.0182
45643OCT     C291286  11.724  22.879   4.215 -0.0902  0.0491  0.1861
45644OCT     C191287  21.779  18.666  10.653  0.1820  0.2259  0.1339
45644OCT     C291288  21.369  18.724  10.844 -0.0114  0.1116  0.1246
45645OCT     C191289  10.800   7.865  10.634  0.2870  0.1354  0.0828
45645OCT     C291290  11.052   8.200  10.451 -0.0838  0.0847  0.0143
45646OCT     C191291   9.794   3.687  17.967  0.1296 -0.0432  0.2463
45646OCT     C291292   9.562   3.313  17.795 -0.1448  0.2869  0.1325
45647OCT     C191293  18.710  16.702   8.621 -0.0575  0.2739 -0.1298
45647OCT     C291294  19.081  16.385   8.557 -0.0799 -0.2159  0.4982
45648OCT     C191295  19.609   1.544   4.253 -0.0197  0.2493 -0.1866
45648OCT     C291296  19.153   1.565   4.375  0.1137  0.0685 -0.1701
45649OCT     C191297  14.423  21.491  13.224  0.0121 -0.1200  0.0105
45649OCT     C291298  14.012  21.198  13.249 -0.0305  0.2912 -0.0688
45650OCT     C191299  18.746  16.121  23.551 -0.0047  0.2488 -0.3283
45650OCT     C291300  18.985  16.413   0.024 -0.1316 -0.0461 -0.0477
45651OCT     C191301  13.148   7.493   0.810  0.2188 -0.1836 -0.0502
45651OCT     C291302  13.000   7.126   0.587  0.1903 -0.1904  0.0002
45652OCT     C191303  20.430  19.853   4.868 -0.1115 -0.0033  0.1016
45652OCT     C291304  20.537  19.726   4.464 -0.2185 -0.3024 -0.0510
45653OCT     C191305  16.934   8.243  11.304 -0.1609  0.3361  0.0024
45653OCT     C291306  16.680   8.141  11.656  0.3864  0.1940 -0.1906
45654OCT     C191307  21.850  10.091   5.048 -0.0922  0.0478 -0.2999
45654OCT     C291308  22.059   9.987   5.363 -0.1188  0.4647  0.1724
45655OCT     C191309  19.326   6.085   1.335 -0.2757  0.0158 -0.2545
45655OCT     C291310  19.653   6.050   1.001 -0.0341 -0.0975 -0.1416
45656OCT     C191311   4.802  18.773   9.798  0.0926  0.1268  0.3900
45656OCT     C291312   4.496  19.077   9.979 -0.6115  0.1738 -0.1966
45657OCT     C191313   7.105   4.328   4.452  0.2133 -0.0300 -0.0678
45657OCT     C291314   6.988   4.711   4.254 -0.0520 -0.4668  0.0606
45658OCT     C191315   6.909  11.822  14.071 -0.0827 -0.2873 -0.0229
45658OCT     C291316   6.921  11.899  14.551  0.1175 -0.0003 -0.0215
45659OCT     C191317  22.937   0.762  20.572 -0.0140  0.0575 -0.2839
45659OCT     C291318  22.781   1.174  20.703  0.1465  0.2661  0.2445
45660OCT     C191319  13.335  18.455   3.399  0.0725 -0.1001  0.0089
45660OCT     C291320  12.909  18.300   3.549  0.2910 -0.4652  0.0730
45661OCT     C191321  22.308  12.116   1.166 -0.2514 -0.0186  0.2692
45661OCT     C291322  22.644  12.491   1.206 -0.0915 -0.1162  0.4673
45662OCT     C191323  16.479   0.136  20.050  0.0192 -0.0937 -0.2860
45662OCT     C291324  16.263   0.341  20.411  0.2673  0.3013  0.1523
45663OCT     C191325  16.717   1.915   1.953  0.0948  0.2231 -0.0941
45663OCT     C291326  17.120   2.225   1.900  0.0714 -0.2234  0.2567
45664OCT     C191327  11.678   1.269  15.831 -0.1209  0.0383 -0.1516
45664OCT     C291328  11.581   0.993  15.474  0.1011 -0.2863 -0.1120
45665OCT     C191329  11.308  11.561   5.198  0.1841 -0.1948  0.1463
45665OCT     C291330  11.722  11.397   5.111 -0.0590  0.1100  0.0163
45666OCT     C191331  14.991  20.256  11.312 -0.2145 -0.4622  0.1562
45666OCT     C291332  14.661  20.478  11.023  0.0809 -0.3132  0.2394
45667OCT     C191333  23.414   2.305  18.267  0.3116 -0.0315  0.0574
45667OCT     C291334  23.203   2.650  18.514 -0.0165  0.1236 -0.0934
45668OCT     C191335  18.122  22.987  14.196 -0.3235  0.0713  0.1504
45668OCT     C291336  18.492  23.223  14.116  0.0074 -0.0299  0.2575
45669OCT     C191337  23.680   7.303   0.219  0.0817  0.1397 -0.0560
45669OCT     C291338  23.614   6.853   0.446 -0.1692 -0.1538 -0.0305
45670OCT     C191339  18.854   0.713  15.706 -0.1503 -0.0813 -0.1884
45670OCT     C291340  18.560   0.504  15.509  0.2079  0.1739 -0.1037
45671OCT     C191341  22.827  14.543   6.042  0.1894 -0.1175 -0.1003
45671OCT     C291342  22.901  14.521   5.553 -0.0627  0.0275  0.1398
45672OCT     C191343  18.587  17.455  14.722 -0.0628 -0.4709 -0.0951
45672OCT     C291344  18.341  17.711  15.053 -0.1451 -0.0685  0.2645
45673OCT     C191345  21.162  22.933  20.150  0.0624  0.1929 -0.5357
45673OCT     C291346  20.828  23.150  19.866 -0.1383  0.0745  0.0578
45674OCT     C191347  16.161  15.250  10.332  0.1278  0.1747  0.1072
45674OCT     C291348  15.915  15.254  10.738 -0.2319 -0.1719  0.0851
45675OCT     C191349   7.872  14.340  13.809 -0.0813  0.3845  0.0974
45675OCT     C291350   8.075  13.991  13.949  0.2499  0.1992  0.0549
45676OCT     C191351  14.656  20.628   5.272 -0.0676  0.2241 -0.1549
45676OCT     C291352  14.608  20.186   5.386  0.0974  0.1013  0.2972
45677OCT     C191353   9.832  23.516   4.604  0.2061 -0.1695 -0.1160
45677OCT     C291354   9.530   0.010   4.367 -0.2368 -0.1847  0.4009
45678OCT     C191355  10.349  15.911   4.471 -0.0025 -0.1009  0.2607
45678OCT     C291356  10.314  15.809   4.010  0.2606  0.3064  0.3077
45679OCT     C191357  13.698  20.688  16.557  0.1474  0.0609  0.3379
45679OCT     C291358  13.748  20.724  17.037  0.6040 -0.0123 -0.3824
45680OCT     C191359   8.566  11.138  10.497  0.4120 -0.2308  0.3993
45680OCT     C291360   9.025  11.300  10.441 -0.1667  0.1345  0.2327
45681OCT     C191361   7.488  18.747  18.329  0.1200 -0.1053 -0.2836
45681OCT     C291362   7.590  18.300  18.371  0.0839  0.1549  0.2147
45682OCT     C191363   1.375  15.545  20.113  0.0300  0.1667 -0.0432
45682OCT     C291364   1.701  15.761  19.795 -0.0143 -0.1291 -0.0679
45683OCT     C191365   1.520  23.644  14.205 -0.2705 -0.1255 -0.1916
45683OCT     C291366   1.369  23.482  13.780 -0.2164 -0.2498 -0.0349
45684OCT     C191367   8.289   0.907   2.384  0.3291  0.0247 -0.1286
45684OCT     C291368   8.232   1.364   2.162 -0.1427 -0.0480  0.0492
45685OCT     C191369  23.278  21.789  18.397 -0.2229  0.0095 -0.0482
45685OCT     C291370  23.068  21.389  18.328  0.0512 -0.1026  0.3901
45686OCT     C191371  11.258  14.888  18.010  0.0957  0.1963  0.0076
45686OCT     C291372  11.484  14.543  18.206 -0.2408  0.0796 -0.2186
45687OCT     C191373   0.329  14.221  21.469  0.0036  0.0972 -0.3781
45687OCT     C291374   0.138  14.361  21.056  0.0634 -0.1267  0.0832
45688OCT     C191375  17.540  20.813   1.977 -0.4763 -0.2563  0.0477
45688OCT     C291376  17.114  21.113   1.934 -0.2021  0.1139  0.1417
45689OCT     C191377  19.790  21.920   3.716  0.0295 -0.1380  0.2995
45689OCT     C291378  20.025  21.832   3.342  0.3432  0.0133 -0.0800
45690OCT     C191379   3.543  23.491  17.819  0.0129 -0.2121 -0.2835
45690OCT     C291380   3.297  23.717  18.121 -0.0937  0.4332  0.2638
45691OCT     C191381  19.561  22.268  19.498 -0.2537 -0.5160 -0.2108
45691OCT     C291382  19.785  21.962  19.777 -0.1003  0.0095  0.1222
45692OCT     C191383   0.309  18.057   4.150 -0.1111 -0.0452  0.1294
45692OCT     C291384  23.636  18.342   4.243 -0.0043  0.0589  0.1663
45693OCT     C191385  19.662  21.617  23.121 -0.1397  0.0997 -0.0942
45693OCT     C291386  19.177  21.720  23.015  0.2597  0.1435  0.1449
45694OCT     C191387  14.697   5.248   6.116 -0.1893  0.0899  0.2450
45694OCT     C291388  14.343   4.936   6.323  0.0989 -0.2426  0.1348
45695OCT     C191389  16.100   3.209  22.440  0.0486  0.1394  0.0524
45695OCT     C291390  16.500   3.247  22.732 -0.2335 -0.1886  0.0797
45696OCT     C191391  11.954  13.056  14.674 -0.1305 -0.1146 -0.2637
45696OCT     C291392  11.830  13.502  14.919  0.1089  0.2044 -0.0811
45697OCT     C191393  18.790   4.039  14.920  0.0389  0.1879  0.0746
45697OCT     C291394  18.406   4.252  15.106  0.1694  0.1543 -0.1154
45698OCT     C191395   2.785  12.440   2.913 -0.0949  0.0276  0.0542
45698OCT     C291396   2.564  12.168   2.543  0.3391 -0.2378  0.0625
45699OCT     C191397  23.294   2.332  13.359  0.0910 -0.2250  0.0766
45699OCT     C291398  23.123   1.940  13.157  0.0838  0.0041  0.1087
45700OCT     C191399  18.698   9.732  10.955  0.0363 -0.1541 -0.0129
45700OCT     C291400  18.574   9.579  10.510  0.0965 -0.0893 -0.0237
45701OCT     C191401  13.851   8.298  16.837 -0.1133 -0.1303  0.0946
45701OCT     C291402  13.740   8.452  17.295  0.4700  0.0739  0.3040
45702OCT     C191403  11.943  14.863  18.451  0.0935  0.2142  0.1059
45702OCT     C291404  11.626  15.201  18.320  0.1228 -0.1540  0.0947
45703OCT     C191405  20.779   9.474  22.970 -0.3938 -0.5477 -0.1312
45703OCT     C291406  20.361   9.548  22.748  0.0816 -0.3630 -0.1519
45704OCT     C191407  22.522   6.327  20.387  0.1476  0.1979 -0.1773
45704OCT     C291408  22.890   6.606  20.440  0.4271  0.0166  0.1643
45705OCT     C191409   8.736   8.585  10.791 -0.0006  0.3908 -0.1255
45705OCT     C291410   8.330   8.354  10.579 -0.1265 -0.3926  0.0216
45706OCT     C191411   0.243  19.996  20.911  0.2285  0.0432 -0.1744
45706OCT     C291412   0.239  19.671  20.546 -0.4083  0.3144 -0.0516
45707OCT     C191413  11.260  17.035   8.894  0.1105  0.0642 -0.0839
45707OCT     C291414  11.581  17.064   8.582 -0.0267  0.0027 -0.1574
45708OCT     C191415  22.590   9.492  11.818 -0.0622 -0.3389  0.0340
45708OCT     C291416  22.563   9.674  11.373  0.3322  0.0380 -0.1893
45709OCT     C191417   2.950  11.454  16.001  0.1750 -0.4241  0.2541
45709OCT     C291418   2.819  11.925  15.940  0.2824  0.1660 -0.1984
45710OCT     C191419  18.999  23.408   2.069  0.0510  0.1998 -0.0909
45710OCT     C291420  19.149  23.519   2.439  0.4503  0.0467 -0.0227
45711OCT     C191421  22.876   5.683   9.991  0.0176 -0.4966 -0.1034
45711OCT     C291422  22.802   5.705  10.405  0.2136  0.4460 -0.4616
45712OCT     C191423   9.565   0.993  16.192  0.1815  0.0778  0.1022
45712OCT     C291424   9.841   1.314  16.311 -0.0924 -0.0334  0.1627
45713OCT     C191425   9.689   6.051   3.054  0.1754 -0.0815  0.0393
45713OCT     C291426   9.623   5.905   3.503 -0.0819 -0.0264  0.3124
45714OCT     C191427  14.364  11.134  16.002  0.3194  0.1465 -0.2498
45714OCT     C291428  14.630  11.210  16.364  0.0919  0.0495 -0.2036
45715OCT     C191429  13.832   1.565  18.780 -0.0381  0.4003 -0.1722
45715OCT     C291430  13.847   1.367  18.336  0.3586 -0.0396  0.4293
45716OCT     C191431  14.283   3.705   1.002  0.0004 -0.1581 -0.2224
45716OCT     C291432  14.548   3.317   1.167  0.0378  0.3762 -0.1194
45717OCT     C191433  13.794  18.316  10.737 -0.1333 -0.0703  0.2257
45717OCT     C291434  13.444  18.634  10.780  0.0175  0.1303  0.3668
45718OCT     C191435   9.889  19.342   4.508 -0.4510  0.2507 -0.1679
45718OCT     C291436   9.726  19.763   4.435  0.1557  0.0797  0.2201
45719OCT     C191437  10.452   3.951  18.553  0.1260 -0.1242 -0.1810
45719OCT     C291438  10.818   3.612  18.501  0.0504 -0.3301 -0.0766
45720OCT     C191439  23.350  16.394   3.320  0.0599  0.0657 -0.0615
45720OCT     C291440  22.948  16.575   3.410  0.0510  0.0773  0.1751
45721OCT     C191441   3.013  15.438   4.307 -0.1854 -0.0700  0.1292
45721OCT     C291442   3.129  15.916   4.442 -0.3025 -0.2211  0.0204
45722OCT     C191443  14.897   5.901  17.700  0.2889 -0.0064 -0.0604
45722OCT     C291444  15.135   5.671  17.335  0.2712 -0.0899  0.0288
45723OCT     C191445   9.015  21.648   6.795  0.1054 -0.0559  0.1635
45723OCT     C291446   9.038  21.423   6.393  0.2391 -0.2264 -0.4811
45724OCT     C191447  15.465   8.743  17.584  0.2250 -0.2768  0.2889
45724OCT     C291448  15.789   8.650  17.866  0.2336 -0.3088  0.1767
45725OCT     C191449  15.893   7.206  10.893 -0.0294 -0.3390 -0.1012
45725OCT     C291450  15.499   7.051  10.825  0.1324  0.0230  0.1542
45726OCT     C191451   5.831  13.387  10.600  0.2781 -0.0981 -0.0645
45726OCT     C291452   5.760  12.930  10.517  0.0537  0.1373 -0.1673
45727OCT     C191453   4.881   1.287   4.494  0.2143 -0.0459  0.0956
45727OCT     C291454   5.108   1.686   4.495  0.3641 -0.2037  0.2910
45728OCT     C191455  21.144  10.124  17.864 -0.0140 -0.2095  0.1391
45728OCT     C291456  20.903  10.430  17.977 -0.5406  0.0678 -0.1114
45729OCT     C191457  18.250   8.375   2.793 -0.1556 -0.3249 -0.1684
45729OCT     C291458  18.146   8.501   3.268  0.0718  0.1247 -0.2241
45730OCT     C191459  18.174   1.124   8.656  0.0928 -0.0940 -0.1248
45730OCT     C291460  18.091   1.258   9.119 -0.1163  0.1099  0.0817
45731OCT     C191461   1.909   1.272   3.289  0.4185 -0.1711  0.5295
45731OCT     C291462   2.208   1.180   3.693  0.2054  0.3797 -0.2048
45732OCT     C191463  17.396   4.062   5.312  0.0864  0.1931  0.1054
45732OCT     C291464  17.559   4.168   4.875 -0.0382  0.1289  0.4181
45733OCT     C191465   3.002  11.365  23.533  0.1253  0.0531  0.0423
45733OCT     C291466   2.703  11.035   0.075 -0.3818  0.3351 -0.3581
45734OCT     C191467  17.501  19.516   1.641 -0.2562 -0.1889  0.0450
45734OCT     C291468  17.806  19.874   1.526 -0.2664  0.1100  0.0173
45735OCT     C191469  20.716  13.746   3.638 -0.0450  0.0368 -0.4241
45735OCT     C291470  20.254  13.978   3.642  0.1318 -0.1196 -0.1288
45736OCT     C191471  17.160   7.835  21.389 -0.0712 -0.0726 -0.0691
45736OCT     C291472  16.821   7.925  21.690  0.2047 -0.0143  0.1691
45737OCT     C191473  21.160   9.352   9.778  0.2105 -0.1395 -0.0514
45737OCT     C291474  21.109   9.568   9.405  0.0427  0.1436 -0.0153
45738OCT     C191475   7.495  11.135  14.617  0.0086  0.4404  0.0668
45738OCT     C291476   7.347  11.600  14.730 -0.2721 -0.0814  0.1206
45739OCT     C191477  23.079  11.082  22.934 -0.0833  0.0481 -0.3588
45739OCT     C291478  22.714  11.381  22.940  0.1949 -0.1231 -0.2321
45740OCT     C191479   3.161  21.551   1.289  0.1198 -0.2065 -0.0415
45740OCT     C291480   3.102  21.310   1.653  0.0343  0.1667 -0.2392
45741OCT     C191481  17.880  16.746  16.682 -0.0541  0.3508 -0.1608
45741OCT     C291482  18.129  16.954  17.077  0.5377  0.0216 -0.2616
45742OCT     C191483   8.431   8.282   3.229 -0.0385 -0.3571 -0.1678
45742OCT     C291484   8.252   8.610   2.978 -0.0814 -0.2236  0.1639
45743OCT     C191485  11.908  14.969  22.037 -0.1593 -0.3403  0.2486
45743OCT     C291486  11.746  14.634  22.295 -0.0986 -0.4393 -0.1275
45744OCT     C191487   9.558  15.776   2.207  0.4914 -0.0934 -0.3619
45744OCT     C291488   9.862  15.614   1.939  0.0669 -0.1011  0.1182
45745OCT     C191489   4.142   8.456  14.492 -0.1568  0.2780 -0.3124
45745OCT     C291490   3.774   8.582  14.765  0.2312  0.6439 -0.4334
45746OCT     C191491  17.928  10.453  17.076  0.1279 -0.1361 -0.1998
45746OCT     C291492  17.526  10.205  16.993 -0.4261  0.2804 -0.2244
45747OCT     C191493  13.166   6.068  13.680 -0.0522  0.0883 -0.2066
45747OCT     C291494  12.674   5.985  13.702 -0.2344  0.1185  0.3627
45748OCT     C191495  11.396  17.984   1.176 -0.6499  0.0184  0.1455
45748OCT     C291496  11.800  18.106   1.011 -0.0449  0.0149  0.2055
45749OCT     C191497   6.969   5.481  18.788  0.4266 -0.0382 -0.2365
45749OCT     C291498   6.677   5.415  19.132  0.2056 -0.2235  0.1000
45750OCT     C191499  12.857  18.420  13.236 -0.0485 -0.1977  0.0033
45750OCT     C291500  12.556  18.810  13.271  0.1335  0.3237 -0.2064
45751OCT     C191501  20.091  12.421  16.217 -0.3791  0.3387  0.1793
45751OCT     C291502  20.022  12.106  16.472  0.1636  0.2596 -0.0068
45752OCT     C191503   7.382  15.015  15.404  0.1794  0.0217  0.0499
45752OCT     C291504   7.661  15.061  15.776 -0.1556 -0.2066 -0.1099
45753OCT     C191505  16.796  17.196  15.265  0.0785  0.3653 -0.2122
45753OCT     C291506  16.771  17.151  15.728  0.1141  0.1287 -0.2509
45754OCT     C191507  11.881   6.704   9.416  0.0165  0.1006  0.0597
45754OCT     C291508  11.560   6.743   9.781 -0.0489  0.2919 -0.2286
45755OCT     C191509   2.793   0.032  18.148 -0.1309 -0.3275 -0.3165
45755OCT     C291510   2.332  23.716  18.222 -0.3194 -0.0129  0.0019
45756OCT     C191511   2.054  18.127  11.354 -0.3222 -0.1464  0.0198
45756OCT     C291512   1.636  17.978  11.293  0.0872 -0.1227  0.0387
45757OCT     C191513  10.048  14.092  11.294 -0.0433 -0.0557 -0.0483
45757OCT     C291514  10.287  14.343  11.032 -0.0260 -0.2418  0.2506
45758OCT     C191515  17.918   1.132  10.587  0.1505  0.1523 -0.3183
45758OCT     C291516  17.958   1.606  10.716  0.0712 -0.0692 -0.2223
45759OCT     C191517  15.769  20.410   6.531 -0.0748  0.0879 -0.0196
45759OCT     C291518  15.399  20.445   6.293  0.0759  0.2737 -0.0495
45760OCT     C191519  20.741   0.402   8.027 -0.1631  0.0012  0.2819
45760OCT     C291520  21.108   0.593   8.272 -0.0940  0.0860 -0.2261
45761OCT     C191521  23.009  14.842   3.426 -0.0492  0.2966  0.1678
45761OCT     C291522  22.926  14.382   3.495 -0.0158  0.0443  0.1305
45762OCT     C191523  14.329  17.131  17.185  0.1517  0.4296 -0.1560
45762OCT     C291524  14.581  16.805  17.002  0.0960 -0.1938 -0.1415
45763OCT     C191525  11.886  13.283   9.075  0.2399  0.1611  0.2280
45763OCT     C291526  11.930  13.416   9.531  0.0784 -0.3650  0.3897
45764OCT     C191527  20.313   5.464   6.073 -0.1021 -0.0473  0.1629
45764OCT     C291528  20.136   5.833   5.853  0.1704  0.0188 -0.1098
45765OCT     C191529   1.831   2.007  15.861  0.0300  0.0662  0.1043
45765OCT     C291530   2.052   2.198  15.474  0.1369 -0.3047  0.1475
45766OCT     C191531  15.011  20.882   6.825 -0.0623 -0.0420 -0.1728
45766OCT     C291532  15.465  20.737   6.720 -0.2963 -0.2490  0.1354
45767OCT     C191533  10.258  11.202   6.786  0.1268  0.2745 -0.3115
45767OCT     C291534  10.029  11.242   7.150  0.1980 -0.1130  0.0404
45768OCT     C191535  14.218   2.864   8.104 -0.1195  0.1135 -0.0112
45768OCT     C291536  13.992   2.723   8.510  0.0887 -0.3966 -0.0514
45769OCT     C191537   0.112   8.118   9.637  0.1339 -0.2658 -0.3525
45769OCT     C291538  23.654   8.168   9.232 -0.0780  0.2055 -0.0211
45770OCT     C191539   0.527  16.149  23.154 -0.1284 -0.2178 -0.1288
45770OCT     C291540   0.509  15.663  23.243 -0.2132 -0.3496  0.1839
45771OCT     C191541   0.418  11.494   3.271 -0.2848  0.0130  0.0117
45771OCT     C291542   0.431  11.456   3.688 -0.0639  0.0770 -0.1313
45772OCT     C191543  10.596  23.178  13.851  0.0661  0.2829 -0.1295
45772OCT     C291544  10.758  22.732  13.924  0.4512  0.5440  0.4631
45773OCT     C191545   4.354   7.622  21.871 -0.0660 -0.1664  0.3709
45773OCT     C291546   4.335   7.278  21.469  0.0871 -0.3174 -0.0560
45774OCT     C191547  19.559  19.746   3.924  0.0814  0.0842 -0.0914
45774OCT     C291548  19.222  20.038   3.936  0.0995 -0.0040  0.1288
45775OCT     C191549   5.480   5.624  13.029  0.0666  0.1774 -0.1864
45775OCT     C291550   5.866   5.765  12.851 -0.0407  0.1810 -0.1547
45776OCT     C191551  12.641  17.677   7.548 -0.0837 -0.1764 -0.0351
45776OCT     C291552  12.740  17.266   7.382 -0.0123 -0.1292  0.0027
45777OCT     C191553   8.145  17.827   9.019 -0.2042  0.3240 -0.3361
45777OCT     C291554   8.294  17.667   9.444  0.1375  0.2180 -0.3670
45778OCT     C191555   6.603   7.544  22.428 -0.0219 -0.4269  0.1046
45778OCT     C291556   6.825   7.597  22.030 -0.0462 -0.3181 -0.0471
45779OCT     C191557  17.021  21.798  20.438 -0.3769  0.2007 -0.1169
45779OCT     C291558  17.432  22.000  20.449  0.1715  0.1707 -0.0270
45780OCT     C191559  17.611  11.839  20.163 -0.0069 -0.0886  0.2871
45780OCT     C291560  17.644  11.524  19.848  0.3451  0.0279  0.0348
45781OCT     C191561   2.713   6.196   5.398  0.2196 -0.1968  0.0737
45781OCT     C291562   2.509   6.581   5.228 -0.0092 -0.0450 -0.4044
45782OCT     C191563   3.637  19.870   9.505 -0.0615 -0.4378  0.1094
45782OCT     C291564   4.103  19.671   9.551 -0.0370 -0.2877 -0.4957
45783OCT     C191565  22.467   3.006  10.282  0.1086  0.5624 -0.2829
45783OCT     C291566  22.883   3.243  10.339 -0.2569  0.0363  0.1655
45784OCT     C191567  11.380  21.944  17.893  0.1092  0.0709 -0.0076
45784OCT     C291568  11.075  21.894  18.277  0.2486 -0.1327 -0.1785
45785OCT     C191569   3.097   9.948   6.382  0.0173 -0.0344 -0.3855
45785OCT     C291570   3.468   9.745   6.234 -0.0835  0.0206 -0.2075
45786OCT     C191571  14.092   9.624  18.957 -0.2904 -0.0256  0.0586
45786OCT     C291572  13.920  10.017  18.985  0.2322 -0.2721  0.0882
45787OCT     C191573  16.517  23.223  12.507  0.1079 -0.1369 -0.3559
45787OCT     C291574  17.011  23.231  12.566 -0.2799 -0.1133  0.0338
45788OCT     C191575  13.530   7.726  12.971 -0.2738 -0.0060  0.0467
45788OCT     C291576  13.400   8.085  12.727  0.2939  0.2825  0.0462
45789OCT     C191577   1.752   1.176  23.236  0.2867  0.1988  0.2371
45789OCT     C291578   1.876   1.040  22.817  0.1511  0.4169  0.0222
45790OCT     C191579  11.407   6.694  22.004 -0.0413 -0.0959 -0.0114
45790OCT     C291580  11.274   6.666  22.420 -0.1601 -0.1784 -0.0155
45791OCT     C191581   1.088  20.770   4.748 -0.0971  0.3122 -0.2418
45791OCT     C291582   1.531  20.852   4.642  0.0332 -0.1325  0.0264
45792OCT     C191583  23.290   6.221  15.882 -0.1361  0.3976  0.1880
45792OCT     C291584  23.491   5.990  15.603 -0.0688  0.1522  0.3449
45793OCT     C191585  10.199  10.766  17.154 -0.2036 -0.1683  0.0083
45793OCT     C291586  10.396  10.340  17.104 -0.1728 -0.0475  0.2683
45794OCT     C191587  12.332   6.980  16.573  0.1380 -0.1340  0.1394
45794OCT     C291588  12.157   7.284  16.282  0.0877  0.0087  0.0229
45795OCT     C191589  12.913  21.883   2.905 -0.3982 -0.1597 -0.0922
45795OCT     C291590  13.128  22.077   3.277  0.3846 -0.0677 -0.0702
45796OCT     C191591  15.640  23.407  21.915  0.0394  0.3393 -0.1781
45796OCT     C291592  15.371  23.344  21.503  0.0922 -0.0643  0.0416
45797OCT     C191593   3.740  21.083  20.133 -0.4596 -0.1298 -0.0092
45797OCT     C291594   3.346  20.722  20.097  0.0696  0.0808 -0.1102
45798OCT     C191595   6.900   8.710  23.243 -0.0408 -0.1708  0.3839
45798OCT     C291596   6.992   8.678  22.830 -0.0624 -0.2676  0.0768
45799OCT     C191597   2.593   0.845   3.990  0.2049 -0.3128 -0.0262
45799OCT     C291598   2.695   0.916   3.520 -0.0076  0.1856  0.0530
45800OCT     C191599  22.360   5.401  15.589  0.0673  0.0873 -0.1948
45800OCT     C291600  22.245   5.343  16.018 -0.0389  0.1818 -0.0137
45801OCT     C191601  20.978  10.465  10.631  0.0809 -0.2426  0.2502
45801OCT     C291602  21.343  10.356  10.934  0.2191 -0.0865  0.1194
45802OCT     C191603   8.084  11.527  12.649  0.1829 -0.0613 -0.2519
45802OCT     C291604   7.986  11.630  12.207  0.2123 -0.1505 -0.0313
45803OCT     C191605   9.754   9.895   8.719 -0.0740  0.0661  0.5401
45803OCT     C291606  10.108  10.086   8.887 -0.5238 -0.3014 -0.0401
45804OCT     C191607  12.273  11.826   4.425 -0.1138  0.0057 -0.1289
45804OCT     C291608  12.602  12.077   4.546  0.0200 -0.0211 -0.4362
45805OCT     C191609   9.167   6.578  10.092  0.0547 -0.5523  0.0519
45805OCT     C291610   9.516   6.521   9.781  0.0581  0.2623  0.2022
45806OCT     C191611   0.075  12.378  15.762 -0.2488 -0.3141 -0.1430
45806OCT     C291612  23.663  12.735  15.577 -0.0600 -0.3871 -0.0655
45807OCT     C191613   7.840  19.659   5.488  0.1145 -0.3057  0.1264
45807OCT     C291614   7.969  19.858   5.943 -0.2431 -0.0407 -0.1518
45808OCT     C191615   3.421   7.792  10.694 -0.2443  0.2564  0.4781
45808OCT     C291616   3.558   8.079  11.020 -0.1316  0.0656  0.3134
45809OCT     C191617   4.575   6.060   4.183 -0.2568  0.1949 -0.4924
45809OCT     C291618   4.853   5.736   4.048  0.1252 -0.2769 -0.1295
45810OCT     C191619  23.295  14.741   7.405  0.0492 -0.2211 -0.2348
45810OCT     C291620  22.845  14.929   7.329 -0.0433  0.1126 -0.0859
45811OCT     C191621   5.812  13.883   9.710  0.4170  0.1920 -0.5037
45811OCT     C291622   5.551  13.442   9.727  0.1072  0.3462  0.2055
45812OCT     C191623  21.029   7.420   5.648  0.1684  0.0764 -0.0454
45812OCT     C291624  20.783   7.013   5.693 -0.0251 -0.3020  0.0794
45813OCT     C191625   4.868   5.067  20.202 -0.0971  0.1883 -0.3419
45813OCT     C291626   5.129   5.411  20.224  0.0047  0.0583 -0.2364
45814OCT     C191627  10.031   4.080  12.917 -0.0255  0.2649  0.2255
45814OCT     C291628  10.214   3.806  12.628  0.1503 -0.2280 -0.0005
45815OCT     C191629   2.913  19.413   6.306 -0.0632 -0.1763  0.2215
45815OCT     C291630   2.795  19.006   6.391  0.0685 -0.1015  0.2583
45816OCT     C191631  17.078  19.080   6.487 -0.0658  0.1678  0.0166
45816OCT     C291632  17.413  18.896   6.727 -0.0281  0.0583  0.4160
45817OCT     C191633  17.639  14.473   8.792  0.2481  0.3136  0.0574
45817OCT     C291634  17.725  14.108   8.551  0.1582  0.1711  0.3595
45818OCT     C191635  14.535   2.678  12.019  0.1477  0.1682 -0.1823
45818OCT     C291636  14.147   2.378  11.952 -0.3652 -0.0664 -0.0392
45819OCT     C191637   7.803   6.051   9.021  0.0018 -0.1377 -0.0985
45819OCT     C291638   7.984   6.447   9.051  0.1049  0.0862  0.0223
45820OCT     C191639   7.832  10.302  13.852  0.3422 -0.2114  0.2065
45820OCT     C291640   7.368  10.345  13.984 -0.0643  0.0891  0.1246
45821OCT     C191641  13.766  14.834  20.924 -0.1822  0.1520 -0.0506
45821OCT     C291642  13.349  14.786  20.719  0.2067 -0.2097 -0.2744
45822OCT     C191643  19.112  16.749  21.359 -0.1281  0.0843 -0.0669
45822OCT     C291644  18.988  16.352  21.608  0.1986 -0.1207  0.3239
45823OCT     C191645  16.444  21.155  19.921 -0.0472  0.1888  0.0538
45823OCT     C291646  16.272  21.290  19.495  0.1279  0.0311  0.2826
45824OCT     C191647   5.148  22.659  20.094 -0.1259  0.3100 -0.1064
45824OCT     C291648   4.973  22.234  20.138  0.1413  0.1108  0.1757
45825OCT     C191649  19.029  14.848   5.587  0.0561  0.0550  0.1270
45825OCT     C291650  18.991  14.808   5.101 -0.1133 -0.1400  0.0343
45826OCT     C191651  17.223   6.146   0.322  0.0674 -0.0500 -0.0621
45826OCT     C291652  16.836   6.244   0.144 -0.0878  0.2056 -0.1613
45827OCT     C191653   0.295  15.612  19.467  0.1590  0.3873  0.0691
45827OCT     C291654   0.450  15.956  19.155 -0.1173 -0.1094 -0.0641
45828OCT     C191655   1.528   4.853  12.542 -0.0330 -0.1229  0.1514
45828OCT     C291656   1.730   4.755  12.956  0.0316 -0.0918 -0.4254
45829OCT     C191657  12.663  23.127   9.950 -0.3068  0.0817 -0.1993
45829OCT     C291658  12.423  22.714   9.738  0.0986  0.0507  0.0067
45830OCT     C191659  20.656  21.569   8.153  0.0816  0.0346 -0.0527
45830OCT     C291660  20.964  21.885   8.137 -0.0481  0.3698  0.1208
45831OCT     C191661   6.409  14.781  13.103 -0.1976  0.2580  0.1462
45831OCT     C291662   6.439  14.897  12.671  0.4423 -0.1557  0.1720
45832OCT     C191663  15.471   7.166  16.552  0.0494 -0.1872  0.2536
45832OCT     C291664  15.095   7.245  16.274 -0.0963 -0.5281 -0.1855
45833OCT     C191665  20.999   6.807  16.340 -0.0473  0.1478  0.1948
45833OCT     C291666  21.038   7.221  16.206  0.1035  0.0525  0.2078
45834OCT     C191667  22.037  20.313   2.028  0.3697 -0.1373 -0.2849
45834OCT     C291668  22.140  20.568   2.388  0.1284 -0.1348 -0.1899
45835OCT     C191669  10.086   4.602  12.869  0.0153 -0.4964  0.1319
45835OCT     C291670   9.723   4.858  12.862  0.3200 -0.2435 -0.1475
45836OCT     C191671  14.506  19.184   9.845  0.0350  0.2854 -0.1396
45836OCT     C291672  14.988  19.130   9.876 -0.3696  0.0454 -0.1210
45837OCT     C191673  21.028   7.265  17.804 -0.0954  0.2612 -0.3033
45837OCT     C291674  20.782   6.908  17.783  0.0773 -0.1998 -0.1664
45838OCT     C191675  12.068  20.631   8.211 -0.0457  0.1718  0.0849
45838OCT     C291676  12.469  20.622   8.009 -0.2341 -0.2759 -0.2055
45839OCT     C191677  22.910   8.734  21.738  0.0358 -0.5029 -0.0643
45839OCT     C291678  23.193   8.352  21.886  0.1466 -0.1878 -0.1869
45840OCT     C191679  10.086  12.457   5.257  0.1998 -0.1205 -0.2473
45840OCT     C291680   9.963  12.489   4.884 -0.2996  0.0259 -0.0916
45841OCT     C191681   7.800   6.001  17.804  0.1111 -0.4648  0.0039
45841OCT     C291682   7.558   5.596  17.822  0.0320 -0.2094  0.0588
45842OCT     C191683   2.802   0.626   2.013  0.1925 -0.0214  0.0391
45842OCT     C291684   2.963   0.621   2.425 -0.0871 -0.3500  0.0260
45843OCT     C191685  18.224  20.785  21.738  0.0968  0.0131  0.1791
45843OCT     C291686  18.449  21.089  22.086 -0.1534  0.2193  0.2145
45844OCT     C191687  19.990   1.659  17.273 -0.1755  0.4285  0.1480
45844OCT     C291688  20.052   1.845  16.879 -0.3441  0.1055  0.1274
45845OCT     C191689   0.113  23.564  21.147 -0.1563  0.0079  0.1020
45845OCT     C291690   0.400   0.144  20.965 -0.5055 -0.0488 -0.1182
45846OCT     C191691   1.794   8.544  23.587  0.0131 -0.0990  0.0336
45846OCT     C291692   1.809   8.178  23.300 -0.1323  0.1548 -0.1647
45847OCT     C191693   7.028  12.013  16.316 -0.4699 -0.0748 -0.2383
45847OCT     C291694   6.618  12.031  16.191  0.2764  0.1434  0.1219
45848OCT     C191695   1.023   2.657  20.626 -0.0488  0.0540 -0.5212
45848OCT     C291696   0.928   3.076  20.458  0.4621 -0.1120 -0.0424
45849OCT     C191697  12.009  12.845  15.163 -0.0051  0.0249 -0.2094
45849OCT     C291698  11.614  12.733  14.940 -0.0043  0.2202  0.1602
45850OCT     C191699  15.493  21.307  14.282  0.2411 -0.1749  0.3551
45850OCT     C291700  15.265  21.746  14.239  0.0367  0.0083 -0.1710
45851OCT     C191701  13.915   7.727  10.639  0.0114 -0.3496 -0.2479
45851OCT     C291702  13.970   7.399  10.228 -0.2415 -0.2694 -0.3025
45852OCT     C191703  22.735  19.450   5.006  0.2192 -0.1165  0.2062
45852OCT     C291704  23.136  19.396   5.262 -0.0093  0.0292  0.0714
45853OCT     C191705   0.095  12.401  11.615 -0.1435 -0.3175  0.3918
45853OCT     C291706   0.529  12.332  11.500  0.1188 -0.0268 -0.0786
45854OCT     C191707  11.299   6.746   1.086  0.0396  0.1226 -0.0260
45854OCT     C291708  11.185   7.153   0.819  0.0719 -0.0651  0.2192
45855OCT     C191709   4.166   5.616  22.527  0.1350  0.1883  0.0347
45855OCT     C291710   4.341   5.216  22.354 -0.1039  0.0573 -0.0398
45856OCT     C191711   0.953   1.337  13.340 -0.0270  0.0584 -0.1921
45856OCT     C291712   0.715   0.940  13.397  0.1692  0.1041  0.0592
45857OCT     C191713  22.316   4.242   1.066  0.2633  0.1451  0.2115
45857OCT     C291714  21.881   4.384   1.162  0.0325  0.0515  0.3605
45858OCT     C191715  21.444  22.032   4.652  0.0313 -0.2181  0.0341
45858OCT     C291716  21.854  21.771   4.580  0.0313  0.0640  0.2623
45859OCT     C191717   3.076  12.158  23.390  0.2054  0.4111 -0.0371
45859OCT     C291718   3.291  12.139  23.020  0.0162  0.3334  0.1334
45860OCT     C191719   4.143   8.522   0.153  0.3726  0.1610 -0.0770
45860OCT     C291720   4.130   8.394  23.427  0.1208  0.1562 -0.0773
45861OCT     C191721   8.601  19.838   6.187 -0.0205 -0.2674  0.1335
45861OCT     C291722   8.604  19.509   6.530  0.0346  0.0627  0.0149
45862OCT     C191723   3.814   3.854   0.805  0.1471  0.1395  0.0492
45862OCT     C291724   3.550   4.140   0.596  0.2601 -0.0933  0.1168
45863OCT     C191725  19.058  19.986  14.688  0.0081  0.1266  0.3690
45863OCT     C291726  19.275  20.258  14.362 -0.1799  0.3347 -0.3448
45864OCT     C191727  15.639  19.182   8.185 -0.0549 -0.0185  0.1468
45864OCT     C291728  15.515  19.589   8.017 -0.0375 -0.1930 -0.2391
45865OCT     C191729  17.293  20.804   1.398  0.2087  0.1442 -0.2376
45865OCT     C291730  17.664  20.934   1.149 -0.0246 -0.2543  0.0279
45866OCT     C191731   6.109  22.365   7.571 -0.0823 -0.1071 -0.0732
45866OCT     C291732   5.930  22.313   7.078 -0.0721  0.0292  0.2620
45867OCT     C191733  18.432  20.247   4.722  0.3331 -0.1248  0.0932
45867OCT     C291734  18.280  20.666   4.703  0.0833 -0.0653  0.1184
45868OCT     C191735   3.626  23.654  18.689  0.5027  0.1069 -0.2414
45868OCT     C291736   3.644   0.336  18.581 -0.0552 -0.1849  0.0187
45869OCT     C191737   5.702   7.082   7.171  0.0774 -0.2759  0.0370
45869OCT     C291738   5.375   6.964   6.790 -0.0493  0.4986 -0.2589
45870OCT     C191739  18.572  15.247  12.980  0.0584 -0.2023  0.1829
45870OCT     C291740  18.903  14.930  12.920  0.3585 -0.4599  0.2988
45871OCT     C191741  18.281  20.027  17.567  0.1221 -0.2832  0.3117
45871OCT     C291742  18.568  20.384  17.572 -0.3951  0.2593  0.2235
45872OCT     C191743  16.029   3.106  23.245 -0.1892  0.0534  0.0052
45872OCT     C291744  15.845   2.987  22.839  0.2182 -0.1309  0.1923
45873OCT     C191745   0.396  11.474  22.647  0.3134 -0.1511 -0.0685
45873OCT     C291746   0.385  11.932  22.652 -0.1453  0.1713 -0.1550
45874OCT     C191747  12.565   7.303  19.314  0.0257 -0.2168  0.1812
45874OCT     C291748  12.448   7.336  18.864 -0.2184  0.4545  0.3809
45875OCT     C191749  18.391  21.778   5.706  0.2363 -0.1924 -0.2327
45875OCT     C291750  18.047  21.650   5.436  0.1713  0.0077  0.0519
45876OCT     C191751   4.176  15.673  19.994 -0.1962  0.1487 -0.2735
45876OCT     C291752   3.955  15.324  19.926 -0.2452 -0.1554  0.0927
45877OCT     C191753  12.845   2.193  23.419  0.1056  0.3364  0.1647
45877OCT     C291754  12.872   2.617  23.526 -0.0036  0.0608 -0.0907
45878OCT     C191755  21.140   1.795  17.767  0.1556  0.1489 -0.3300
45878OCT     C291756  20.979   1.932  17.334  0.0867  0.1364 -0.2584
45879OCT     C191757  14.404  11.368  23.520 -0.1059  0.3732  0.3336
45879OCT     C291758  14.309  10.929  23.316 -0.0975  0.2089 -0.1639
45880OCT     C191759   5.371  15.910  20.472 -0.2419  0.1485 -0.0693
45880OCT     C291760   5.631  15.608  20.295  0.0445 -0.0109 -0.1221
45881OCT     C191761   7.182   0.841  14.870 -0.3785 -0.3609  0.3335
45881OCT     C291762   6.950   0.751  15.258 -0.1508  0.0556  0.2089
45882OCT     C191763  10.761   5.089  14.656  0.1354  0.6440  0.3316
45882OCT     C291764  10.845   4.676  14.476 -0.3080  0.0164  0.1536
45883OCT     C191765   6.238   6.328  18.149 -0.2481 -0.2395 -0.1312
45883OCT     C291766   6.232   6.130  17.736 -0.2868 -0.0401 -0.4926
45884OCT     C191767  16.750   7.529  21.415  0.1022 -0.0691  0.0275
45884OCT     C291768  16.841   7.633  20.967  0.0692 -0.0125 -0.1272
45885OCT     C191769  14.990   8.140   2.668 -0.2159 -0.0249  0.1347
45885OCT     C291770  15.066   8.595   2.625  0.2694 -0.0913  0.1536
45886OCT     C191771   6.709  12.695   4.466 -0.3286 -0.1663  0.1423
45886OCT     C291772   6.607  13.103   4.660  0.0035 -0.3224 -0.0021
45887OCT     C191773  13.418   3.265  18.052 -0.0049  0.1779  0.2489
45887OCT     C291774  13.294   3.452  17.627  0.1608 -0.0172 -0.1687
45888OCT     C191775   8.453   3.953  22.852  0.4359 -0.5165  0.0810
45888OCT     C291776   7.994   3.835  22.711 -0.0037 -0.0066 -0.2713
45889OCT     C191777  23.479  21.166  11.170  0.1573  0.1347 -0.0514
45889OCT     C291778  23.226  21.347  11.559  0.0242  0.5830 -0.2222
45890OCT     C191779  22.302  15.614   0.180  0.3199  0.0280 -0.0344
45890OCT     C291780  22.417  15.834   0.566 -0.1138 -0.0556 -0.4022
45891OCT     C191781  11.559   1.472   7.189  0.0635 -0.2835  0.2169
45891OCT     C291782  11.774   1.929   7.262  0.1296 -0.0353 -0.1538
45892OCT     C191783  12.799  21.148  15.741 -0.0747  0.0927 -0.0760
45892OCT     C291784  13.267  21.032  15.877 -0.0736 -0.2358  0.2193
45893OCT     C191785  15.685   9.601  21.518  0.0020 -0.1664  0.1307
45893OCT     C291786  16.061   9.758  21.231 -0.0571  0.4379  0.1134
45894OCT     C191787   6.057  19.973   9.748  0.0742  0.2851  0.1305
45894OCT     C291788   6.358  20.333   9.685  0.0424 -0.0501 -0.2687
45895OCT     C191789  13.824   6.066  14.508  0.2667 -0.1980  0.1936
45895OCT     C291790  13.916   5.726  14.782 -0.0029 -0.1104  0.2434
45896OCT     C191791   4.042  16.116   5.172  0.3516 -0.0466 -0.0345
45896OCT     C291792   3.723  16.423   5.067 -0.0197  0.0293  0.1431
45897OCT     C191793   0.371   6.791   7.233  0.0914 -0.0583  0.0617
45897OCT     C291794   0.330   7.302   7.244  0.0768  0.0405 -0.1672
45898OCT     C191795   2.447   4.468  16.672  0.0261 -0.5145  0.1486
45898OCT     C291796   2.468   4.422  16.240  0.0836  0.5151  0.0063
45899OCT     C191797  15.233   0.543   9.064 -0.0642  0.0980  0.1123
45899OCT     C291798  15.100   0.114   8.941 -0.2580 -0.2383 -0.2780
45900OCT     C191799   7.167   7.937   7.362  0.1220  0.2551 -0.1385
45900OCT     C291800   6.899   7.850   7.004  0.3058  0.1306  0.0267
45901OCT     C191801   9.799  16.186   1.311 -0.0761 -0.0687  0.0267
45901OCT     C291802   9.875  16.278   1.797  0.3309  0.2508  0.1463
45902OCT     C191803   3.096   4.027  14.057  0.3509 -0.0954  0.0208
45902OCT     C291804   3.553   4.045  13.826 -0.2334  0.0351 -0.2194
45903OCT     C191805  11.292  12.510  13.278 -0.1148 -0.3081  0.0391
45903OCT     C291806  11.228  12.883  13.583  0.4493 -0.1378  0.1181
45904OCT     C191807  14.362  19.649   9.553 -0.0816 -0.5380  0.2938
45904OCT     C291808  14.601  19.554   9.111 -0.0257 -0.2289  0.0325
45905OCT     C191809   5.351   7.163   9.924 -0.2316 -0.2142  0.1515
45905OCT     C291810   5.688   7.013  10.153 -0.0293 -0.2793  0.0536
45906OCT     C191811   5.804  17.217  18.736  0.2649 -0.2636  0.2858
45906OCT     C291812   5.899  16.805  18.948 -0.4482 -0.0611  0.0424
45907OCT     C191813   4.104   2.282   9.668 -0.0002 -0.0896  0.1300
45907OCT     C291814   4.093   2.743   9.440 -0.0417 -0.0589  0.0566
45908OCT     C191815  12.699  21.316  10.240 -0.1884  0.0744  0.1912
45908OCT     C291816  12.848  20.969  10.499  0.0762 -0.1930  0.2579
45909OCT     C191817   7.898  14.252  19.753  0.2791  0.2969 -0.2885
45909OCT     C291818   7.920  14.311  19.309 -0.3285  0.0315  0.2889
45910OCT     C191819  14.439   1.166  12.645 -0.0764  0.4708 -0.4322
45910OCT     C291820  14.439   0.927  13.083 -0.1975 -0.0385 -0.0307
45911OCT     C191821   2.108  13.252  16.754 -0.0334 -0.1270  0.1856
45911OCT     C291822   2.635  13.289  16.812  0.1568 -0.1821 -0.2466
45912OCT     C191823  12.699  13.773  20.173 -0.1436 -0.0462  0.5765
45912OCT     C291824  12.986  13.531  19.866 -0.2548  0.1995 -0.0962
45913OCT     C191825   0.633   3.525  20.702 -0.0397 -0.1916 -0.0691
45913OCT     C291826   0.574   3.972  20.685 -0.1452  0.1434 -0.3420
45914OCT     C191827   4.977  11.214  12.438  0.1505 -0.0601 -0.0747
45914OCT     C291828   5.198  10.880  12.660  0.1093  0.0466 -0.2571
45915OCT     C191829  14.153  10.624   9.792 -0.1181  0.1477 -0.0954
45915OCT     C291830  14.116  10.210   9.587  0.0462  0.1271 -0.5959
45916OCT     C191831   9.162   9.818  10.020  0.0291 -0.0526 -0.2630
45916OCT     C291832   9.042   9.813   9.573  0.0877  0.3325 -0.0114
45917OCT     C191833   4.233   1.329  10.893  0.3712  0.0918  0.5215
45917OCT     C291834   4.140   1.743  10.954 -0.3008 -0.0454  0.0814
45918OCT     C191835  10.364  13.965  15.068 -0.3473 -0.1324 -0.0296
45918OCT     C291836  10.600  13.697  14.746 -0.1016 -0.2243 -0.0124
45919OCT     C191837  21.557   8.942   2.059 -0.1732  0.1380 -0.2614
45919OCT     C291838  21.985   8.786   2.196 -0.0431  0.2758  0.0159
45920OCT     C191839  15.802  17.216  20.576  0.0828 -0.4420  0.3211
45920OCT     C291840  15.565  17.326  20.941 -0.3420 -0.1763  0.2565
45921OCT     C191841  19.796  21.701   6.819  0.0474 -0.0428 -0.3061
45921OCT     C291842  19.531  21.353   6.768 -0.2302 -0.7039 -0.0956
45922OCT     C191843  13.930  14.478   3.912  0.0403  0.1284  0.2466
45922OCT     C291844  13.787  14.207   4.331 -0.0284 -0.3768 -0.0006
45923OCT     C191845  17.218  10.590   8.422  0.1874  0.4521 -0.1795
45923OCT     C291846  17.125  10.114   8.315  0.0037 -0.2282  0.3053
45924OCT     C191847  10.021   9.950  12.456  0.3768 -0.4252 -0.0779
45924OCT     C291848   9.895  10.216  12.828  0.5070 -0.4240 -0.1041
45925OCT     C191849  15.019   7.129   5.241 -0.3034  0.2516 -0.1059
45925OCT     C291850  14.733   7.473   5.437  0.0844  0.3364 -0.1285
45926OCT     C191851  16.449   6.043  14.468 -0.0257  0.4292 -0.1549
45926OCT     C291852  16.634   6.093  14.014 -0.1246  0.1081 -0.1830
45927OCT     C191853  12.353  22.627   1.975  0.0305  0.0883 -0.1350
45927OCT     C291854  12.210  22.199   2.050  0.2436 -0.2207 -0.2722
45928OCT     C191855   3.015  21.444   0.280  0.2111 -0.0511  0.0883
45928OCT     C291856   3.290  21.054   0.261 -0.1889 -0.0917 -0.4072
45929OCT     C191857   7.745   5.716   2.577  0.1598 -0.1345  0.1186
45929OCT     C291858   7.330   5.850   2.351 -0.2646  0.0065  0.2205
45930OCT     C191859  17.451  18.319  19.266  0.1115  0.3323 -0.1092
45930OCT     C291860  17.918  18.312  19.186  0.0220  0.5339 -0.0540
45931OCT     C191861  22.051  10.467   5.353 -0.0919 -0.1785 -0.4263
45931OCT     C291862  22.473  10.458   5.458  0.1583 -0.0463  0.1730
45932OCT     C191863  23.329  15.371   5.670  0.3263  0.1357  0.0480
45932OCT     C291864  23.475  14.980   5.494 -0.2550  0.0266 -0.0486
45933OCT     C191865  22.309  21.465   7.110 -0.3321 -0.1060 -0.2184
45933OCT     C291866  22.050  21.072   7.087 -0.0142 -0.1236  0.3131
45934OCT     C191867  12.206  11.833   6.374 -0.0792 -0.2242  0.1354
45934OCT     C291868  12.625  11.604   6.520 -0.4614 -0.0639  0.2370
45935OCT     C191869   0.301   3.016   6.319 -0.1523  0.0919 -0.0383
45935OCT     C291870   0.635   2.683   6.235  0.1505 -0.1283  0.1075
45936OCT     C191871  17.662  15.207   4.490 -0.1218 -0.1649  0.1250
45936OCT     C291872  17.707  14.910   4.135 -0.1850 -0.1133 -0.3192
45937OCT     C191873  20.019  22.729  12.236  0.0724 -0.1076  0.0385
45937OCT     C291874  19.636  22.465  12.394 -0.2901 -0.1917  0.3946
45938OCT     C191875  15.348  17.355  21.986  0.0048 -0.2188  0.0415
45938OCT     C291876  15.759  17.477  21.932 -0.0604  0.2208 -0.1494
45939OCT     C191877   8.488   3.082  10.972 -0.0660  0.3892  0.1692
45939OCT     C291878   8.359   3.165  10.522 -0.3692 -0.3122 -0.0664
45940OCT     C191879  22.966  16.659   0.643  0.0714 -0.1876 -0.0466
45940OCT     C291880  23.374  16.414   0.687 -0.0021 -0.0433 -0.0106
45941OCT     C191881  20.629  16.878  22.108 -0.1540 -0.0962 -0.1915
45941OCT     C291882  20.497  16.838  22.588 -0.3939 -0.1980  0.0333
45942OCT     C191883   4.873  22.041   1.231 -0.0363  0.0703  0.1353
45942OCT     C291884   4.767  21.813   1.652 -0.2339 -0.0764  0.3326
45943OCT     C191885  23.092   0.727  17.504  0.0772 -0.1909 -0.1832
45943OCT     C291886  22.758   1.021  17.395  0.2303  0.1641 -0.0126
45944OCT     C191887  19.835  17.200  15.341  0.0347  0.0711 -0.1440
45944OCT     C291888  20.029  16.846  15.124  0.3830  0.0343  0.0676
45945OCT     C191889  13.927  18.883   9.585  0.2149  0.1335  0.1361
45945OCT     C291890  14.027  19.334   9.734 -0.2966  0.1033 -0.3698
45946OCT     C191891  18.664   5.716   8.637 -0.0721 -0.0303 -0.1103
45946OCT     C291892  19.106   5.552   8.746  0.1681 -0.0658 -0.1462
45947OCT     C191893   0.231  13.450  21.287 -0.5153  0.1838  0.4119
45947OCT     C291894   0.073  13.699  21.675 -0.4161 -0.1404  0.1656
45948OCT     C191895   8.453  10.351   4.555  0.2272 -0.0345 -0.0099
45948OCT     C291896   8.354  10.280   5.038 -0.1484 -0.2310  0.1673
45949OCT     C191897   4.056   2.349  22.970  0.0564  0.0758 -0.3662
45949OCT     C291898   4.136   2.453  22.497  0.1482  0.1566 -0.1805
45950OCT     C191899   8.151  17.642  14.574 -0.1568 -0.0973 -0.2211
45950OCT     C291900   8.562  17.826  14.702  0.0288 -0.0840  0.1410
45951OCT     C191901   4.025   8.477   2.760 -0.0813 -0.2158  0.0263
45951OCT     C291902   4.432   8.700   2.890 -0.3473  0.1291 -0.2066
45952OCT     C191903  14.500   4.172   7.496 -0.0338 -0.0887  0.0035
45952OCT     C291904  14.947   4.157   7.693  0.3482 -0.1817 -0.2671
45953OCT     C191905  17.834  13.041   4.623  0.2251 -0.1670  0.0185
45953OCT     C291906  18.190  13.320   4.555  0.0788 -0.2359 -0.0264
45954OCT     C191907  13.203   4.594  20.144 -0.2526 -0.2542  0.2328
45954OCT     C291908  13.419   4.653  20.557 -0.0426  0.2942 -0.1021
45955OCT     C191909   3.633  18.584   0.337 -0.3000  0.2272 -0.4414
45955OCT     C291910   3.773  18.623  23.629  0.5172 -0.3671 -0.2716
45956OCT     C191911   3.969   7.844   2.799  0.0721 -0.1330 -0.0415
45956OCT     C291912   4.235   7.582   3.028 -0.0283  0.0038 -0.0918
45957OCT     C191913  14.105   4.009   1.490  0.1370  0.2831  0.2293
45957OCT     C291914  14.360   4.202   1.106  0.1411  0.1259  0.0751
45958OCT     C191915   5.917  12.221  15.846 -0.2094 -0.2591 -0.1588
45958OCT     C291916   6.117  11.912  16.144  0.3930  0.2592  0.3012
45959OCT     C191917  13.925   4.573   3.633  0.3122 -0.0677  0.0874
45959OCT     C291918  14.132   4.715   3.217  0.1452 -0.1461 -0.0171
45960OCT     C191919  21.982   8.690   3.292 -0.1094  0.0614  0.1315
45960OCT     C291920  22.292   8.399   3.510 -0.0284 -0.0356  0.0015
45961OCT     C191921   9.905  17.415  14.734  0.4542 -0.1637  0.0397
45961OCT     C291922  10.229  17.747  14.654  0.0807 -0.1123 -0.1599
45962OCT     C191923  13.401  15.203  10.928  0.1349  0.0923  0.0682
45962OCT     C291924  13.857  15.210  10.921  0.0394 -0.2199  0.0648
45963OCT     C191925  18.269  12.128   2.438  0.1286  0.0892  0.1324
45963OCT     C291926  18.159  11.971   2.861 -0.0308 -0.2271  0.0058
45964OCT     C191927   1.307  14.819  20.881  0.1783  0.3030  0.1597
45964OCT     C291928   1.664  14.470  20.792 -0.1241  0.0673 -0.5334
45965OCT     C191929  22.626  17.762   4.157 -0.1822  0.0704 -0.1099
45965OCT     C291930  22.419  17.745   3.733  0.1807 -0.3549 -0.2584
45966OCT     C191931  13.533  17.388  11.966 -0.2093 -0.0316  0.1188
45966OCT     C291932  13.932  17.503  11.771 -0.2194 -0.1194  0.0635
45967OCT     C191933   0.938  15.597   7.404  0.2819  0.1443  0.0564
45967OCT     C291934   0.636  15.453   7.785  0.2528 -0.0325 -0.2174
45968OCT     C191935   0.562  13.066  10.916  0.2116 -0.0198  0.1198
45968OCT     C291936   0.521  12.808  10.553 -0.3374 -0.3089  0.2059
45969OCT     C191937  15.827  11.497  12.731 -0.3364 -0.0070 -0.1837
45969OCT     C291938  15.674  11.148  12.964 -0.1531  0.1715 -0.1231
45970OCT     C191939  23.089  15.084  11.388 -0.3427  0.2851  0.0538
45970OCT     C291940  23.357  15.032  11.726 -0.1189  0.3536 -0.0061
45971OCT     C191941   9.735   0.847  22.617 -0.0760  0.2898 -0.0969
45971OCT     C291942   9.775   1.028  23.055 -0.1562 -0.0962 -0.1452
45972OCT     C191943   4.209  14.321  23.188 -0.1546  0.2284  0.2025
45972OCT     C291944   4.184  14.289  23.653 -0.0232  0.0934 -0.0621
45973OCT     C191945  16.161  13.123  19.166 -0.1741 -0.1496  0.0169
45973OCT     C291946  16.152  13.516  18.855 -0.0238  0.2390 -0.0644
45974OCT     C191947   0.056   3.851   6.407 -0.0372  0.2139 -0.4776
45974OCT     C291948  23.395   4.038   6.229 -0.0573  0.0500 -0.3337
45975OCT     C191949   5.132  19.807  12.497  0.1106  0.0654  0.0373
45975OCT     C291950   4.710  19.866  12.275  0.0199  0.1161  0.3079
45976OCT     C191951  22.332  17.101  19.631  0.0053 -0.0640 -0.2474
45976OCT     C291952  22.516  16.927  20.014 -0.2957  0.3533 -0.1008
45977OCT     C191953   2.560  23.277  18.337  0.0390 -0.1955  0.3801
45977OCT     C291954   2.355  22.899  18.408 -0.2771 -0.1414 -0.0633
45978OCT     C191955   6.174   9.599  18.780  0.0056 -0.2008  0.0039
45978OCT     C291956   5.933   9.592  19.166  0.2665  0.1832  0.2656
45979OCT     C191957  22.599   0.898   4.062 -0.0670  0.0834  0.1454
45979OCT     C291958  22.925   0.559   3.974  0.3242 -0.0849  0.3790
45980OCT     C191959   5.301  16.346  11.931 -0.0929  0.1933  0.0929
45980OCT     C291960   5.325  16.797  11.999 -0.0051  0.1950 -0.1848
45981OCT     C191961   6.589  20.513  12.951 -0.0973  0.1753 -0.1961
45981OCT     C291962   6.465  20.093  13.100  0.1120 -0.0591  0.1741
45982OCT     C191963   0.884  14.926  17.690 -0.0792  0.0181 -0.1057
45982OCT     C291964   0.777  14.681  18.028  0.0144  0.0068 -0.2247
45983OCT     C191965   1.563  19.702  10.720 -0.0315 -0.2277 -0.2832
45983OCT     C291966   1.500  19.601  10.307 -0.3463  0.0777 -0.0607
45984OCT     C191967   8.262   3.327   1.336 -0.5741 -0.3636 -0.1093
45984OCT     C291968   8.410   3.153   0.935 -0.3725  0.2345 -0.1673
45985OCT     C191969   2.049   9.088   7.973  0.1838 -0.1478 -0.0266
45985OCT     C291970   2.415   8.921   8.263 -0.0062  0.1111 -0.0110
45986OCT     C191971  14.738  20.926  10.116 -0.2216  0.5154  0.1945
45986OCT     C291972  14.718  20.866  10.618  0.0591  0.3904  0.1073
45987OCT     C191973  11.789  18.089  20.334  0.2656  0.0435 -0.0380
45987OCT     C291974  12.033  18.408  20.579  0.3297 -0.1926  0.0046
45988OCT     C191975   9.415   8.153  12.893  0.1703  0.3708 -0.0608
45988OCT     C291976   8.987   7.972  12.704 -0.0166 -0.0694  0.5737
45989OCT     C191977   7.446   9.616  22.932  0.4851  0.4480  0.1456
45989OCT     C291978   7.127   9.871  22.993 -0.0297 -0.2006 -0.0053
45990OCT     C191979   5.752  20.468  13.469 -0.0804 -0.3658 -0.1185
45990OCT     C291980   5.423  20.510  13.813  0.0630 -0.1262 -0.1287
45991OCT     C191981   9.138  19.796  18.687 -0.0015 -0.0785 -0.1581
45991OCT     C291982   9.398  19.523  18.400 -0.0483  0.0748 -0.1517
45992OCT     C191983  12.126  13.100  23.310  0.0538 -0.0395 -0.0176
45992OCT     C291984  11.980  13.351  22.956  0.1072  0.2915  0.1640
45993OCT     C191985   6.911   1.755  18.331  0.1373 -0.0689  0.1069
45993OCT     C291986   6.541   1.671  18.111 -0.2631  0.1480 -0.4165
45994OCT     C191987  22.578   3.493  17.073 -0.1171 -0.0352 -0.0211
45994OCT     C291988  22.974   3.383  17.268  0.4634  0.1054 -0.0068
45995OCT     C191989  16.552   9.696   8.883 -0.0704  0.3423 -0.0781
45995OCT     C291990  16.917   9.605   8.632 -0.0793 -0.1036  0.0439
45996OCT     C191991   7.326  21.082   7.092 -0.0800 -0.1021 -0.0835
45996OCT     C291992   7.792  21.070   7.013  0.2178 -0.1687  0.1530
45997OCT     C191993   6.104  21.506  15.921 -0.1485  0.1781  0.1778
45997OCT     C291994   6.265  21.304  16.319 -0.2254 -0.1580 -0.0485
45998OCT     C191995  19.969  13.828   7.142  0.1111 -0.0129  0.1732
45998OCT     C291996  19.969  13.394   7.324 -0.1334  0.0221 -0.0604
45999OCT     C191997   0.091   4.546  12.528  0.2744 -0.3333  0.0844
45999OCT     C291998   0.208   4.239  12.872  0.2183  0.0823 -0.2061
46000OCT     C191999   3.532  11.542   9.248 -0.1476 -0.3247 -0.2022
46000OCT     C292000   3.178  11.184   9.327 -0.1232  0.1127  0.3992
46001OCT     C192001   6.175  14.307   5.980  0.0629 -0.1645 -0.2717
46001OCT     C292002   6.259  14.337   6.461 -0.2740  0.0868  0.0271
46002OCT     C192003   4.632  21.352  13.687  0.2260  0.1229 -0.1821
46002OCT     C292004   4.947  21.090  13.902  0.0736 -0.0443  0.2056
46003OCT     C192005  23.113  18.772   0.807  0.2793  0.1150 -0.1449
46003OCT     C292006  22.944  18.443   1.112 -0.1925  0.3163  0.5008
46004OCT     C192007  23.194   5.609  16.876 -0.5415 -0.0054 -0.0251
46004OCT     C292008  23.243   5.288  17.228 -0.4151 -0.1538  0.1212
46005OCT     C192009  14.799   7.444   6.253  0.0915 -0.1066  0.0563
46005OCT     C292010  15.238   7.285   6.267  0.0595 -0.1635 -0.2058
46006OCT     C192011  14.411   0.280  18.015  0.3137  0.2675 -0.1610
46006OCT     C292012  13.917   0.384  17.876 -0.0443 -0.3366 -0.1284
46007OCT     C192013  16.311  23.152  17.940  0.4011 -0.3510  0.0455
46007OCT     C292014  16.630  23.407  18.136 -0.0675  0.0686  0.0259
46008OCT     C192015  12.302  13.374  14.609 -0.1636  0.1181 -0.0874
46008OCT     C292016  12.348  13.761  14.341 -0.0470  0.1617 -0.1606
46009OCT     C192017  13.255  10.875   0.318  0.4268 -0.2763 -0.1745
46009OCT     C292018  13.677  10.973   0.148  0.0160 -0.0648 -0.2125
46010OCT     C192019   8.715  18.715   4.976  0.0747 -0.0176  0.2549
46010OCT     C292020   8.963  18.770   5.347 -0.0453 -0.2426  0.0899
46011OCT     C192021   3.084   5.266  20.135  0.0642 -0.3746  0.0615
46011OCT     C292022   3.496   5.141  20.273 -0.0315 -0.1864 -0.1931
46012OCT     C192023  15.868  22.422  17.647  0.0823 -0.4523  0.0279
46012OCT     C292024  15.943  22.908  17.751  0.0281 -0.1510 -0.0035
46013OCT     C192025   4.231   1.874  16.126  0.1237 -0.0716  0.1878
46013OCT     C292026   4.267   1.641  16.535 -0.1034 -0.1331  0.0076
46014OCT     C192027  14.601   3.548  10.208 -0.1332  0.1176  0.0537
46014OCT     C292028  14.290   3.368   9.936  0.2853 -0.0629 -0.1218
46015OCT     C192029  10.622   0.921   8.981  0.0597 -0.4376 -0.0280
46015OCT     C292030  10.654   1.248   8.666 -0.4713  0.3979  0.0370
46016OCT     C192031  13.489   1.751   8.793  0.0655 -0.2901 -0.0722
46016OCT     C292032  13.539   1.683   9.274 -0.3153 -0.0377 -0.0432
46017OCT     C192033   5.528   5.470  21.043  0.1950  0.0975 -0.3063
46017OCT     C292034   5.291   5.885  20.941 -0.1633  0.2334  0.1213
46018OCT     C192035  13.802  11.693  22.231 -0.1885 -0.0915 -0.1225
46018OCT     C292036  13.513  11.808  22.574  0.0503 -0.1484 -0.0431
46019OCT     C192037   5.689  20.969  13.287 -0.2472  0.2464  0.0277
46019OCT     C292038   6.078  20.827  13.351  0.1393 -0.1287 -0.1461
46020OCT     C192039   5.434  10.466  21.723  0.2523 -0.0802  0.2700
46020OCT     C292040   5.575  10.032  21.893  0.0066  0.0536  0.0594
46021OCT     C192041  13.092   8.513   7.972 -0.0551 -0.1193  0.1170
46021OCT     C292042  13.238   8.694   8.380  0.1558  0.3039 -0.1533
46022OCT     C192043  13.702   6.239  10.755 -0.1566  0.1722  0.0458
46022OCT     C292044  13.830   6.611  11.007 -0.0831 -0.0692 -0.4986
46023OCT     C192045   1.752  14.116  17.244 -0.0249  0.2081  0.0956
46023OCT     C292046   1.287  14.144  17.330  0.2181 -0.0785 -0.1683
46024OCT     C192047  16.349  15.219  19.692  0.3263  0.2675  0.0114
46024OCT     C292048  16.379  14.958  20.056 -0.0292 -0.1843 -0.0509
46025OCT     C192049  14.672   3.462  11.380 -0.1075 -0.0087  0.3950
46025OCT     C292050  14.265   3.378  11.519 -0.3439  0.1540 -0.1292
46026OCT     C192051   6.982  21.479  19.167 -0.0740  0.1597  0.1655
46026OCT     C292052   6.577  21.730  19.275  0.0638 -0.2385  0.1722
46027OCT     C192053  20.832  15.759  12.435  0.3571 -0.2002  0.1249
46027OCT     C292054  20.518  15.709  12.098 -0.6893 -0.1720  0.0943
46028OCT     C192055   3.108  19.901   1.258  0.0805  0.2354 -0.1413
46028OCT     C292056   3.353  19.476   1.273  0.0017  0.4678 -0.1957
46029OCT     C192057  18.466   3.053  21.084  0.2843 -0.1782 -0.1171
46029OCT     C292058  18.454   3.288  20.681 -0.0031 -0.4475  0.4274
46030OCT     C192059  12.229  19.639  22.306 -0.1930 -0.2074  0.0864
46030OCT     C292060  12.450  19.352  22.636 -0.0215 -0.2481 -0.0788
46031OCT     C192061   2.175  23.012   3.053 -0.0195 -0.2823 -0.1689
46031OCT     C292062   2.420  22.691   2.780 -0.3384 -0.0298 -0.1390
46032OCT     C192063  12.389   5.117  12.761  0.4193  0.1807 -0.0433
46032OCT     C292064  12.101   4.761  12.693  0.2022 -0.1688  0.0835
46033OCT     C192065   9.199  13.962  20.341  0.5511 -0.1831 -0.0609
46033OCT     C292066   9.104  14.169  20.790 -0.4044  0.2133 -0.0684
46034OCT     C192067   6.892  18.179  14.197 -0.4474 -0.1676 -0.0843
46034OCT     C292068   7.239  18.234  14.463 -0.4925 -0.0415 -0.3265
46035OCT     C192069   5.290  19.701   0.172  0.1448 -0.0581 -0.0690
46035OCT     C292070   4.934  19.965   0.283  0.3974  0.2395 -0.0688
46036OCT     C192071  13.789  11.259   3.779 -0.1424 -0.3326  0.2787
46036OCT     C292072  14.031  11.581   3.542  0.3604 -0.3819 -0.0973
46037OCT     C192073  19.650   0.995  13.893  0.1203  0.4954  0.2368
46037OCT     C292074  19.569   1.399  13.753  0.0881  0.0546 -0.0486
46038OCT     C192075  15.563  23.102  17.017 -0.1181 -0.2099  0.1096
46038OCT     C292076  15.303  23.268  16.694 -0.4764 -0.0025  0.0916
46039OCT     C192077   7.696   3.614  11.236 -0.4276 -0.0491 -0.0972
46039OCT     C292078   7.334   3.337  11.401  0.1443 -0.0441  0.3224
46040OCT     C192079  13.741   7.275  21.226 -0.3307  0.2163 -0.0408
46040OCT     C292080  13.853   6.776  21.230  0.0243 -0.1719  0.0486
46041OCT     C192081   5.795   4.306   1.824 -0.0410  0.0352  0.0585
46041OCT     C292082   6.089   3.999   2.044 -0.3175  0.3401 -0.1881
46042OCT     C192083  14.386  22.688   5.631 -0.4285  0.2230  0.0626
46042OCT     C292084  14.651  22.939   5.279 -0.1942  0.1131 -0.5425
46043OCT     C192085   8.145  11.255  14.505  0.2483  0.1728  0.0204
46043OCT     C292086   7.912  11.691  14.457 -0.1371 -0.0142 -0.4661
46044OCT     C192087  22.811  21.266  16.415 -0.1711  0.5236 -0.1186
46044OCT     C292088  22.605  20.926  16.082  0.3136 -0.1649  0.0035
46045OCT     C192089  10.185  17.953   7.143  0.2465  0.3002  0.1156
46045OCT     C292090   9.788  17.624   7.159 -0.2553 -0.2937 -0.2924
46046OCT     C192091   4.293  16.778   9.664 -0.2347 -0.2867  0.0427
46046OCT     C292092   4.130  16.359   9.885 -0.4668  0.3372  0.0923
46047OCT     C192093  11.279  17.796   5.266 -0.1916  0.1026 -0.1375
46047OCT     C292094  11.514  18.057   4.919 -0.2544  0.3625  0.0358
46048OCT     C192095  21.504   0.185  20.044 -0.0455 -0.3196 -0.1070
46048OCT     C292096  21.560   0.261  20.523 -0.1568 -0.3531  0.0045
46049OCT     C192097  11.116  19.301  16.701  0.0278  0.0619 -0.0007
46049OCT     C292098  11.023  19.644  16.990  0.0809  0.1280  0.1256
46050OCT     C192099  12.104  22.056  22.468  0.0031 -0.0493  0.2430
46050OCT     C292100  11.708  21.894  22.275 -0.0469  0.1601 -0.1546
46051OCT     C192101   1.295  19.478   5.267 -0.2425  0.0478  0.2497
46051OCT     C292102   1.387  19.216   4.872 -0.3306 -0.1726 -0.2291
46052OCT     C192103  16.528   8.820  22.135  0.1687 -0.3694  0.2524
46052OCT     C292104  16.321   8.525  22.500  0.0982  0.3158 -0.0849
46053OCT     C192105  15.285  10.821  10.357 -0.0287  0.4274 -0.0296
46053OCT     C292106  15.463  11.161  10.565  0.0812  0.0690 -0.0574
46054OCT     C192107   5.367  21.559   9.201 -0.0689 -0.0256  0.4533
46054OCT     C292108   5.500  21.183   9.435  0.0161  0.0573  0.1431
46055OCT     C192109  21.038  16.327  11.691 -0.1608  0.3491  0.0976
46055OCT     C292110  21.114  15.995  11.388 -0.0195 -0.1108  0.1137
46056OCT     C192111  23.519  21.256  15.549 -0.2697 -0.1953  0.3512
46056OCT     C292112   0.235  21.416  15.599  0.1987  0.0685 -0.0942
46057OCT     C192113   5.460   6.227  12.972 -0.1559  0.0633  0.1333
46057OCT     C292114   5.131   5.891  12.936  0.2895 -0.4078 -0.2794
46058OCT     C192115  14.668   0.307   8.915  0.1280 -0.2389  0.1230
46058OCT     C292116  14.286   0.048   8.906 -0.1396  0.0515  0.4048
46059OCT     C192117   3.682   8.492   2.423  0.1747 -0.3295 -0.2857
46059OCT     C292118   3.522   8.712   2.825 -0.0011  0.1212  0.1627
46060OCT     C192119  21.746  18.949  19.970 -0.0068 -0.0200  0.0465
46060OCT     C292120  21.848  18.690  20.297  0.2082  0.1093 -0.2663
46061OCT     C192121  11.513  10.107  11.082  0.4831 -0.1950 -0.0706
46061OCT     C292122  11.966  10.043  11.098  0.2475 -0.0588  0.2838
46062OCT     C192123   2.087  20.866  15.110  0.2250 -0.2264  0.1970
46062OCT     C292124   2.249  21.220  14.844  0.1929  0.0969  0.2243
46063OCT     C192125   3.172   1.886   7.420  0.2602 -0.2659  0.2593
46063OCT     C292126   3.486   1.624   7.534  0.0801 -0.1457  0.2111
46064OCT     C192127   9.111   8.319  21.755 -0.3164  0.0518  0.1407
46064OCT     C292128   8.696   8.214  21.611 -0.1174 -0.0988 -0.0490
46065OCT     C192129   6.083   6.680  10.054 -0.3620  0.0938  0.0905
46065OCT     C292130   6.487   6.418   9.992 -0.2203  0.3075 -0.1160
46066OCT     C192131   8.843  16.110  13.035 -0.0647  0.2713  0.1576
46066OCT     C292132   8.728  16.100  12.594 -0.3431 -0.0449 -0.2010
46067OCT     C192133  16.102   6.760  17.251  0.0504 -0.4726  0.1268
46067OCT     C292134  16.527   6.899  17.207 -0.2091 -0.0871  0.3932
46068OCT     C192135   1.767  18.012   0.002  0.3215 -0.1289 -0.2075
46068OCT     C292136   2.210  17.872  23.631 -0.3645 -0.1826  0.2566
46069OCT     C192137  10.876  19.645   1.191 -0.0013  0.1543 -0.2903
46069OCT     C292138  10.509  19.610   1.553  0.0715  0.2469  0.1176
46070OCT     C192139  11.752   0.860  12.046 -0.2238 -0.1131  0.0614
46070OCT     C292140  12.147   1.079  11.895  0.0363 -0.0844 -0.0926
46071OCT     C192141  18.860  14.229  21.749 -0.2237 -0.3384 -0.3539
46071OCT     C292142  19.006  13.901  21.441 -0.1512 -0.1804  0.2725
46072OCT     C192143  12.515  11.741   5.434  0.0285  0.2276 -0.0471
46072OCT     C292144  12.058  11.630   5.353 -0.0360  0.2330  0.3675
46073OCT     C192145   2.346  17.031  19.923  0.1158 -0.0557 -0.1412
46073OCT     C292146   1.885  17.071  19.919  0.1283  0.2010 -0.4086
46074OCT     C192147   9.883  18.095  22.678  0.0667 -0.1055  0.3849
46074OCT     C292148  10.017  18.582  22.564 -0.0178 -0.0676  0.2895
46075OCT     C192149  16.633  19.276  23.203 -0.2849 -0.1657 -0.0383
46075OCT     C292150  16.886  19.309  23.615 -0.0655 -0.0131 -0.2758
46076OCT     C192151   4.568  18.644   1.671  0.1577  0.0735  0.3511
46076OCT     C292152   4.440  18.270   1.399 -0.1252  0.4833 -0.2278
46077OCT     C192153  11.556  16.528  16.498  0.4595  0.4120  0.1196
46077OCT     C292154  11.675  16.642  16.072 -0.2140  0.0544  0.0091
46078OCT     C192155  15.017  14.565   1.326 -0.0620 -0.3032  0.4718
46078OCT     C292156  15.404  14.490   1.615 -0.2209  0.1186  0.0354
46079OCT     C192157   3.110  10.806   9.808  0.0008 -0.1499 -0.0719
46079OCT     C292158   3.227  11.165  10.055 -0.2071  0.2553  0.2920
46080OCT     C192159  18.393  11.379   1.483  0.0327  0.1368  0.2548
46080OCT     C292160  18.538  11.110   1.125 -0.1961  0.2395  0.0911
46081OCT     C192161  11.553   9.183  23.164 -0.0781  0.2579  0.0368
46081OCT     C292162  11.420   9.373  23.580 -0.4752  0.0091  0.2838
46082OCT     C192163   2.877   3.789   8.265 -0.3101  0.3034 -0.1269
46082OCT     C292164   2.744   4.216   8.151 -0.0499 -0.0714  0.1366
46083OCT     C192165   8.046  17.770   0.618  0.1393  0.0101 -0.2800
46083OCT     C292166   7.856  17.996   0.925  0.2013  0.2107 -0.1263
46084OCT     C192167  14.253   5.271   2.940 -0.0159  0.2161 -0.0579
46084OCT     C292168  14.089   4.887   2.703  0.0393  0.3322  0.3362
46085OCT     C192169  16.502  11.018  13.266  0.1109 -0.3507  0.1813
46085OCT     C292170  16.960  10.960  13.138  0.0050 -0.0645  0.1669
46086OCT     C192171  15.873  10.617   2.638  0.0194 -0.0064 -0.1822
46086OCT     C292172  15.449  10.871   2.702 -0.3818  0.0360  0.1927
46087OCT     C192173   8.414  19.441  10.346 -0.0271 -0.6428  0.3074
46087OCT     C292174   7.955  19.479  10.394 -0.0174  0.2831 -0.0117
46088OCT     C192175   1.938   4.302   9.656 -0.0053 -0.1581 -0.2667
46088OCT     C292176   1.750   4.733   9.473  0.2474  0.0811 -0.0554
46089OCT     C192177  22.158  17.579   7.611 -0.2550 -0.1908  0.0030
46089OCT     C292178  22.060  18.009   7.602  0.0569 -0.4816 -0.0194
46090OCT     C192179   5.326   7.383   8.545 -0.2730 -0.1443 -0.3591
46090OCT     C292180   5.454   7.415   8.159  0.1760  0.1791  0.0028
46091OCT     C192181  23.652  16.840   3.951 -0.1145 -0.1166  0.1149
46091OCT     C292182  23.492  17.268   3.945 -0.1338 -0.0692 -0.1272
46092OCT     C192183  20.126   2.841   1.478 -0.0841 -0.1316 -0.1707
46092OCT     C292184  19.791   2.630   1.297  0.0989 -0.0525 -0.4861
46093OCT     C192185  23.032  12.571   6.254 -0.2292  0.2728 -0.3572
46093OCT     C292186  23.281  12.943   6.008 -0.2048  0.0890 -0.2386
46094OCT     C192187  21.177  20.477   2.625  0.0625  0.0049  0.0081
46094OCT     C292188  21.084  20.071   2.780  0.5037 -0.2859 -0.0610
46095OCT     C192189  21.787   7.173   3.221 -0.0856 -0.1198  0.1905
46095OCT     C292190  21.373   7.148   3.411  0.0347  0.1114 -0.2980
46096OCT     C192191  19.035   5.840  20.039 -0.0369 -0.1034 -0.2289
46096OCT     C292192  18.584   5.712  19.886  0.0009 -0.0555 -0.0404
46097OCT     C192193   5.239  16.358  17.634  0.1139  0.1484 -0.0786
46097OCT     C292194   5.234  16.814  17.588  0.1946 -0.1790 -0.2630
46098OCT     C192195   5.178  13.866  21.117 -0.0930 -0.2668 -0.3009
46098OCT     C292196   5.178  13.636  20.736 -0.4024 -0.3392 -0.0660
46099OCT     C192197  22.456  17.412   6.386  0.0805  0.1672 -0.0958
46099OCT     C292198  22.393  17.541   5.899 -0.0324 -0.3670  0.0546
46100OCT     C192199   8.547  13.255   4.313 -0.3446  0.0628  0.0322
46100OCT     C292200   8.535  13.700   4.206  0.0946  0.0937 -0.0336
46101OCT     C192201   2.351  11.534  16.113 -0.0662 -0.1496  0.2206
46101OCT     C292202   1.957  11.506  15.855  0.0808 -0.2723 -0.0244
46102OCT     C192203  11.808   0.688   9.168 -0.1676 -0.2257  0.0325
46102OCT     C292204  11.874   1.133   9.257  0.1214  0.0051 -0.0021
46103OCT     C192205   4.828   1.267  17.038 -0.0540 -0.0497 -0.2381
46103OCT     C292206   4.856   1.412  16.607 -0.1717  0.1107 -0.0563
46104OCT     C192207  19.945   7.048  20.043  0.3154  0.0912  0.1610
46104OCT     C292208  19.602   7.276  20.016 -0.1939 -0.2914  0.0691
46105OCT     C192209   5.177  12.372  20.991 -0.2504 -0.0449 -0.0344
46105OCT     C292210   5.534  12.285  20.725  0.0702  0.0663  0.1573
46106OCT     C192211   7.256  16.731  12.061 -0.2277 -0.0160  0.0353
46106OCT     C292212   7.631  16.774  11.765 -0.0249  0.0488  0.0878
46107OCT     C192213   8.044  11.400   4.193 -0.0902 -0.2882 -0.0051
46107OCT     C292214   7.591  11.335   4.369 -0.3228  0.2474  0.6039
46108OCT     C192215  22.746   0.529  14.109 -0.0992 -0.2977  0.1824
46108OCT     C292216  22.431   0.384  13.799 -0.0064  0.3215  0.0758
46109OCT     C192217   7.500  11.947   2.119  0.1051 -0.0669 -0.1723
46109OCT     C292218   7.200  12.301   2.238 -0.0185  0.4482 -0.1001
46110OCT     C192219  23.666  19.899  13.679 -0.2166  0.0326  0.0010
46110OCT     C292220  23.612  19.493  13.575  0.1513  0.0899  0.1386
46111OCT     C192221   7.496   9.148  20.495 -0.0031  0.1513  0.0975
46111OCT     C292222   7.393   9.066  20.067 -0.2420  0.0601  0.0100
46112OCT     C192223   8.736  12.548  23.517  0.2286  0.1560  0.2135
46112OCT     C292224   8.266  12.382  23.592 -0.1515  0.0412  0.0144
46113OCT     C192225  10.219  11.625   4.946  0.0437  0.4505  0.4038
46113OCT     C292226   9.782  11.779   5.013 -0.0757 -0.1088 -0.1773
46114OCT     C192227  12.695  16.056  18.973 -0.0827  0.2607  0.2876
46114OCT     C292228  12.399  16.323  18.784 -0.0537 -0.2123  0.4080
46115OCT     C192229   9.495   8.118   6.096  0.0786  0.0236 -0.3126
46115OCT     C292230   9.975   8.250   6.229 -0.0002 -0.1211 -0.2322
46116OCT     C192231  22.828  13.118  11.134  0.3841 -0.2658 -0.3792
46116OCT     C292232  22.892  13.562  10.978  0.3175  0.0406  0.2065
46117OCT     C192233  19.815   9.191   8.354  0.1142  0.2360 -0.1623
46117OCT     C292234  19.649   9.077   7.948 -0.0119  0.2694  0.0648
46118OCT     C192235   6.011   9.065  15.861  0.1122  0.1966  0.1364
46118OCT     C292236   6.027   8.602  15.873 -0.3593  0.2060  0.1475
46119OCT     C192237   3.065   3.184  14.212 -0.1250  0.1880  0.0886
46119OCT     C292238   2.708   2.820  14.307  0.0556 -0.2965  0.2203
46120OCT     C192239  13.860  20.849  12.178  0.1081 -0.0248 -0.2337
46120OCT     C292240  13.954  21.322  12.276 -0.1118  0.0895 -0.0187
46121OCT     C192241  19.027  10.541  13.521  0.2679  0.0383 -0.0952
46121OCT     C292242  19.270  10.136  13.610 -0.0782  0.0574  0.0553
46122OCT     C192243  10.307   6.394  19.147  0.2160 -0.2116  0.1846
46122OCT     C292244  10.078   6.699  19.445 -0.4063 -0.4537  0.1974
46123OCT     C192245  12.329  20.673  16.463  0.0581  0.1330  0.1449
46123OCT     C292246  12.683  20.909  16.346 -0.3371  0.3500  0.1742
46124OCT     C192247   3.997  21.411  22.230  0.0413  0.1291  0.1969
46124OCT     C292248   4.303  21.085  22.310  0.0374  0.3410 -0.2584
46125OCT     C192249  19.453   6.475  11.002 -0.4469 -0.3406 -0.0294
46125OCT     C292250  19.866   6.610  10.779  0.1442  0.2066 -0.1241
46126OCT     C192251  20.392   3.436  16.236 -0.0891  0.1326  0.0891
46126OCT     C292252  20.154   3.020  16.378 -0.0871 -0.0294  0.1383
46127OCT     C192253  19.129  19.246  21.030  0.2434 -0.1381  0.1019
46127OCT     C292254  19.270  19.647  20.899 -0.1281  0.5063  0.3474
46128OCT     C192255  20.250  17.255   0.410 -0.1246  0.0942  0.1344
46128OCT     C292256  20.675  17.405   0.251 -0.0899  0.2651 -0.2856
46129OCT     C192257   9.954  23.184  23.041 -0.0206  0.0271  0.1697
46129OCT     C292258  10.023  23.610  23.028  0.0237 -0.1715 -0.4390
46130OCT     C192259  12.031  15.902  12.731  0.1713  0.1067  0.1270
46130OCT     C292260  12.270  16.319  12.741 -0.2764  0.2113 -0.1038
46131OCT     C192261  13.858   6.256  20.267  0.1582  0.1362  0.3396
46131OCT     C292262  13.398   6.401  20.264 -0.3378  0.1966 -0.0829
46132OCT     C192263  17.246   3.699  14.654  0.0196  0.1057 -0.0147
46132OCT     C292264  17.183   4.117  14.544 -0.0363 -0.4148 -0.0049
46133OCT     C192265  12.556  10.107  22.432 -0.1803 -0.2057  0.0548
46133OCT     C292266  12.591  10.008  22.955 -0.0310 -0.1350  0.3381
46134OCT     C192267  20.852   5.605   7.120  0.1083 -0.2166 -0.0619
46134OCT     C292268  20.626   5.397   7.526 -0.1661  0.3406  0.1842
46135OCT     C192269  23.471  21.870   5.674  0.0181  0.2807  0.1836
46135OCT     C292270  23.305  22.266   5.856  0.1504  0.0254  0.3776
46136OCT     C192271  19.178   0.496   5.465  0.0698 -0.2818 -0.0339
46136OCT     C292272  18.822   0.576   5.805 -0.1023  0.1782  0.3018
46137OCT     C192273   4.668  15.645   1.936  0.1528 -0.3184 -0.0814
46137OCT     C292274   4.782  15.212   2.010 -0.1965 -0.0808  0.1500
46138OCT     C192275  11.237  21.491   4.465  0.0263 -0.0717  0.0505
46138OCT     C292276  10.987  21.859   4.495  0.2486 -0.3154  0.1488
46139OCT     C192277   8.759  16.468  18.422  0.0134  0.0766 -0.2233
46139OCT     C292278   8.738  16.238  18.022 -0.0618 -0.0635  0.2128
46140OCT     C192279  20.361  18.118  21.945  0.2480 -0.0435 -0.1164
46140OCT     C292280  20.211  18.198  21.490  0.2410  0.0274 -0.1824
46141OCT     C192281  13.386  15.478  17.621 -0.0162 -0.0820  0.2584
46141OCT     C292282  13.187  15.908  17.811 -0.1793  0.1124 -0.1377
46142OCT     C192283   3.485  20.429  21.304 -0.1552  0.3205  0.2002
46142OCT     C292284   3.313  20.686  21.662 -0.0981 -0.0199 -0.4255
46143OCT     C192285  23.451  17.478   2.353 -0.1275  0.0991  0.1061
46143OCT     C292286  23.687  17.558   2.780 -0.1663 -0.1322 -0.2585
46144OCT     C192287  18.115   4.081  10.077  0.1752  0.0791  0.2290
46144OCT     C292288  18.001   3.663  10.211  0.3800 -0.0794 -0.2366
46145OCT     C192289  19.276  16.978  21.997  0.3867 -0.3104  0.1614
46145OCT     C292290  19.111  17.164  21.602  0.0421  0.3539  0.0506
46146OCT     C192291  23.334  21.471  23.711 -0.0962  0.2902 -0.1130
46146OCT     C292292  23.439  21.254   0.384 -0.1017 -0.0314  0.0196
46147OCT     C192293  15.663  20.784  15.834 -0.1302 -0.0810 -0.3051
46147OCT     C292294  15.573  20.458  15.636 -0.0563 -0.1620  0.0751
46148OCT     C192295   0.644  12.886  10.035  0.0672 -0.4151  0.2133
46148OCT     C292296   0.454  13.157   9.710  0.0314 -0.1782  0.0177
46149OCT     C192297   0.971   4.393  22.892 -0.0613 -0.0135 -0.0571
46149OCT     C292298   0.563   4.621  22.992 -0.4812  0.0836  0.1028
46150OCT     C192299   6.761   2.886  11.091 -0.0674 -0.2692 -0.0005
46150OCT     C292300   7.207   2.958  11.068 -0.3333 -0.0032  0.1518
46151OCT     C192301  20.266   2.621  13.240  0.0011  0.0145  0.5278
46151OCT     C292302  20.090   2.737  12.885 -0.0486  0.2495 -0.0465
46152OCT     C192303  11.299   5.978   1.767 -0.1097 -0.0761  0.1392
46152OCT     C292304  11.185   5.841   2.185 -0.3299  0.0296 -0.1159
46153OCT     C192305   2.387   2.332   9.033  0.0792 -0.0661 -0.1477
46153OCT     C292306   2.083   2.619   8.907 -0.0316 -0.0243 -0.3406
46154OCT     C192307   9.613   0.912   3.696 -0.1529  0.2860 -0.1378
46154OCT     C292308   9.643   1.058   4.133 -0.0245 -0.0196  0.0679
46155OCT     C192309  11.661  13.218  15.333  0.2302  0.4840  0.2366
46155OCT     C292310  11.908  13.562  15.490  0.0938  0.0777 -0.0655
46156OCT     C192311   6.427   7.933  11.328 -0.2135  0.0719 -0.1012
46156OCT     C292312   6.513   7.523  11.600 -0.0655 -0.1249 -0.1244
46157OCT     C192313  13.037   6.078  20.398  0.0604 -0.1363 -0.2054
46157OCT     C292314  12.984   6.223  19.957 -0.0601  0.2655  0.0299
46158OCT     C192315  19.259  11.541   0.790 -0.3431  0.2998 -0.0448
46158OCT     C292316  18.941  11.575   0.484 -0.1901  0.3259 -0.1297
46159OCT     C192317   8.059   4.766  19.094 -0.0753 -0.2245 -0.0304
46159OCT     C292318   7.799   5.125  19.156 -0.0828 -0.1190 -0.1850
46160OCT     C192319  16.113  14.942   3.888 -0.0650  0.0696  0.1919
46160OCT     C292320  15.958  15.292   3.668 -0.2272 -0.5141  0.1839
46161OCT     C192321  14.411   1.591   1.688 -0.0440 -0.0289  0.2990
46161OCT     C292322  14.362   1.225   1.930 -0.0185  0.1645 -0.2159
46162OCT     C192323  21.065   8.763  21.073  0.0422 -0.0133 -0.2018
46162OCT     C292324  21.358   9.124  20.958  0.1682 -0.4596 -0.2576
46163OCT     C192325  18.908  14.143  13.316  0.2496  0.1243 -0.0653
46163OCT     C292326  19.019  13.860  12.915  0.3485 -0.3310  0.0803
46164OCT     C192327   6.865  10.252  15.508  0.1601  0.3331  0.2480
46164OCT     C292328   6.746  10.545  15.237  0.1761 -0.2633 -0.0508
46165OCT     C192329  20.459  12.894  14.223 -0.3800 -0.1919 -0.2705
46165OCT     C292330  20.285  13.091  14.599  0.1455 -0.1503 -0.0084
46166OCT     C192331   3.908  16.962   0.983 -0.2950 -0.1747  0.2470
46166OCT     C292332   3.899  16.961   0.486  0.1646 -0.1676 -0.2748
46167OCT     C192333  19.071  20.765   6.355  0.0470  0.1673 -0.1658
46167OCT     C292334  18.982  20.555   6.742 -0.0675 -0.0682 -0.2427
46168OCT     C192335  14.380   1.518  14.253  0.0705  0.0884 -0.3653
46168OCT     C292336  14.012   1.795  14.288  0.0027  0.1026 -0.0515
46169OCT     C192337   4.841   7.684  17.330  0.1318  0.3504 -0.0716
46169OCT     C292338   5.287   7.518  17.219  0.1260 -0.0793  0.1973
46170OCT     C192339  13.443   6.324  22.846  0.2965 -0.5347 -0.3539
46170OCT     C292340  13.640   6.129  22.435 -0.0390  0.4716 -0.1950
46171OCT     C192341  17.596  11.585  18.162  0.4595 -0.4127  0.1838
46171OCT     C292342  17.174  11.505  18.003 -0.1771 -0.0503  0.0706
46172OCT     C192343   9.836   8.214  16.040 -0.1276 -0.2772 -0.3999
46172OCT     C292344  10.100   8.057  16.326  0.2988 -0.2505  0.2172
46173OCT     C192345   3.313  13.596   6.351  0.0899 -0.0019  0.0745
46173OCT     C292346   3.031  13.805   6.045  0.1791 -0.1498 -0.1397
46174OCT     C192347  17.646  10.847  13.599 -0.2629 -0.1958  0.2378
46174OCT     C292348  17.486  11.089  13.192  0.1004  0.0173  0.2681
46175OCT     C192349  11.846  11.461   1.442  0.0293  0.0903  0.0470
46175OCT     C292350  12.331  11.573   1.433  0.1330  0.3262 -0.3676
46176OCT     C192351  20.870  14.202  18.534 -0.1584 -0.1405  0.3984
46176OCT     C292352  20.624  14.479  18.824  0.0388  0.1341 -0.3133
46177OCT     C192353  15.759  21.768  18.321 -0.4782 -0.1478  0.0984
46177OCT     C292354  16.184  21.954  18.400  0.3867  0.1402 -0.1890
46178OCT     C192355   3.642  21.175  17.645  0.2153 -0.0420  0.0066
46178OCT     C292356   3.848  21.348  18.016  0.3273 -0.5060 -0.0167
46179OCT     C192357  20.902  19.421  18.110  0.1458  0.3360  0.3305
46179OCT     C292358  20.981  19.686  18.480 -0.0632  0.3066  0.0788
46180OCT     C192359   3.855  11.714  16.149 -0.0105  0.0982 -0.0265
46180OCT     C292360   3.367  11.806  16.207 -0.0416 -0.2530  0.0023
46181OCT     C192361  12.274   2.472   4.783  0.5203  0.0485 -0.3343
46181OCT     C292362  12.095   2.599   4.415  0.5498  0.0636 -0.2072
46182OCT     C192363  17.096  20.809  17.584 -0.1066  0.0782 -0.0180
46182OCT     C292364  17.265  20.736  17.974 -0.1770 -0.0569  0.0691
46183OCT     C192365   8.142   1.269  10.713 -0.0108 -0.3518  0.1533
46183OCT     C292366   8.032   1.643  10.445  0.1501  0.3026 -0.1332
46184OCT     C192367   5.213   4.882  15.956  0.0937 -0.0168  0.3142
46184OCT     C292368   4.930   5.239  15.948 -0.0077  0.2583 -0.2984
46185OCT     C192369  19.864  14.946  14.107 -0.0247 -0.1996  0.0962
46185OCT     C292370  20.307  14.890  14.179 -0.0301 -0.3452 -0.5078
46186OCT     C192371  22.823  15.807  14.835  0.0688  0.2068  0.1954
46186OCT     C292372  22.583  16.201  14.834  0.1075 -0.0982  0.0056
46187OCT     C192373  20.191  10.054  18.368  0.2034  0.0984 -0.2478
46187OCT     C292374  20.579  10.002  18.168  0.3126 -0.0017  0.1228
46188OCT     C192375  10.059  12.728   7.896  0.0187 -0.0027  0.3168
46188OCT     C292376  10.166  12.470   7.492 -0.1354 -0.2719  0.1412
46189OCT     C192377  14.770  17.805   2.064 -0.1402 -0.0770  0.0536
46189OCT     C292378  14.642  18.111   2.316  0.1416  0.2634  0.1153
46190OCT     C192379  15.364  12.474  22.465  0.0817 -0.1314  0.0888
46190OCT     C292380  15.738  12.401  22.213  0.1482 -0.0887 -0.2168
46191OCT     C192381   5.611   9.789   2.275  0.1398 -0.0874  0.2810
46191OCT     C292382   5.561   9.436   1.969 -0.2356 -0.1510  0.1531
46192OCT     C192383   1.025   4.535  11.900 -0.0814  0.4842 -0.0742
46192OCT     C292384   1.276   4.884  11.992  0.2185  0.3143  0.0986
46193OCT     C192385   0.758   2.146  12.368  0.3564  0.1737  0.3328
46193OCT     C292386   0.484   2.378  12.069 -0.2606 -0.1937  0.2120
46194OCT     C192387   3.549   1.158   5.369 -0.1217 -0.2235  0.0294
46194OCT     C292388   3.134   0.988   5.175 -0.0671  0.0711  0.1248
46195OCT     C192389   2.487  11.667   0.991 -0.0465 -0.1016  0.0993
46195OCT     C292390   2.903  11.426   0.904 -0.0694  0.0919  0.0723
46196OCT     C192391   5.415   8.474   3.733  0.0191  0.0589  0.0603
46196OCT     C292392   5.331   8.286   3.271  0.0793  0.4373 -0.0101
46197OCT     C192393  12.877   4.558  23.213  0.1424 -0.1689  0.0121
46197OCT     C292394  12.748   4.807  22.843  0.0876  0.2004  0.1791
46198OCT     C192395   6.567  22.555   3.364  0.1533  0.0821 -0.1536
46198OCT     C292396   6.174  22.632   3.333  0.5129  0.2004 -0.2249
46199OCT     C192397   5.562  16.950   4.494  0.2485 -0.0326 -0.0104
46199OCT     C292398   5.663  16.756   4.858 -0.4740 -0.3349  0.1281
46200OCT     C192399  20.047  17.512  14.881  0.2301 -0.1738 -0.0149
46200OCT     C292400  20.336  17.915  15.004 -0.0437 -0.1834 -0.1184
46201OCT     C192401  23.184  18.214  13.696  0.1575 -0.3719 -0.1947
46201OCT     C292402  23.150  17.753  13.689 -0.2702 -0.2883  0.2220
46202OCT     C192403   9.539   2.644   1.095 -0.2584  0.0138  0.0662
46202OCT     C292404   9.950   2.777   0.876 -0.3021 -0.4386 -0.0222
46203OCT     C192405   8.373   2.445   4.442  0.0088  0.2006  0.0027
46203OCT     C292406   8.289   2.755   4.772  0.2354  0.2837 -0.1778
46204OCT     C192407  23.054  13.610  20.747  0.0541  0.3313 -0.0314
46204OCT     C292408  23.482  13.512  20.859  0.0002 -0.1895 -0.0244
46205OCT     C192409  21.829  23.736  16.230 -0.1062  0.2567  0.0729
46205OCT     C292410  21.722   0.371  16.000  0.0719  0.2955 -0.0145
46206OCT     C192411   2.296  11.551   7.802  0.1985  0.0858  0.2473
46206OCT     C292412   2.017  11.206   7.894 -0.0594 -0.1983  0.3134
46207OCT     C192413  12.110   1.404   8.870  0.1103  0.3582  0.2132
46207OCT     C292414  12.407   1.421   8.476 -0.2274 -0.1339 -0.2308
46208OCT     C192415  22.089  20.876  11.948  0.0692 -0.0410 -0.2476
46208OCT     C292416  21.993  20.432  12.051 -0.0450 -0.1953  0.1256
46209OCT     C192417  13.409   6.784  23.648 -0.0114 -0.2441 -0.1310
46209OCT     C292418  13.598   6.745  23.234  0.2530  0.2864 -0.0538
46210OCT     C192419   1.045  22.167  13.650  0.1387 -0.2311  0.2792
46210OCT     C292420   0.614  22.197  13.745  0.0602  0.0846  0.0292
46211OCT     C192421  23.694   6.995  19.098 -0.0270  0.1350 -0.3400
46211OCT     C292422   0.084   7.054  19.514 -0.0996  0.2346 -0.0480
46212OCT     C192423  11.200   8.285   4.707  0.0513  0.2121  0.1188
46212OCT     C292424  11.160   8.697   4.439 -0.0019  0.3913  0.1899
46213OCT     C192425   0.621   1.940  19.114  0.0383  0.2121  0.2611
46213OCT     C292426   0.647   2.374  19.337 -0.2396 -0.3113 -0.1509
46214OCT     C192427  12.428   6.614   5.788  0.0896  0.3961  0.1176
46214OCT     C292428  11.982   6.410   5.686 -0.2318 -0.1381 -0.2152
46215OCT     C192429  15.960  10.102  17.190  0.0140  0.0050  0.1359
46215OCT     C292430  16.317  10.311  17.364 -0.1134 -0.0598 -0.2291
46216OCT     C192431   4.910   2.883  19.239 -0.0078  0.0489  0.0989
46216OCT     C292432   4.943   3.301  19.058  0.2201  0.3129  0.0032
46217OCT     C192433  18.084  11.553   3.085  0.4063  0.1418 -0.3166
46217OCT     C292434  17.951  11.832   3.421 -0.2635  0.2306 -0.0708
46218OCT     C192435   7.005  19.677   3.145 -0.1393  0.5645  0.0839
46218OCT     C292436   7.072  20.005   2.794 -0.1684 -0.0100  0.2318
46219OCT     C192437  19.872   5.652  22.441  0.2836  0.0940 -0.3365
46219OCT     C292438  19.426   5.685  22.275  0.1330  0.0344 -0.2064
46220OCT     C192439  20.572   3.116   9.259 -0.1247  0.2903 -0.0861
46220OCT     C292440  20.573   2.725   9.082 -0.0424  0.0594 -0.0621
46221OCT     C192441   7.463  10.066   2.285  0.0666  0.4362 -0.1583
46221OCT     C292442   6.991   9.915   2.307 -0.4592 -0.1153 -0.1074
46222OCT     C192443   7.477  13.543  13.113 -0.4844  0.3979 -0.1661
46222OCT     C292444   7.048  13.326  13.262  0.0720 -0.3529  0.1118
46223OCT     C192445  21.130  23.139   2.540  0.0999  0.2135 -0.3084
46223OCT     C292446  21.111  22.651   2.546 -0.0053 -0.0398  0.0693
46224OCT     C192447  22.427  17.929   7.917 -0.1598  0.4626 -0.0861
46224OCT     C292448  22.351  17.473   8.124 -0.0393  0.1905  0.1102
46225OCT     C192449  16.553   1.644   5.949 -0.3172  0.2726  0.1468
46225OCT     C292450  16.873   1.967   6.049  0.1158 -0.2201  0.1417
46226OCT     C192451   3.832  22.148   5.716 -0.2901 -0.0184 -0.0854
46226OCT     C292452   3.823  21.642   5.580 -0.3404 -0.2630  0.1651
46227OCT     C192453   3.077   4.377   4.163  0.0219  0.3851 -0.3646
46227OCT     C292454   2.673   4.141   4.051 -0.1844 -0.0259 -0.4356
46228OCT     C192455  19.218  18.097   5.334 -0.1630  0.0567  0.0908
46228OCT     C292456  18.967  18.437   5.120 -0.1971  0.2185  0.2488
46229OCT     C192457  14.786  15.399   3.642  0.3063 -0.1216  0.1216
46229OCT     C292458  14.621  15.564   4.073 -0.3764 -0.1282 -0.1890
46230OCT     C192459   6.097  10.399   0.034 -0.0637 -0.4613 -0.1606
46230OCT     C292460   6.572  10.305   0.042  0.2656 -0.0285  0.2663
46231OCT     C192461   4.525  21.913  23.238 -0.3601  0.0577  0.2877
46231OCT     C292462   4.887  22.193  23.185 -0.0504  0.0157  0.1662
46232OCT     C192463   4.265   1.266  21.968 -0.0331  0.1056 -0.0786
46232OCT     C292464   3.943   1.045  21.783 -0.0510 -0.1612 -0.0845
46233OCT     C192465  19.575  17.858   9.634  0.3799 -0.2883  0.2372
46233OCT     C292466  19.088  17.999   9.583  0.1673  0.2228 -0.1170
46234OCT     C192467  10.618  22.087   3.500  0.0557  0.2481 -0.0476
46234OCT     C292468  10.820  21.947   3.903 -0.0793 -0.0362 -0.3066
46235OCT     C192469  23.135  13.702  20.243  0.3106  0.2623 -0.0375
46235OCT     C292470  23.303  13.937  19.916 -0.0592 -0.0685 -0.1858
46236OCT     C192471   0.193   0.767   5.752 -0.1422 -0.0305 -0.0426
46236OCT     C292472  23.507   0.782   5.545  0.0846  0.0812  0.2752
46237OCT     C192473   5.020  22.857  17.044  0.3282 -0.3084  0.0299
46237OCT     C292474   4.657  23.123  16.862 -0.2994  0.0084 -0.0521
46238OCT     C192475   4.749  22.632   0.132  0.2850 -0.0321 -0.4897
46238OCT     C292476   5.215  22.772   0.223 -0.0702  0.0982 -0.1130
46239OCT     C192477  17.680  14.464   7.220 -0.4835  0.3990 -0.1184
46239OCT     C292478  17.551  14.870   7.327 -0.2804  0.1447  0.3839
46240OCT     C192479   3.959  15.700  19.065  0.2664 -0.1088  0.0303
46240OCT     C292480   4.049  15.843  19.486 -0.5665 -0.1201  0.2122
46241OCT     C192481   0.027   8.153  22.728  0.0959 -0.3970  0.0524
46241OCT     C292482  23.330   8.259  22.537 -0.2574  0.3174 -0.4986
46242OCT     C192483  21.039  13.670  13.178 -0.2385  0.2800  0.0122
46242OCT     C292484  20.987  13.914  13.575  0.3716  0.3117 -0.2232
46243OCT     C192485   7.242   5.402   1.430 -0.2680  0.3552  0.0481
46243OCT     C292486   6.836   5.518   1.538 -0.2179 -0.0278  0.1173
46244OCT     C192487   5.669   2.980   5.647  0.0476 -0.0292  0.3855
46244OCT     C292488   5.683   2.957   5.190 -0.0096  0.1379  0.0002
46245OCT     C192489  12.703   7.727  19.847 -0.1346 -0.1530 -0.1149
46245OCT     C292490  12.518   7.309  19.841 -0.0792 -0.1829 -0.0259
46246OCT     C192491  21.894  22.225  16.944  0.0320  0.2248 -0.1378
46246OCT     C292492  21.771  22.636  16.761 -0.2392  0.2083 -0.2048
46247OCT     C192493  16.184  19.833   1.371 -0.1309  0.0568 -0.0566
46247OCT     C292494  16.414  20.187   1.100 -0.0155 -0.0852 -0.2350
46248OCT     C192495   8.444   7.250  10.390 -0.3564 -0.0431 -0.0612
46248OCT     C292496   8.676   7.204  10.814  0.0649  0.1423 -0.1614
46249OCT     C192497  18.073  10.249  10.622  0.0508  0.0420  0.2305
46249OCT     C292498  17.925   9.988  10.223 -0.0509 -0.0245  0.1390
46250OCT     C192499  22.307   1.119  17.907  0.1534 -0.1150 -0.1549
46250OCT     C292500  22.420   0.731  18.149  0.0735 -0.1109 -0.0694
46251OCT     C192501  18.288  12.509  21.498  0.3704 -0.2797 -0.1318
46251OCT     C292502  18.714  12.456  21.631 -0.1095  0.2598  0.2072
46252OCT     C192503   7.186  22.841  14.778  0.3455  0.2453 -0.4406
46252OCT     C292504   7.677  22.891  14.825  0.2738  0.0168 -0.2035
46253OCT     C192505  13.875  11.036  18.169 -0.0117  0.2070  0.3137
46253OCT     C292506  14.215  11.230  17.898 -0.0331  0.0176  0.0600
46254OCT     C192507   4.574   2.031   4.600  0.0433  0.0393 -0.0106
46254OCT     C292508   4.534   2.444   4.396 -0.2089 -0.1724 -0.1905
46255OCT     C192509   5.359  12.059  21.770  0.3997 -0.1759 -0.0509
46255OCT     C292510   5.544  11.890  22.130  0.1069 -0.2243 -0.2578
46256OCT     C192511  10.252   5.178  13.301 -0.0498 -0.2311 -0.1448
46256OCT     C292512  10.293   5.620  13.467  0.0886  0.4330 -0.1458
46257OCT     C192513  13.373  14.937  17.530 -0.1648 -0.1065 -0.1351
46257OCT     C292514  12.932  15.124  17.365 -0.1657 -0.1086  0.1325
46258OCT     C192515   4.814  19.606  21.565 -0.2042  0.0238  0.1236
46258OCT     C292516   5.225  19.443  21.414  0.0912  0.0432 -0.2944
46259OCT     C192517   7.762  11.577  19.633  0.2451  0.1330 -0.4192
46259OCT     C292518   7.959  11.378  20.025 -0.5834  0.2214 -0.2133
46260OCT     C192519  20.636  17.167   2.200 -0.0603 -0.1854  0.1521
46260OCT     C292520  20.478  17.623   2.233  0.1832 -0.2924 -0.0732
46261OCT     C192521   5.368  17.525   8.028  0.0241 -0.1503 -0.0747
46261OCT     C292522   5.241  17.541   8.492 -0.4376  0.0052 -0.1310
46262OCT     C192523  21.139  19.344  10.928  0.0497  0.0833 -0.0135
46262OCT     C292524  20.639  19.379  10.834 -0.2349  0.4045 -0.0674
46263OCT     C192525   7.267  20.419  13.853  0.0292  0.0401  0.3411
46263OCT     C292526   7.361  19.935  13.744  0.2790 -0.0985  0.1643
46264OCT     C192527  18.847  17.830   1.258  0.3176  0.3929  0.2316
46264OCT     C292528  18.792  17.985   0.841 -0.1298  0.1407  0.0879
46265OCT     C192529   7.087  17.274  17.051 -0.0236  0.7070 -0.2480
46265OCT     C292530   7.194  16.787  16.884 -0.2166 -0.0251  0.0392
46266OCT     C192531   3.931  13.301  15.227 -0.3346 -0.0235  0.3774
46266OCT     C292532   3.828  13.599  14.833  0.0908  0.2391  0.2695
46267OCT     C192533  21.139   1.570  19.271  0.3476  0.3381  0.3421
46267OCT     C292534  20.663   1.624  19.254  0.3338 -0.0890  0.0639
46268OCT     C192535  10.909   3.835  16.649  0.0739  0.4309  0.0255
46268OCT     C292536  10.581   4.075  16.389  0.1764 -0.0511 -0.0903
46269OCT     C192537  14.603   0.972   4.461  0.0054 -0.1076  0.2682
46269OCT     C292538  14.203   1.010   4.713 -0.2068 -0.1304 -0.0645
46270OCT     C192539  10.137   9.666  19.756 -0.2801 -0.4322 -0.4722
46270OCT     C292540   9.831   9.459  19.457 -0.0821 -0.0122  0.2544
46271OCT     C192541  14.242   1.299   8.118 -0.2733  0.2087 -0.1105
46271OCT     C292542  14.305   0.883   8.258  0.0162  0.5976  0.1570
46272OCT     C192543   9.976  18.487  21.729  0.1909  0.1635  0.0674
46272OCT     C292544   9.849  18.828  21.470  0.1788 -0.1379 -0.5857
46273OCT     C192545  10.724  13.616   0.124 -0.1510  0.0076  0.2321
46273OCT     C292546  10.368  13.336  23.713  0.2299 -0.1717  0.2904
46274OCT     C192547   5.528   0.712  11.833 -0.0979 -0.1037 -0.1037
46274OCT     C292548   6.007   0.623  11.975  0.1236  0.0818  0.1081
46275OCT     C192549  21.616  14.161  16.426  0.1235 -0.1148 -0.1982
46275OCT     C292550  21.420  13.744  16.306 -0.1129  0.0435 -0.1043
46276OCT     C192551  13.175  16.112  18.783 -0.0487  0.3376  0.1275
46276OCT     C292552  13.456  16.408  19.049 -0.0171  0.1531  0.2368
46277OCT     C192553   5.478  12.684   0.535  0.0889  0.4494 -0.2464
46277OCT     C292554   5.584  13.025   0.200 -0.3744  0.0068  0.0849
46278OCT     C192555   1.498   3.877   8.663  0.0331  0.3449 -0.5130
46278OCT     C292556   1.112   3.891   8.458 -0.0701  0.0730  0.0434
46279OCT     C192557  19.184   0.323   8.582  0.1629  0.0946 -0.0765
46279OCT     C292558  19.465   0.638   8.518 -0.0419  0.0039  0.0641
46280OCT     C192559  19.833  21.242   1.207 -0.2139 -0.1904  0.0099
46280OCT     C292560  20.264  21.360   1.274  0.1679 -0.0010 -0.0610
46281OCT     C192561  21.857   6.755   1.756 -0.3419  0.3499 -0.1057
46281OCT     C292562  22.060   6.422   1.978 -0.2904  0.3206  0.1731
46282OCT     C192563  19.989  15.225  11.073  0.5531  0.1331  0.3455
46282OCT     C292564  19.688  15.448  10.775 -0.2232 -0.1871  0.0363
46283OCT     C192565  21.601   6.656   3.684 -0.1116  0.0003  0.2877
46283OCT     C292566  21.816   7.052   3.807 -0.6218 -0.1279 -0.3013
46284OCT     C192567   2.187   1.904  20.106  0.0328  0.0564 -0.0518
46284OCT     C292568   2.600   1.906  19.911  0.0909  0.1933  0.0153
46285OCT     C192569  12.160  21.540   4.197 -0.1728 -0.2560 -0.0666
46285OCT     C292570  12.518  21.866   4.329  0.1529 -0.3245 -0.0020
46286OCT     C192571  10.186  10.158   2.294  0.3218  0.3046 -0.0960
46286OCT     C292572  10.178  10.089   2.753  0.1171 -0.1082 -0.0305
46287OCT     C192573  13.134   3.096  20.135  0.3423 -0.0546 -0.3099
46287OCT     C292574  13.374   3.141  19.743  0.1412 -0.6125  0.4303
46288OCT     C192575   6.510   5.403  11.166 -0.0362 -0.1284  0.0142
46288OCT     C292576   6.156   5.699  10.949 -0.3862 -0.0005  0.2944
46289OCT     C192577   1.194   9.615  13.051 -0.0727  0.1882  0.3590
46289OCT     C292578   1.413   9.825  13.338 -0.2183 -0.2553  0.1772
46290OCT     C192579   8.774  19.777  10.237  0.0872 -0.4085 -0.0651
46290OCT     C292580   9.030  20.203  10.372  0.3920 -0.0153 -0.2223
46291OCT     C192581  20.468  22.680   8.314 -0.2192  0.1778  0.1498
46291OCT     C292582  20.132  22.462   8.054 -0.1756  0.0793  0.4083
46292OCT     C192583  22.656  21.197  17.364  0.0044  0.0225 -0.3651
46292OCT     C292584  22.444  21.635  17.284 -0.2536  0.5349 -0.3499
46293OCT     C192585   0.417  22.631   1.651  0.1827  0.1088  0.0104
46293OCT     C292586   0.780  22.976   1.789 -0.2332  0.1008  0.0293
46294OCT     C192587  14.749   5.312  14.702 -0.1546  0.1269 -0.2931
46294OCT     C292588  14.493   5.683  14.694  0.5495  0.0279 -0.0872
46295OCT     C192589  15.185   3.889   3.452 -0.2235 -0.0093 -0.2345
46295OCT     C292590  14.958   4.267   3.509 -0.6117 -0.0371  0.1643
46296OCT     C192591  22.921  10.773  11.504 -0.1016  0.3959 -0.0164
46296OCT     C292592  23.059  10.889  11.097 -0.1431 -0.2225  0.1644
46297OCT     C192593   3.029   6.199   3.689  0.0593 -0.3153  0.3296
46297OCT     C292594   3.265   6.554   3.856  0.0098 -0.1009  0.0279
46298OCT     C192595  18.378   6.987  19.408  0.1444 -0.4163 -0.0024
46298OCT     C292596  18.496   7.355  19.213  0.0271  0.1412 -0.0613
46299OCT     C192597  16.813  10.922   1.989 -0.3066  0.0246 -0.0480
46299OCT     C292598  16.775  11.328   2.148 -0.0714  0.1422  0.4253
46300OCT     C192599   3.990  17.241  22.953 -0.0351 -0.2290  0.1231
46300OCT     C292600   4.219  16.972  23.196 -0.2366 -0.2572 -0.2873
46301OCT     C192601   6.629   7.712   5.201 -0.2299 -0.1154  0.1527
46301OCT     C292602   6.656   7.772   5.655 -0.4442 -0.0239  0.0771
46302OCT     C192603  20.482  17.290  22.876  0.0507 -0.2551  0.1005
46302OCT     C292604  20.433  17.343  22.449 -0.2552 -0.2259  0.4076
46303OCT     C192605   1.557  16.527   1.915 -0.0635 -0.2542 -0.0317
46303OCT     C292606   1.195  16.887   1.866  0.1527 -0.3310 -0.1399
46304OCT     C192607  19.349  18.475  21.890  0.3193  0.1165 -0.2583
46304OCT     C292608  19.715  18.140  21.773  0.4647  0.1494  0.0763
46305OCT     C192609  11.798  23.657  11.004 -0.0770 -0.0862 -0.1410
46305OCT     C292610  11.377  23.705  11.059 -0.1816  0.3079  0.0196
46306OCT     C192611   4.699   5.460   2.084 -0.0429 -0.3483 -0.1980
46306OCT     C292612   4.914   5.791   1.827  0.1530  0.2399 -0.1183
46307OCT     C192613   4.622   3.871   0.903  0.1243 -0.1893 -0.2139
46307OCT     C292614   4.245   3.625   0.990  0.1839 -0.1128 -0.1630
46308OCT     C192615  10.305   9.978  14.185  0.1473  0.2234  0.0177
46308OCT     C292616  10.690   9.939  13.943  0.0972 -0.1983  0.0229
46309OCT     C192617  21.762   9.173  15.130  0.0080  0.0211  0.3359
46309OCT     C292618  21.450   8.881  15.394 -0.2494 -0.0628 -0.2619
46310OCT     C192619   5.004  11.066   0.213  0.2431 -0.5514 -0.1667
46310OCT     C292620   5.158  11.321   0.552  0.0309  0.2657  0.0317
46311OCT     C192621   1.132   6.280  13.640  0.0439  0.2346 -0.0788
46311OCT     C292622   0.739   6.496  13.445 -0.1041  0.5245 -0.1876
46312OCT     C192623  16.534   3.769  19.632 -0.0302 -0.0537 -0.1157
46312OCT     C292624  16.253   3.421  19.872 -0.1721 -0.4807  0.4711
46313OCT     C192625   3.183  22.196  10.777 -0.3466 -0.0448  0.0492
46313OCT     C292626   3.226  22.154  10.317 -0.2024 -0.1048 -0.1936
46314OCT     C192627  22.643   6.847  12.776 -0.0110 -0.0111  0.2223
46314OCT     C292628  22.217   6.824  12.469  0.2152  0.0075 -0.2653
46315OCT     C192629   0.532   6.805   8.708  0.1663  0.1041 -0.1701
46315OCT     C292630   0.161   6.431   8.773 -0.2771  0.1619  0.3273
46316OCT     C192631   7.874   6.275   1.632  0.0191 -0.0740 -0.2986
46316OCT     C292632   7.661   6.031   1.990  0.1267  0.2561  0.0177
46317OCT     C192633  19.682   4.430  11.790 -0.1177 -0.1916  0.1549
46317OCT     C292634  19.563   4.691  12.171  0.1784 -0.0468  0.1405
46318OCT     C192635   6.544  19.134  16.228  0.1868 -0.1123 -0.0230
46318OCT     C292636   6.224  19.468  16.069 -0.0696  0.0655 -0.1239
46319OCT     C192637  22.723   9.131   1.177 -0.1283  0.1592 -0.0155
46319OCT     C292638  22.305   9.273   1.086 -0.2000 -0.2540  0.3212
46320OCT     C192639  10.988   9.517  16.935 -0.0521 -0.1451  0.0182
46320OCT     C292640  10.744   9.647  16.545 -0.1526 -0.4022 -0.1079
46321OCT     C192641  20.850   7.995  22.174  0.3339  0.0621 -0.0497
46321OCT     C292642  20.645   7.644  21.901 -0.1813  0.0025  0.1424
46322OCT     C192643   7.411  13.170  15.035 -0.1448  0.1572 -0.0678
46322OCT     C292644   7.797  13.019  14.773  0.2428  0.0556 -0.2600
46323OCT     C192645   9.137  18.722   4.561 -0.1048 -0.1066 -0.0641
46323OCT     C292646   9.010  18.302   4.737  0.1368 -0.1181  0.1740
46324OCT     C192647  21.035   2.477  21.154 -0.0791 -0.1993  0.0109
46324OCT     C292648  20.735   2.736  21.393 -0.2773 -0.3745  0.2244
46325OCT     C192649   2.642  10.545  22.370 -0.0973  0.3212 -0.2036
46325OCT     C292650   2.517  10.342  22.835 -0.2257 -0.4085 -0.2619
46326OCT     C192651  10.956   4.391  16.777 -0.0984  0.0907  0.0153
46326OCT     C292652  10.869   4.551  16.316  0.0904  0.2047  0.2995
46327OCT     C192653   6.745  13.439   3.756 -0.2530 -0.4240 -0.1560
46327OCT     C292654   6.912  13.266   3.360  0.0178  0.0680  0.0927
46328OCT     C192655  19.757   9.593   3.465 -0.1064 -0.1204  0.0230
46328OCT     C292656  19.540  10.061   3.563 -0.0408 -0.1394 -0.0016
46329OCT     C192657  13.104   5.593  21.337 -0.0460 -0.0883  0.1814
46329OCT     C292658  13.430   5.552  21.008 -0.1998  0.3374 -0.2587
46330OCT     C192659  23.604   3.692   0.991  0.1127 -0.2500  0.0497
46330OCT     C292660  23.160   3.721   1.116  0.1131  0.5581 -0.2297
46331OCT     C192661  19.539  23.414  11.497  0.1077 -0.2571  0.3376
46331OCT     C292662  19.903  23.305  11.706 -0.4071 -0.0625 -0.3962
46332OCT     C192663  10.266  12.497   2.808 -0.3023 -0.0764  0.0573
46332OCT     C292664   9.899  12.305   2.728  0.0703  0.3866  0.1995
46333OCT     C192665   4.308  22.444  15.642 -0.2361  0.1161  0.2659
46333OCT     C292666   4.308  22.662  15.197  0.2465  0.2592 -0.1653
46334OCT     C192667  18.124   4.317   3.777 -0.0944 -0.0780  0.1820
46334OCT     C292668  18.455   4.405   3.451  0.0839  0.0952 -0.0470
46335OCT     C192669   8.710   2.863   4.475  0.2740  0.0158  0.0681
46335OCT     C292670   8.774   3.182   4.105 -0.1727  0.2796  0.0045
46336OCT     C192671   5.559  14.092  17.940 -0.1318 -0.2315  0.3289
46336OCT     C292672   5.694  14.023  17.465  0.2995  0.4703 -0.3399
46337OCT     C192673   5.964  23.369  14.668  0.1369 -0.1780 -0.0028
46337OCT     C292674   5.731  22.956  14.755  0.2180 -0.1528  0.0684
46338OCT     C192675  15.722  14.151  11.970  0.3552 -0.3774  0.1137
46338OCT     C292676  15.992  13.811  12.240 -0.1980 -0.1681  0.0070
46339OCT     C192677  16.277   4.237   1.968  0.0294  0.2245 -0.3783
46339OCT     C292678  15.997   3.875   2.070  0.0180  0.1428  0.0203
46340OCT     C192679  11.662  10.385   1.880 -0.1887 -0.0575 -0.2503
46340OCT     C292680  11.330  10.773   1.893  0.0848 -0.0751 -0.3653
46341OCT     C192681  17.985   3.818   2.238 -0.0018 -0.2027  0.1575
46341OCT     C292682  18.192   3.463   2.545  0.0862  0.4056 -0.0096
46342OCT     C192683  22.275  20.589  11.047  0.1087  0.0710  0.2233
46342OCT     C292684  22.518  21.009  11.132  0.0533  0.2970 -0.1711
46343OCT     C192685   9.954  15.992   2.408  0.1447  0.0753 -0.0087
46343OCT     C292686  10.082  16.162   2.822  0.0294  0.1600 -0.1388
46344OCT     C192687   4.046   8.726  19.286 -0.0857 -0.3657 -0.0404
46344OCT     C292688   4.455   8.855  19.012 -0.4418 -0.2388 -0.1664
46345OCT     C192689  20.940   2.504   7.035  0.0828 -0.3606 -0.0129
46345OCT     C292690  20.779   2.688   7.368  0.0051 -0.2684 -0.1229
46346OCT     C192691   7.228  10.545  23.147  0.0365 -0.0151  0.2266
46346OCT     C292692   6.899  10.418  22.910  0.0830 -0.4102 -0.2963
46347OCT     C192693  19.883  17.189  16.353  0.1908 -0.0311  0.0943
46347OCT     C292694  19.483  17.412  16.292 -0.0432 -0.0997  0.0425
46348OCT     C192695  14.352  15.259  10.867  0.1664 -0.0984 -0.0212
46348OCT     C292696  14.154  15.705  11.021 -0.2977  0.1105 -0.2335
46349OCT     C192697  14.435  20.721   4.789 -0.2148 -0.0446  0.0218
46349OCT     C292698  13.994  20.643   4.735 -0.0207  0.0726 -0.1600
46350OCT     C192699   3.152   1.357  23.154 -0.0047  0.0928  0.1847
46350OCT     C292700   2.806   1.680  22.980  0.0324 -0.0070 -0.1097
46351OCT     C192701  20.968   5.405  20.288 -0.0025 -0.2659 -0.2249
46351OCT     C292702  20.546   5.332  20.476  0.3363 -0.1809 -0.0324
46352OCT     C192703   9.062  15.264   3.077 -0.1744 -0.0665 -0.3066
46352OCT     C292704   9.248  14.933   2.783  0.0013  0.0188 -0.0523
46353OCT     C192705   2.296  17.451  21.340  0.0731  0.3787  0.1718
46353OCT     C292706   2.599  17.797  21.438  0.2009  0.0066 -0.1930
46354OCT     C192707   8.559  21.288  19.213 -0.4304 -0.5049 -0.0497
46354OCT     C292708   9.010  21.199  19.091  0.2854  0.4620  0.0007
46355OCT     C192709  11.440   5.263   9.874  0.1697 -0.0701 -0.0532
46355OCT     C292710  11.855   5.206   9.612  0.0833 -0.2665  0.2307
46356OCT     C192711   9.174   5.575   7.123 -0.3599 -0.1366 -0.0150
46356OCT     C292712   9.471   5.505   7.414  0.0405  0.1531  0.0130
46357OCT     C192713   4.736   2.530  14.690 -0.0118  0.1279 -0.0170
46357OCT     C292714   4.878   2.107  14.653  0.1184 -0.1258 -0.3179
46358OCT     C192715  10.726   0.448   0.757 -0.2649  0.0725  0.3052
46358OCT     C292716  11.044   0.333   0.476 -0.0031 -0.0791  0.4376
46359OCT     C192717   0.563  12.307  12.182  0.0960  0.4861  0.4083
46359OCT     C292718   0.271  12.003  11.989 -0.2614 -0.0579  0.2255
46360OCT     C192719  19.173  17.770  23.431 -0.3469 -0.0501  0.1380
46360OCT     C292720  19.193  18.078  23.735  0.2124 -0.2253 -0.1851
46361OCT     C192721   0.937  13.801  12.741  0.1186 -0.0788  0.3305
46361OCT     C292722   0.869  14.188  12.649  0.0580  0.0767 -0.0241
46362OCT     C192723  14.791   3.148   6.270  0.1273 -0.1073  0.1811
46362OCT     C292724  14.884   2.823   5.851 -0.0555 -0.2791 -0.2807
46363OCT     C192725   9.809  17.581  17.180 -0.3076 -0.0954  0.0344
46363OCT     C292726   9.590  17.821  17.463 -0.1225 -0.0618 -0.2618
46364OCT     C192727  20.440   3.730  17.271  0.0916  0.1868 -0.1589
46364OCT     C292728  20.136   3.368  17.358  0.1487  0.1937 -0.3006
46365OCT     C192729  21.899  16.546   6.043 -0.2919  0.2981 -0.1326
46365OCT     C292730  21.512  16.794   6.169  0.3588  0.4358  0.2602
46366OCT     C192731  12.876  14.730  19.802 -0.0622  0.1727  0.1451
46366OCT     C292732  12.634  15.139  19.902 -0.1978 -0.2081 -0.1078
46367OCT     C192733   3.402   7.234   5.036  0.1547  0.3172  0.3044
46367OCT     C292734   3.061   6.891   4.913 -0.0050  0.1363  0.6095
46368OCT     C192735   0.127   3.248  17.925 -0.0454  0.2665  0.0893
46368OCT     C292736   0.390   3.057  18.223  0.3933  0.2106 -0.1237
46369OCT     C192737   5.429  18.432  23.644 -0.1016 -0.0390  0.0157
46369OCT     C292738   5.654  18.082  23.518 -0.1364 -0.2689 -0.0156
46370OCT     C192739   5.147   4.187  10.662  0.0911  0.1067  0.0443
46370OCT     C292740   5.121   4.502  10.307 -0.0774 -0.2505  0.0181
46371OCT     C192741   3.683   0.599  13.745  0.2468  0.2554 -0.1192
46371OCT     C292742   3.826   0.982  13.976  0.1615  0.3363  0.1499
46372OCT     C192743   4.791  13.780   5.973 -0.0467 -0.0648  0.1397
46372OCT     C292744   5.129  14.093   6.063 -0.0312 -0.2573 -0.3973
46373OCT     C192745  10.038   0.339   5.576 -0.0208 -0.0827 -0.0775
46373OCT     C292746  10.256  23.670   5.501 -0.0073 -0.1231  0.3900
46374OCT     C192747   4.683   6.660  15.669 -0.0288  0.1479  0.2468
46374OCT     C292748   4.782   6.412  15.280 -0.0601  0.3974  0.2706
46375OCT     C192749  12.792   5.200   7.517  0.0112  0.0147  0.0341
46375OCT     C292750  12.632   4.784   7.291  0.1344  0.3062 -0.0217
46376OCT     C192751   5.599   2.221   3.187  0.1263  0.1923  0.0386
46376OCT     C292752   5.296   2.141   3.549  0.1792  0.1149  0.4136
46377OCT     C192753   8.098  21.296  22.315 -0.0029  0.0541 -0.0504
46377OCT     C292754   7.873  21.141  21.902 -0.1155  0.0092  0.1887
46378OCT     C192755  20.792   0.098   3.158  0.0392 -0.1651  0.1242
46378OCT     C292756  21.100  23.624   3.389  0.1357 -0.0492 -0.0817
46379OCT     C192757   8.867  23.380  18.879 -0.0626 -0.0501  0.0694
46379OCT     C292758   9.106  23.685  19.136  0.0132 -0.0879 -0.1049
46380OCT     C192759   2.645  17.630   1.404 -0.1104  0.0995 -0.1283
46380OCT     C292760   3.035  17.615   1.180 -0.1576 -0.0496 -0.0668
46381OCT     C192761  19.324   9.968  15.891 -0.1211 -0.0859 -0.0048
46381OCT     C292762  19.524  10.357  15.751  0.1270 -0.0161  0.1141
46382OCT     C192763  14.876  18.566  18.148 -0.0149  0.0322 -0.0638
46382OCT     C292764  14.938  19.030  18.257 -0.0150  0.0077  0.0824
46383OCT     C192765   4.372  10.814   2.426 -0.3147  0.3087 -0.0117
46383OCT     C292766   4.374  10.384   2.436 -0.0529  0.0127  0.2062
46384OCT     C192767  17.246   5.810  18.747  0.0559 -0.1784 -0.1712
46384OCT     C292768  16.850   6.025  18.811 -0.0461 -0.1529 -0.0213
46385OCT     C192769  17.415   0.469  10.179  0.0782  0.1221  0.0222
46385OCT     C292770  17.438   0.842  10.442  0.3136  0.2390  0.0715
46386OCT     C192771  20.310  20.822  14.942  0.2136  0.1952 -0.1409
46386OCT     C292772  20.228  20.376  14.731  0.0480  0.0215  0.0187
46387OCT     C192773   7.888   8.615  10.608 -0.0463 -0.0507 -0.1882
46387OCT     C292774   7.450   8.814  10.648  0.0778  0.1059  0.0194
46388OCT     C192775  20.962   7.701  19.004  0.2587 -0.2102  0.1029
46388OCT     C292776  20.636   8.060  18.926 -0.1638 -0.0470  0.1624
46389OCT     C192777  11.207   9.669   7.588 -0.0701  0.0757 -0.3885
46389OCT     C292778  11.127   9.263   7.727  0.2512  0.2271 -0.3161
46390OCT     C192779  19.948   8.714  14.434  0.0249  0.1351 -0.0869
46390OCT     C292780  20.347   8.803  14.649  0.1142 -0.2673 -0.2759
46391OCT     C192781  18.667   5.845  16.289 -0.0699 -0.1118  0.0184
46391OCT     C292782  18.621   5.376  16.284 -0.2062 -0.1016  0.0967
46392OCT     C192783  11.170   2.877  23.711  0.1315  0.2490 -0.1693
46392OCT     C292784  10.669   2.883   0.043  0.0131  0.3282  0.0063
46393OCT     C192785   8.856  18.787   7.812  0.1606 -0.1781  0.1095
46393OCT     C292786   9.085  19.181   7.715 -0.0998 -0.3934  0.3336
46394OCT     C192787   0.013   9.622  19.980  0.0224  0.1292  0.0783
46394OCT     C292788  23.388   9.919  19.808  0.0442 -0.0993  0.2721
46395OCT     C192789  17.132  11.545   1.112  0.1445  0.1015  0.2006
46395OCT     C292790  17.053  11.298   1.503 -0.3666 -0.0614 -0.2047
46396OCT     C192791  17.797   1.204  19.289  0.2751  0.2465  0.1152
46396OCT     C292792  18.019   1.221  19.705 -0.2657  0.4276  0.4948
46397OCT     C192793  13.963  21.073   6.149  0.2340 -0.0648 -0.0842
46397OCT     C292794  14.219  21.429   6.054 -0.0800 -0.5050  0.0452
46398OCT     C192795  14.131  16.282   4.594  0.2506 -0.0485  0.2773
46398OCT     C292796  14.558  16.409   4.515  0.0214 -0.0995 -0.2500
46399OCT     C192797   2.036  15.612  19.501  0.1862  0.0671  0.4481
46399OCT     C292798   2.124  15.277  19.155  0.1373  0.1361 -0.0695
46400OCT     C192799  12.361  22.749  22.074 -0.3505  0.0584 -0.2718
46400OCT     C292800  12.615  23.071  21.845 -0.0173 -0.0250  0.0624
46401OCT     C192801  23.097   3.100  20.010 -0.0513 -0.0502  0.0147
46401OCT     C292802  22.799   3.418  20.192 -0.0393 -0.0770  0.2839
46402OCT     C192803  22.068  13.769  15.932 -0.3511  0.2014 -0.1040
46402OCT     C292804  21.694  13.495  15.970  0.2995  0.2859  0.0676
46403OCT     C192805  20.152  16.336   0.927  0.1147  0.3256  0.2423
46403OCT     C292806  20.488  16.452   0.585 -0.0632  0.1179  0.0803
46404OCT     C192807  22.600   3.717  19.868  0.1648 -0.1741 -0.1611
46404OCT     C292808  22.970   3.933  20.075  0.3091  0.2281  0.1523
46405OCT     C192809  11.310  23.493  21.940 -0.2078 -0.1326  0.2414
46405OCT     C292810  11.293  23.729  22.333  0.0904 -0.6441  0.1233
46406OCT     C192811  14.720   6.136  10.576  0.0317 -0.4018 -0.2019
46406OCT     C292812  14.936   6.325  10.189 -0.0640  0.2263 -0.2645
46407OCT     C192813   8.589  11.298   3.435 -0.3240 -0.0848  0.1187
46407OCT     C292814   8.954  11.365   3.143  0.4718  0.0148  0.1184
46408OCT     C192815   5.225   9.776  12.983  0.1692 -0.3077 -0.0625
46408OCT     C292816   4.976   9.842  13.311 -0.0538 -0.0974  0.4364
46409OCT     C192817  12.557   5.115   9.658  0.2550  0.4754  0.0355
46409OCT     C292818  12.619   5.093  10.098 -0.0807 -0.5717 -0.1443
46410OCT     C192819  23.331   4.189  15.075  0.2178 -0.3030 -0.1567
46410OCT     C292820  23.293   3.757  14.946 -0.0301  0.3157 -0.1319
46411OCT     C192821  10.995   2.742  20.310 -0.3075 -0.0670 -0.2395
46411OCT     C292822  10.851   3.139  20.057  0.2685 -0.2258  0.0850
46412OCT     C192823  22.451  18.716   5.341  0.1083 -0.4321 -0.1682
46412OCT     C292824  22.624  18.528   5.696 -0.1134 -0.1605  0.0164
46413OCT     C192825  11.211  17.912  16.251  0.0455  0.0860  0.1588
46413OCT     C292826  10.963  18.181  15.979  0.0159 -0.0645 -0.1236
46414OCT     C192827  14.267  20.137  16.351 -0.0221  0.1960 -0.1398
46414OCT     C292828  13.970  19.926  16.067 -0.1090 -0.0328 -0.1315
46415OCT     C192829  17.439  13.599  10.630 -0.0413 -0.1695  0.0763
46415OCT     C292830  17.117  13.315  10.762 -0.1579 -0.4531 -0.1277
46416OCT     C192831  15.912  15.154  13.732 -0.1777 -0.2266 -0.2704
46416OCT     C292832  15.835  15.618  13.624 -0.1627 -0.0803  0.0431
46417OCT     C192833   8.310   0.577   9.342  0.0430  0.1302  0.0322
46417OCT     C292834   8.571   0.642   9.753 -0.0126  0.1101  0.0313
46418OCT     C192835   3.269  16.960  10.614  0.3795  0.3734 -0.3095
46418OCT     C292836   3.352  16.655  10.975 -0.2218 -0.2500  0.0394
46419OCT     C192837  19.352  13.614  16.413  0.0193  0.2676 -0.1617
46419OCT     C292838  19.112  13.431  16.780 -0.2668 -0.2732 -0.0355
46420OCT     C192839   6.711   4.814   5.722  0.0859  0.2920  0.0062
46420OCT     C292840   6.257   4.831   5.755  0.3359 -0.1604 -0.0661
46421OCT     C192841   7.649   1.984   3.206  0.2850  0.0136 -0.1090
46421OCT     C292842   7.357   2.099   3.585 -0.0669 -0.0285  0.1324
46422OCT     C192843  10.229  19.574  22.257  0.0038  0.1698 -0.1638
46422OCT     C292844   9.788  19.557  22.343  0.0864  0.0831 -0.2818
46423OCT     C192845   2.911   3.635  11.066 -0.1029 -0.0912 -0.2981
46423OCT     C292846   2.462   3.645  11.181  0.0760 -0.1649  0.3035
46424OCT     C192847   1.568   9.949  11.579 -0.0637  0.2112 -0.0026
46424OCT     C292848   1.930   9.910  11.951 -0.1003 -0.0671 -0.0249
46425OCT     C192849  13.281  19.134  11.040 -0.2116 -0.3420 -0.4167
46425OCT     C292850  13.234  18.697  11.180 -0.3571 -0.1216  0.0008
46426OCT     C192851  18.986   4.148   5.265  0.1329  0.1752  0.2200
46426OCT     C292852  19.312   4.487   5.170 -0.5767 -0.1981  0.1456
46427OCT     C192853  16.529   3.578   7.118  0.0427  0.3265 -0.0319
46427OCT     C292854  16.059   3.677   7.171 -0.3672  0.0950  0.1042
46428OCT     C192855  13.060  18.959   5.104  0.4589  0.2462  0.1999
46428OCT     C292856  12.633  19.011   5.251  0.2316 -0.0471 -0.1870
46429OCT     C192857  16.519   0.339  12.771  0.0845  0.2305 -0.2486
46429OCT     C292858  16.259   0.128  13.137 -0.1315 -0.0145 -0.0905
46430OCT     C192859  14.977   8.961  19.568  0.0295  0.0293  0.2814
46430OCT     C292860  14.656   9.342  19.576 -0.0545 -0.3746  0.1921
46431OCT     C192861  19.556   8.676  15.868  0.2141 -0.0877  0.1685
46431OCT     C292862  19.181   8.482  15.742 -0.1662  0.0680  0.1188
46432OCT     C192863  18.598   1.591   8.463  0.3325 -0.1111  0.1170
46432OCT     C292864  18.933   1.614   8.173  0.1775  0.0381 -0.0943
46433OCT     C192865  19.674   0.415  23.671  0.1241 -0.1881  0.0165
46433OCT     C292866  19.877   0.178  23.381  0.0402  0.1156 -0.0296
46434OCT     C192867   4.703  22.107  15.969  0.0897  0.0114 -0.1733
46434OCT     C292868   4.892  22.220  16.371  0.1925 -0.4129  0.2715
46435OCT     C192869  18.135   5.921  10.850  0.2624  0.0125 -0.1818
46435OCT     C292870  17.745   6.161  10.640 -0.5074  0.0869  0.1828
46436OCT     C192871   7.329  13.993   1.359  0.2925 -0.2505  0.0372
46436OCT     C292872   7.395  13.639   1.692 -0.1719  0.0604 -0.3102
46437OCT     C192873   5.514  14.068  11.641 -0.0095  0.1030  0.4441
46437OCT     C292874   5.817  13.707  11.681 -0.1378  0.2157 -0.0946
46438OCT     C192875  12.437   1.698  13.551 -0.2949 -0.1200  0.0093
46438OCT     C292876  12.176   1.655  13.160 -0.0127 -0.0197  0.0144
46439OCT     C192877   4.221  14.813   2.200  0.0823  0.3477 -0.1354
46439OCT     C292878   4.588  14.645   1.953  0.3784 -0.0441  0.2405
46440OCT     C192879  10.130   3.065   4.064  0.4802 -0.2377  0.1997
46440OCT     C292880  10.317   2.943   4.469  0.1282  0.0601 -0.0206
46441OCT     C192881   1.244   3.017  18.562  0.0154 -0.0856 -0.2643
46441OCT     C292882   1.074   3.218  18.191  0.1461 -0.0303  0.0926
46442OCT     C192883   7.328  21.275  22.736 -0.0486 -0.3181  0.1866
46442OCT     C292884   7.192  20.850  22.740  0.0917  0.1317  0.2488
46443OCT     C192885  15.292  17.199   8.383 -0.2054 -0.0030  0.0075
46443OCT     C292886  15.721  17.231   8.220  0.1534  0.2402  0.2606
46444OCT     C192887   7.048  11.719   3.285  0.4417 -0.0980  0.3076
46444OCT     C292888   6.898  11.394   3.579 -0.1148  0.0357  0.5240
46445OCT     C192889   4.455   5.195   7.200 -0.5834  0.2693  0.2694
46445OCT     C292890   4.745   5.461   6.926 -0.0116 -0.0101 -0.1691
46446OCT     C192891   6.638  13.418   0.618  0.1838  0.3986  0.0775
46446OCT     C292892   6.501  13.749   0.855  0.2237  0.2789 -0.1421
46447OCT     C192893   5.458   7.604  11.547  0.0332  0.3237 -0.4045
46447OCT     C292894   5.488   7.196  11.799 -0.1033 -0.4759  0.0273
46448OCT     C192895   6.559   0.281  12.380 -0.2470  0.0612  0.2727
46448OCT     C292896   6.364  23.555  12.312 -0.1310  0.1410  0.2405
46449OCT     C192897  22.067   4.478  16.465  0.0230  0.0570 -0.0129
46449OCT     C292898  21.658   4.290  16.608  0.1103  0.1583 -0.2291
46450OCT     C192899  12.532  11.363   3.442  0.2928 -0.0673 -0.0575
46450OCT     C292900  12.624  11.032   3.785 -0.0973  0.0308 -0.1521
46451OCT     C192901   1.761   2.055  20.497  0.0255 -0.3034  0.3411
46451OCT     C292902   2.153   1.814  20.593  0.0427 -0.1653  0.2886
46452OCT     C192903   7.594   3.895   9.731  0.2510  0.6704  0.0174
46452OCT     C292904   8.074   3.671   9.696 -0.2754  0.1313 -0.0229
46453OCT     C192905  19.027  15.073   0.420  0.0552  0.2241 -0.0054
46453OCT     C292906  18.632  14.776   0.511  0.1354  0.0056 -0.1174
46454OCT     C192907  18.185   7.997  10.132 -0.0185 -0.3779  0.0236
46454OCT     C292908  17.717   7.891  10.110 -0.0437 -0.2208  0.0772
46455OCT     C192909  12.452  16.944  22.595 -0.0074 -0.3566  0.5195
46455OCT     C292910  12.397  16.492  22.401 -0.0518  0.1564  0.1854
46456OCT     C192911  14.972  21.879  20.092 -0.0790  0.1997  0.3522
46456OCT     C292912  14.815  21.596  20.500 -0.2668 -0.3907  0.0278
46457OCT     C192913  17.774  10.991  21.127  0.0292  0.1391  0.0904
46457OCT     C292914  17.947  11.360  21.359 -0.0513  0.5632  0.1704
46458OCT     C192915  17.410  23.632   1.252  0.0972  0.2604 -0.1962
46458OCT     C292916  17.543  23.195   1.417  0.0369  0.1626 -0.2728
46459OCT     C192917  10.244   7.447  18.277 -0.1546  0.0932 -0.3487
46459OCT     C292918  10.367   7.650  17.870 -0.2865 -0.4641  0.2117
46460OCT     C192919  22.095  19.851   9.153 -0.4155  0.2541 -0.2748
46460OCT     C292920  22.235  19.906   8.709  0.0467  0.0249  0.0127
46461OCT     C192921  12.388  18.276  23.499 -0.2968  0.2086 -0.2126
46461OCT     C292922  12.138  18.403  23.158 -0.1860  0.3993 -0.1020
46462OCT     C192923  22.190   2.278  10.492  0.4966  0.0828  0.2034
46462OCT     C292924  22.156   2.643  10.279 -0.1093  0.0705 -0.0027
46463OCT     C192925   9.909  19.677   5.219  0.4248 -0.0703 -0.1138
46463OCT     C292926   9.502  19.406   5.408  0.3505 -0.1112 -0.1093
46464OCT     C192927  23.143   2.629  17.885 -0.1734 -0.0998  0.1916
46464OCT     C292928  22.919   2.336  18.163 -0.1223  0.0429  0.2941
46465OCT     C192929   7.794  11.818  16.697  0.3747  0.0251  0.1963
46465OCT     C292930   7.941  11.703  16.262  0.1317 -0.0931  0.1248
46466OCT     C192931  11.928  21.944   2.881  0.2455 -0.1765 -0.2587
46466OCT     C292932  11.817  21.819   3.273 -0.0732 -0.0756 -0.0844
46467OCT     C192933   0.040   1.973  12.557 -0.0159 -0.0031  0.0046
46467OCT     C292934   0.023   2.384  12.407  0.1130 -0.2060 -0.0440
46468OCT     C192935   0.088  23.343  23.104 -0.0058  0.0760  0.3561
46468OCT     C292936  23.540  23.430  22.742  0.4941  0.1183  0.3325
46469OCT     C192937  10.669  16.483  16.666 -0.2903  0.2173 -0.0190
46469OCT     C292938  11.093  16.380  16.595 -0.0519  0.1444  0.0201
46470OCT     C192939  12.813   0.807  19.677 -0.0823  0.4210  0.2804
46470OCT     C292940  12.327   0.819  19.699  0.1264 -0.0554 -0.3323
46471OCT     C192941   7.312   6.827  12.979 -0.1778 -0.0177 -0.4277
46471OCT     C292942   7.045   7.087  13.295 -0.0545  0.2006 -0.0880
46472OCT     C192943   3.070  11.070  18.699  0.0494  0.1568  0.1875
46472OCT     C292944   3.333  11.460  18.707 -0.0347 -0.3033 -0.0825
46473OCT     C192945   1.009  19.883  19.857 -0.0282 -0.3930  0.1669
46473OCT     C292946   0.688  19.638  20.032  0.4681  0.3487  0.0400
46474OCT     C192947  14.946   7.353   3.020  0.0121  0.0046  0.2281
46474OCT     C292948  14.697   7.251   2.674 -0.0686 -0.2632  0.0737
46475OCT     C192949   8.369   1.189   9.558  0.0572  0.0627  0.0034
46475OCT     C292950   8.087   1.045   9.157 -0.3883 -0.1385  0.1653
46476OCT     C192951  18.286  17.250   6.159  0.1505  0.1183 -0.1789
46476OCT     C292952  18.156  17.019   6.564  0.1903  0.0310 -0.3373
46477OCT     C192953   7.255  13.780  12.094 -0.0914  0.0857 -0.0348
46477OCT     C292954   6.988  14.020  11.809  0.1294 -0.1091  0.3905
46478OCT     C192955  13.322   0.569  16.722  0.1391  0.2538  0.2664
46478OCT     C292956  13.034   0.585  17.085 -0.1401 -0.1884 -0.3210
46479OCT     C192957  14.922  21.500  10.264  0.1310  0.0546  0.3416
46479OCT     C292958  14.691  21.854  10.057  0.0372 -0.0808  0.0435
46480OCT     C192959   6.295  10.081  16.264 -0.4794  0.2569 -0.0367
46480OCT     C292960   6.014  10.462  16.153 -0.2441 -0.1043  0.0227
46481OCT     C192961   8.460   1.656   8.460 -0.1031 -0.0350 -0.2899
46481OCT     C292962   8.751   1.456   8.174 -0.4486 -0.1863 -0.4114
46482OCT     C192963   7.016   8.585  11.093  0.0588 -0.0715  0.0556
46482OCT     C292964   6.820   8.976  11.033  0.1795 -0.2476 -0.0556
46483OCT     C192965  18.963  16.469   7.180 -0.0270 -0.0027 -0.1423
46483OCT     C292966  18.577  16.725   6.996  0.3502 -0.2346 -0.0429
46484OCT     C192967   6.195  17.292   8.154 -0.0523  0.2846 -0.0007
46484OCT     C292968   5.714  17.137   8.346  0.1794  0.2341 -0.1271
46485OCT     C192969   6.403   9.113   2.015 -0.1361  0.5330  0.0156
46485OCT     C292970   6.014   8.778   1.924 -0.0633  0.0245  0.2799
46486OCT     C192971   4.571  13.944   8.584  0.4104  0.0249 -0.0248
46486OCT     C292972   4.169  14.026   8.751 -0.1223 -0.2623 -0.1766
46487OCT     C192973   5.738   3.475  21.397 -0.4005 -0.2853  0.3760
46487OCT     C292974   5.758   3.503  21.815 -0.0600  0.3232 -0.1683
46488OCT     C192975  13.552  16.583   0.380  0.1007  0.2058 -0.0405
46488OCT     C292976  13.337  16.996   0.452 -0.2527 -0.0368 -0.0730
46489OCT     C192977  12.842  19.600  13.655 -0.0851 -0.0366 -0.1078
46489OCT     C292978  12.578  19.510  14.082  0.1345  0.1652  0.0950
46490OCT     C192979   6.090  13.780   5.341 -0.2138 -0.0062  0.1122
46490OCT     C292980   5.887  14.119   5.069  0.3243 -0.3799  0.1139
46491OCT     C192981   3.403  17.796  16.571  0.2020 -0.2748 -0.1628
46491OCT     C292982   3.526  17.931  16.965 -0.0961  0.3317 -0.0219
46492OCT     C192983  22.791  16.742   1.917 -0.0285 -0.0202  0.0843
46492OCT     C292984  22.492  16.968   1.657 -0.1141 -0.2576  0.3357
46493OCT     C192985   9.230  13.209   1.519 -0.3315 -0.2167  0.1630
46493OCT     C292986   9.076  13.507   1.226  0.4907 -0.2875 -0.1319
46494OCT     C192987  10.708   8.947  14.738  0.0883  0.1625  0.1637
46494OCT     C292988  10.875   9.150  14.383  0.2845  0.1361  0.2098
46495OCT     C192989   0.856  13.879   0.324 -0.3916  0.0392 -0.2380
46495OCT     C292990   0.942  13.400   0.163 -0.0711 -0.3948 -0.2267
46496OCT     C192991   4.717  11.741  13.168  0.0016  0.0726 -0.2241
46496OCT     C292992   4.507  12.004  13.460 -0.2443  0.2229  0.2208
46497OCT     C192993  11.842   8.083  23.217 -0.2273  0.2532 -0.2662
46497OCT     C292994  11.723   8.172  23.664 -0.1330  0.2342 -0.1130
46498OCT     C192995   4.706  23.378  11.329 -0.0910  0.3024 -0.0164
46498OCT     C292996   5.109  23.189  11.473  0.0215  0.0129  0.3964
46499OCT     C192997  20.754  19.146  10.074 -0.3026  0.2735 -0.1780
46499OCT     C292998  20.513  19.071   9.734 -0.1440  0.0350 -0.4751
46500OCT     C192999  10.734  19.101   6.472  0.2666  0.0509 -0.0689
46500OCT     C293000  10.811  19.270   6.040  0.0836  0.0865 -0.0527
46501OCT     C193001  17.953   6.934   9.210 -0.3315 -0.1169 -0.2348
46501OCT     C293002  18.197   6.596   9.397 -0.0146 -0.3047 -0.2423
46502OCT     C193003  19.929  16.390  14.220  0.2647  0.0935 -0.1160
46502OCT     C293004  19.680  16.617  14.537 -0.1889 -0.1486 -0.0976
46503OCT     C193005   4.772   7.453  15.923 -0.0475  0.1531 -0.2018
46503OCT     C293006   4.709   7.618  15.451 -0.2220  0.6427  0.6733
46504OCT     C193007   4.384   7.898  17.498 -0.0386  0.1801 -0.1146
46504OCT     C293008   4.254   8.154  17.848  0.0657  0.0009 -0.1162
46505OCT     C193009   0.180  15.003   3.509  0.0050  0.0492 -0.3255
46505OCT     C293010   0.306  15.388   3.732 -0.4892 -0.3817 -0.1228
46506OCT     C193011   5.140   4.192  12.206  0.5655  0.1147 -0.0997
46506OCT     C293012   4.752   4.438  12.024 -0.1359 -0.2479 -0.4222
46507OCT     C193013  15.847  10.589  22.785 -0.1295  0.2117 -0.0745
46507OCT     C293014  15.684  10.171  22.991 -0.0635  0.3069 -0.2607
46508OCT     C193015  23.589   0.364   4.974 -0.0514 -0.1037  0.2540
46508OCT     C293016  23.464   0.023   4.605  0.0217 -0.2227  0.1520
46509OCT     C193017  12.298  20.045   0.076 -0.3672 -0.1271 -0.3835
46509OCT     C293018  12.151  19.622   0.029 -0.1818 -0.1873 -0.0457
46510OCT     C193019  18.964  18.630   9.588  0.2433 -0.1806 -0.4027
46510OCT     C293020  19.401  18.904   9.555  0.2389  0.2444 -0.0517
46511OCT     C193021  13.337  22.169  17.120 -0.0275 -0.1539  0.2058
46511OCT     C293022  13.481  22.015  16.715  0.1920 -0.1203 -0.1114
46512OCT     C193023   7.556   3.798   2.060 -0.0611  0.2215 -0.0646
46512OCT     C293024   7.606   3.344   1.954 -0.0630 -0.3142 -0.2156
46513OCT     C193025   7.666  23.367  14.760 -0.0436 -0.1383 -0.1445
46513OCT     C293026   7.230  23.324  14.886 -0.2437 -0.1842  0.1027
46514OCT     C193027   1.598   3.325   6.307  0.5140 -0.1119 -0.0376
46514OCT     C293028   1.563   3.783   6.172 -0.4271 -0.2459 -0.1649
46515OCT     C193029   2.456  19.987   9.102  0.2063  0.1240  0.0014
46515OCT     C293030   2.142  20.011   8.772 -0.1118 -0.0130 -0.0481
46516OCT     C193031   4.429   5.393  15.743 -0.0195  0.1003  0.0434
46516OCT     C293032   4.786   5.297  15.427 -0.4817  0.1546 -0.1390
46517OCT     C193033   5.670   2.014  19.641 -0.0980 -0.0256  0.1056
46517OCT     C293034   5.633   2.477  19.624 -0.0846  0.4131  0.2227
46518OCT     C193035  12.910   8.994   8.014 -0.3350  0.0994 -0.0386
46518OCT     C293036  12.812   8.751   7.625 -0.1997 -0.0077  0.0837
46519OCT     C193037   8.732   9.292  21.278 -0.2007  0.3069 -0.3535
46519OCT     C293038   9.179   9.104  21.381  0.1409 -0.2743 -0.0005
46520OCT     C193039   6.249  23.677   7.940 -0.1439 -0.2235 -0.0647
46520OCT     C293040   6.378   0.315   7.771 -0.2553 -0.2091 -0.0224
46521OCT     C193041  22.551  22.742  20.492  0.1620  0.1878 -0.0245
46521OCT     C293042  22.604  22.297  20.367  0.0812 -0.0861  0.3394
46522OCT     C193043   6.984  17.261   5.797  0.2779 -0.0904  0.0817
46522OCT     C293044   6.633  17.548   5.923  0.0934 -0.0264 -0.0851
46523OCT     C193045   6.801  10.596  17.559  0.2865 -0.0950 -0.0244
46523OCT     C293046   6.471  10.733  17.279 -0.0525 -0.0312 -0.2868
46524OCT     C193047   7.888   6.095  22.109  0.0635  0.1264  0.1575
46524OCT     C293048   8.252   5.816  22.041  0.0835 -0.1873 -0.0136
46525OCT     C193049  22.618  22.336   5.534 -0.2124 -0.6701 -0.0667
46525OCT     C293050  22.820  21.973   5.257  0.1415 -0.0058  0.4150
46526OCT     C193051  19.481  22.326  13.453 -0.0740  0.0658  0.0787
46526OCT     C293052  19.618  22.203  13.040 -0.1413  0.3081 -0.2112
46527OCT     C193053   0.655  17.658  13.748  0.1606 -0.1730  0.1173
46527OCT     C293054   0.197  17.621  13.794  0.3148  0.2038  0.0335
46528OCT     C193055  14.206   4.157   8.127 -0.1122 -0.0720 -0.1881
46528OCT     C293056  14.532   3.982   7.989 -0.0366 -0.2175 -0.1524
46529OCT     C193057   1.426   3.827  23.357 -0.1912 -0.3928  0.0440
46529OCT     C293058   1.109   3.740  23.657  0.0260 -0.3545  0.3254
46530OCT     C193059  12.450  18.437  22.207 -0.0497 -0.1002 -0.3039
46530OCT     C293060  11.983  18.480  22.394 -0.0653  0.1298 -0.0892
46531OCT     C193061  10.836  20.626  22.603  0.4581  0.0526  0.1462
46531OCT     C293062  10.767  21.078  22.639 -0.1812 -0.4084 -0.3099
46532OCT     C193063  23.579   8.341   5.048 -0.0197 -0.2412 -0.0248
46532OCT     C293064   0.137   8.362   4.748  0.1061  0.0945 -0.0691
46533OCT     C193065   0.566  21.413  18.034 -0.1126  0.1050  0.0481
46533OCT     C293066   0.384  21.715  17.713  0.3169  0.0893  0.0252
46534OCT     C193067  11.660  11.346  19.684  0.0776 -0.2521  0.0757
46534OCT     C293068  11.670  10.895  19.616 -0.0445 -0.1486  0.1463
46535OCT     C193069   4.574   3.018  21.013 -0.1154 -0.1392 -0.0432
46535OCT     C293070   4.917   2.823  21.302  0.3974  0.1672  0.3269
46536OCT     C193071  16.686   1.017  13.439  0.1495  0.4878  0.3847
46536OCT     C293072  16.407   1.369  13.232  0.1519  0.0377 -0.1767
46537OCT     C193073  19.107  21.170  16.411 -0.0714  0.2858  0.3509
46537OCT     C293074  19.405  21.149  16.006  0.0885  0.1429 -0.3978
46538OCT     C193075  20.029   6.858   7.165  0.2011 -0.0238 -0.0216
46538OCT     C293076  20.245   7.066   7.551  0.0737  0.4565  0.1462
46539OCT     C193077   2.679   4.699   8.534  0.0914 -0.0964 -0.3018
46539OCT     C293078   2.558   5.077   8.276 -0.0270  0.1501  0.0545
46540OCT     C193079   9.647   1.153   5.754  0.0112 -0.2740 -0.1834
46540OCT     C293080   9.799   1.565   5.852 -0.0724 -0.3317 -0.0426
46541OCT     C193081   3.589   3.268   2.726 -0.0322  0.1759  0.1937
46541OCT     C293082   3.686   2.800   2.736 -0.1276  0.0165 -0.0772
46542OCT     C193083  13.917  13.204   7.572 -0.3606  0.0818 -0.1378
46542OCT     C293084  14.277  13.030   7.260  0.2477  0.1867 -0.4821
46543OCT     C193085  19.159  23.270   8.528 -0.0375  0.0673  0.1687
46543OCT     C293086  18.809  23.366   8.337  0.1520  0.0566 -0.0955
46544OCT     C193087  18.125   1.345   5.447 -0.1391  0.1083  0.0407
46544OCT     C293088  18.533   1.340   5.676 -0.0249  0.1777  0.0910
46545OCT     C193089  18.965  18.777  13.313 -0.2056 -0.1536 -0.6491
46545OCT     C293090  18.563  18.616  13.567  0.2388  0.0704  0.4572
46546OCT     C193091   2.313  11.856   7.106 -0.0520  0.1789 -0.0460
46546OCT     C293092   2.001  11.767   7.426  0.2007  0.3779 -0.0857
46547OCT     C193093  13.654   3.704  10.925  0.0433  0.1223  0.0910
46547OCT     C293094  13.498   3.331  10.714 -0.1122 -0.2167 -0.0027
46548OCT     C193095   2.396   1.228  13.070 -0.3389  0.1299 -0.0626
46548OCT     C293096   2.557   1.589  12.770  0.1046 -0.2925 -0.0004
46549OCT     C193097  11.135  19.147  21.104 -0.4453 -0.1598 -0.2316
46549OCT     C293098  10.789  19.429  20.982 -0.2373  0.2494 -0.0972
46550OCT     C193099  13.702  11.211  22.625 -0.4280 -0.4272  0.2069
46550OCT     C293100  13.251  11.110  22.661 -0.1491  0.5089 -0.0649
46551OCT     C193101  19.810  21.892  20.357 -0.0984 -0.3752  0.0661
46551OCT     C293102  19.377  21.807  20.340  0.0950  0.3425  0.0396
46552OCT     C193103   7.173  16.920  11.613  0.1222 -0.1990 -0.3348
46552OCT     C293104   7.419  16.591  11.370 -0.1273  0.1484 -0.1621
46553OCT     C193105   1.778  19.099  15.609 -0.0827  0.2488  0.1909
46553OCT     C293106   1.803  18.838  15.168  0.1889 -0.1519 -0.0322
46554OCT     C193107  23.063  11.617  16.166  0.4053 -0.2058 -0.2087
46554OCT     C293108  22.678  11.400  16.351 -0.0308  0.1515  0.4377
46555OCT     C193109  20.857  15.196   5.229  0.1857  0.1556  0.2024
46555OCT     C293110  21.140  15.542   5.354  0.0192 -0.0387  0.0294
46556OCT     C193111  19.076   0.743  11.421  0.0353 -0.2409 -0.0797
46556OCT     C293112  18.906   0.368  11.256 -0.0267 -0.0675  0.2556
46557OCT     C193113  22.062  15.642  21.477 -0.1576  0.4095  0.0294
46557OCT     C293114  22.122  15.262  21.779  0.2563 -0.0526 -0.1580
46558OCT     C193115  15.583   5.330  18.404  0.2532 -0.0121  0.4689
46558OCT     C293116  15.414   4.877  18.311 -0.1066  0.1812  0.0696
46559OCT     C193117  13.237   6.297  18.233  0.1993 -0.1524 -0.0657
46559OCT     C293118  12.814   6.173  18.210  0.0846  0.3941 -0.0825
46560OCT     C193119  19.593   5.961  11.976 -0.0644 -0.4785  0.2279
46560OCT     C293120  19.795   5.492  11.961  0.1005 -0.3072  0.1803
46561OCT     C193121  10.953  10.573  15.662  0.1693 -0.0417  0.1662
46561OCT     C293122  11.294  10.346  15.401 -0.0548 -0.0837 -0.2414
46562OCT     C193123  14.001  18.968  15.128  0.0733 -0.3461 -0.2937
46562OCT     C293124  14.242  18.829  15.553 -0.0603 -0.2917  0.2006
46563OCT     C193125  23.377   5.991   0.979  0.2134  0.0443 -0.0610
46563OCT     C293126  22.945   6.013   0.794 -0.0179  0.4772  0.5423
46564OCT     C193127  16.033   8.557  13.440 -0.2447 -0.2573 -0.0140
46564OCT     C293128  15.899   8.616  13.846  0.2923 -0.0609  0.2149
46565OCT     C193129  17.887  13.709  19.352  0.0784  0.0344 -0.0307
46565OCT     C293130  17.902  14.130  19.243  0.6757 -0.0474 -0.3138
46566OCT     C193131  22.884   4.973  13.864  0.0668 -0.2247  0.2458
46566OCT     C293132  22.680   5.343  13.913  0.0977  0.1674  0.0519
46567OCT     C193133  18.774   6.273  16.021 -0.0236 -0.0240  0.2895
46567OCT     C293134  18.586   5.931  15.734  0.0574 -0.0935  0.0292
46568OCT     C193135  13.346   3.008   8.967 -0.6247 -0.1383 -0.1159
46568OCT     C293136  13.595   3.011   8.536 -0.2347  0.1907  0.2837
46569OCT     C193137  21.704  21.613  21.263  0.1451 -0.1985 -0.0253
46569OCT     C293138  21.342  21.577  21.568 -0.1382  0.1020 -0.0911
46570OCT     C193139  18.038  17.973  18.786  0.0193  0.0839  0.1173
46570OCT     C293140  17.616  18.009  18.857 -0.0962 -0.1708  0.3880
46571OCT     C193141  21.658   0.087  16.691 -0.0521 -0.1678  0.1289
46571OCT     C293142  21.424   0.477  16.454  0.1599  0.4403 -0.1003
46572OCT     C193143  13.249  17.169  13.248 -0.0520  0.2239  0.6731
46572OCT     C293144  13.384  17.600  13.362 -0.3782 -0.0571 -0.0573
46573OCT     C193145   2.641   4.564  11.362  0.2428 -0.1478 -0.3490
46573OCT     C293146   2.534   5.013  11.551 -0.0134  0.1449  0.4074
46574OCT     C193147  22.889  23.716   6.518  0.0865  0.0866 -0.3865
46574OCT     C293148  23.052   0.106   6.075  0.2455  0.2575 -0.2400
46575OCT     C193149  18.985   1.247   6.838 -0.3316  0.4381  0.0868
46575OCT     C293150  19.073   0.799   7.053 -0.1873 -0.0562  0.2329
46576OCT     C193151   7.924  20.906  20.900  0.1249 -0.0381  0.1209
46576OCT     C293152   7.769  21.116  20.480  0.0530  0.1694  0.2352
46577OCT     C193153  18.612  13.609   0.251  0.0687  0.4202  0.4238
46577OCT     C293154  18.896  13.895   0.488 -0.0934 -0.0064 -0.2459
46578OCT     C193155  23.664  11.243   9.284  0.4402 -0.0602  0.2739
46578OCT     C293156   0.257  11.094   8.936  0.0127  0.0157  0.0589
46579OCT     C193157  23.171   8.081  15.235  0.1262 -0.0411 -0.0786
46579OCT     C293158  23.333   7.828  15.587 -0.1034  0.0598  0.2680
46580OCT     C193159   5.052  13.501  23.218  0.2067  0.3864  0.1479
46580OCT     C293160   5.004  12.979  23.328  0.1771 -0.1321  0.0077
46581OCT     C193161  21.358  23.525  18.031 -0.1495 -0.0692  0.0448
46581OCT     C293162  21.152  23.236  18.284  0.1824  0.4041 -0.5327
46582OCT     C193163  16.896   7.332   1.558  0.1072  0.1365 -0.2928
46582OCT     C293164  16.866   7.106   2.023 -0.0151 -0.4641 -0.1733
46583OCT     C193165  16.341   7.476  10.770  0.1520  0.2474 -0.3105
46583OCT     C293166  16.275   7.036  10.600  0.0559 -0.1596 -0.0449
46584OCT     C193167   9.016   0.222  13.901 -0.0910 -0.0063  0.3309
46584OCT     C293168   8.841   0.285  14.335  0.4066  0.2190  0.2947
46585OCT     C193169  10.577   8.139  22.491  0.1057  0.3290 -0.3117
46585OCT     C293170  10.371   8.450  22.801  0.5014  0.0321 -0.0162
46586OCT     C193171   7.136  19.779   7.995  0.1404 -0.0402 -0.2007
46586OCT     C293172   7.094  19.397   8.278  0.3075  0.1797 -0.1184
46587OCT     C193173   8.492  10.923  21.813  0.0866 -0.1198 -0.4041
46587OCT     C293174   8.036  10.863  21.824 -0.0056  0.3465  0.1288
46588OCT     C193175  21.540   7.791  11.643  0.1092 -0.1625 -0.1259
46588OCT     C293176  21.324   8.067  11.306 -0.0367 -0.0956  0.0740
46589OCT     C193177   3.490  13.028  19.657  0.2761 -0.0019  0.2308
46589OCT     C293178   3.519  13.386  19.933 -0.2918  0.2489 -0.0568
46590OCT     C193179  18.457  11.916  20.059 -0.2517  0.0132 -0.0772
46590OCT     C293180  18.636  11.762  19.604  0.0600 -0.4696 -0.1459
46591OCT     C193181   7.993  19.076  11.793  0.2420 -0.1245  0.0846
46591OCT     C293182   7.646  19.299  11.572 -0.1651 -0.0187  0.1503
46592OCT     C193183   0.267  20.688  16.984 -0.0206 -0.1450  0.1699
46592OCT     C293184   0.202  20.915  17.486  0.1747 -0.3144  0.1705
46593OCT     C193185  15.049  11.123   7.874 -0.0113 -0.0177  0.0264
46593OCT     C293186  14.900  11.214   7.475  0.0090 -0.1789 -0.3424
46594OCT     C193187  10.035   3.880  17.566 -0.3884 -0.1177  0.0557
46594OCT     C293188  10.063   3.420  17.506 -0.0438  0.0634 -0.1304
46595OCT     C193189  19.187   9.938   9.077 -0.0991  0.2413 -0.1863
46595OCT     C293190  18.721   9.886   9.061 -0.2445 -0.1365  0.2406
46596OCT     C193191   5.199  22.188  20.632 -0.2314  0.0507 -0.0328
46596OCT     C293192   5.535  22.118  20.319 -0.2008 -0.1772  0.0543
46597OCT     C193193  22.230   9.021  20.650  0.0422  0.1184 -0.0152
46597OCT     C293194  21.856   9.206  20.468  0.3999 -0.0959 -0.0907
46598OCT     C193195  22.664  18.321  11.766 -0.0118  0.1589  0.5272
46598OCT     C293196  22.787  17.949  11.596 -0.3028 -0.1760  0.1336
46599OCT     C193197  13.520  21.163  16.786  0.1060 -0.3269 -0.0411
46599OCT     C293198  13.383  21.003  17.190  0.3789 -0.1730  0.1943
46600OCT     C193199  14.986   2.530  12.886  0.3362 -0.0783  0.2386
46600OCT     C293200  15.310   2.384  12.605  0.1829 -0.0618  0.3242
46601OCT     C193201  10.386   9.772   4.026 -0.2360 -0.2203 -0.1816
46601OCT     C293202  10.444   9.437   4.350 -0.1206  0.1483  0.0626
46602OCT     C193203  10.755   3.712  22.809  0.1664  0.0216 -0.3082
46602OCT     C293204  10.585   3.901  22.463 -0.2180  0.1440  0.0678
46603OCT     C193205   7.665  13.706  15.851 -0.1759  0.3212  0.0807
46603OCT     C293206   7.716  14.116  15.702 -0.0151  0.0175  0.1788
46604OCT     C193207  12.959   2.013   9.216 -0.1340 -0.2112  0.1683
46604OCT     C293208  13.067   2.000   8.756  0.0301 -0.0951  0.0561
46605OCT     C193209  13.594  23.604   5.160 -0.3713 -0.2096  0.0847
46605OCT     C293210  13.453   0.222   4.830  0.1030  0.1185 -0.1982
46606OCT     C193211  11.210   5.986  17.788  0.4511 -0.0587  0.0266
46606OCT     C293212  11.459   6.367  17.846  0.0329 -0.1305  0.3676
46607OCT     C193213   1.488  21.739   1.421 -0.0306  0.3139 -0.2305
46607OCT     C293214   1.805  21.969   1.571  0.2805 -0.0952 -0.1437
46608OCT     C193215   8.648  14.122  19.890 -0.0324  0.3386 -0.0013
46608OCT     C293216   8.340  14.422  20.071  0.2444 -0.2358  0.2226
46609OCT     C193217  22.780  22.741   2.949 -0.1279 -0.0521 -0.0087
46609OCT     C293218  23.037  23.047   2.779  0.1657  0.0021  0.2217
46610OCT     C193219   3.119   9.444   6.374 -0.0794  0.1800  0.3112
46610OCT     C293220   3.348   9.214   6.025 -0.0999 -0.1264 -0.0151
46611OCT     C193221   9.479   0.608  14.930 -0.3991 -0.0025 -0.0944
46611OCT     C293222   9.484   1.032  14.752  0.1844 -0.0302  0.0377
46612OCT     C193223  19.394   7.859  22.193 -0.0479 -0.1064  0.0034
46612OCT     C293224  19.477   7.688  22.624 -0.2420 -0.3190  0.2233
46613OCT     C193225   8.989  21.361  13.774 -0.0024 -0.1022  0.1234
46613OCT     C293226   9.037  21.422  13.328  0.2953 -0.1635  0.0229
46614OCT     C193227  20.971   4.977  18.057 -0.0675 -0.2683  0.0005
46614OCT     C293228  21.181   5.114  17.647  0.1227 -0.1633  0.1948
46615OCT     C193229  22.910  16.590  11.537 -0.0507  0.2775  0.0226
46615OCT     C293230  23.166  16.961  11.690 -0.1925  0.0610  0.4160
46616OCT     C193231   0.777   1.349  10.380  0.0900 -0.0980 -0.1434
46616OCT     C293232   1.000   1.319   9.974  0.0254  0.0766  0.1836
46617OCT     C193233   0.942   0.812  10.968  0.0853 -0.2204  0.0804
46617OCT     C293234   0.565   0.999  10.765 -0.2338  0.1273  0.2091
46618OCT     C193235  20.628  23.056  17.307  0.1172  0.2283 -0.4292
46618OCT     C293236  20.601  22.782  17.673 -0.3229 -0.1673  0.2378
46619OCT     C193237  11.445   8.895   9.314 -0.2888 -0.4292 -0.1665
46619OCT     C293238  11.889   9.058   9.341 -0.3508  0.0319  0.2409
46620OCT     C193239  13.334   0.050   1.512 -0.1650  0.0022 -0.0956
46620OCT     C293240  12.959   0.313   1.403  0.1941  0.0932  0.0242
46621OCT     C193241  16.865  12.316  14.485 -0.1815  0.0537 -0.1604
46621OCT     C293242  16.433  12.290  14.557  0.2187  0.3896  0.0737
46622OCT     C193243  18.073  12.805  19.728 -0.2151 -0.1676 -0.1243
46622OCT     C293244  18.235  12.318  19.866  0.2089 -0.1415  0.1509
46623OCT     C193245  14.059  12.904  17.077 -0.3765 -0.4327  0.1549
46623OCT     C293246  14.268  13.122  17.430 -0.3213 -0.4037 -0.1472
46624OCT     C193247  13.822   0.355  19.519 -0.1290  0.1824  0.2983
46624OCT     C293248  13.834   0.252  19.076  0.0029 -0.1721 -0.2174
46625OCT     C193249   1.916  20.063  17.330  0.0772 -0.3407  0.0954
46625OCT     C293250   2.022  19.657  17.172  0.0611 -0.1182  0.1157
46626OCT     C193251   3.099   1.566  21.435  0.4430 -0.0173  0.4580
46626OCT     C293252   3.032   1.776  21.039 -0.4938  0.2687  0.3966
46627OCT     C193253   5.221  19.622  11.907  0.5188  0.2278  0.0033
46627OCT     C293254   4.788  19.671  11.789 -0.1574  0.1971  0.1614
46628OCT     C193255  13.369   8.375   9.687 -0.1649 -0.1564  0.0049
46628OCT     C293256  13.171   8.754   9.834  0.0851  0.1071 -0.4559
46629OCT     C193257  10.888   5.422   9.011 -0.3717  0.0852  0.1999
46629OCT     C293258  11.097   5.302   8.611  0.0193 -0.0235  0.0085
46630OCT     C193259   0.318   6.353   9.404 -0.1458  0.0954  0.1501
46630OCT     C293260   0.604   6.757   9.419 -0.1660  0.3443 -0.0453
46631OCT     C193261  10.254   2.989  15.032 -0.5478  0.1825  0.0356
46631OCT     C293262  10.329   3.243  14.681 -0.0522 -0.0619 -0.0039
46632OCT     C193263   6.322  19.815  19.237  0.0461  0.0037  0.0914
46632OCT     C293264   5.868  19.645  19.187 -0.0958  0.0495  0.3499
46633OCT     C193265   5.563   6.548  21.028 -0.0506  0.3585 -0.4319
46633OCT     C293266   5.176   6.824  21.187  0.1152  0.2795  0.2760
46634OCT     C193267  13.070  17.191  23.348  0.3516 -0.2475 -0.1311
46634OCT     C293268  13.359  17.214  23.704  0.0101 -0.1594  0.1716
46635OCT     C193269   7.129  19.246  13.481  0.3704  0.0311 -0.1894
46635OCT     C293270   7.493  19.099  13.194 -0.0655  0.0445 -0.3507
46636OCT     C193271   1.563   6.952  14.435  0.1222 -0.0353 -0.1077
46636OCT     C293272   1.580   7.106  13.990 -0.1664 -0.1083  0.1156
46637OCT     C193273   5.021  13.147   0.586  0.1233  0.3537 -0.3690
46637OCT     C293274   5.184  12.862   0.912  0.4836 -0.0216 -0.1873
46638OCT     C193275  12.558  20.067  11.102  0.0219 -0.2446 -0.1878
46638OCT     C293276  12.335  19.672  11.145  0.0372 -0.0380 -0.0608
46639OCT     C193277  13.160  21.457  11.945 -0.0902 -0.0493  0.0412
46639OCT     C293278  13.324  21.848  11.765  0.3941  0.1556  0.1783
46640OCT     C193279   4.125   2.138  16.700  0.0588 -0.0618  0.1220
46640OCT     C293280   4.472   2.261  16.363  0.2531  0.2628 -0.1594
46641OCT     C193281  10.450  14.164   8.446 -0.1177  0.1585 -0.0189
46641OCT     C293282  10.386  14.554   8.181 -0.2792 -0.0334  0.0585
46642OCT     C193283  23.006  16.732  17.619  0.1376  0.1047 -0.1389
46642OCT     C293284  22.915  17.113  17.467  0.1215  0.2148 -0.1736
46643OCT     C193285   8.640  18.229  13.285  0.0583  0.0593  0.0738
46643OCT     C293286   8.416  17.910  13.448  0.1545 -0.2515 -0.1018
46644OCT     C193287  10.226   8.168  18.353  0.4763  0.0254 -0.1567
46644OCT     C293288  10.519   7.870  18.276 -0.0963  0.3640  0.0756
46645OCT     C193289  12.216  14.758  11.621 -0.0823 -0.0269 -0.1197
46645OCT     C293290  12.470  14.713  12.018  0.1192  0.0014  0.2184
46646OCT     C193291   7.999  10.623  19.763  0.2874  0.0639 -0.1583
46646OCT     C293292   7.691  10.424  19.464  0.0095 -0.4174  0.0669
46647OCT     C193293  17.245  22.238  17.547 -0.0038  0.0567 -0.1172
46647OCT     C293294  17.433  22.300  17.942 -0.3260 -0.0695 -0.0826
46648OCT     C193295  16.826  13.864   3.153 -0.0280 -0.1102  0.1580
46648OCT     C293296  16.499  13.704   3.376 -0.1503  0.2684  0.0827
46649OCT     C193297   8.428  10.850  15.960 -0.0685 -0.1942 -0.2975
46649OCT     C293298   8.188  11.142  16.210 -0.2153  0.2159  0.0496
46650OCT     C193299  15.282  13.813  10.187 -0.0621  0.0330 -0.0333
46650OCT     C293300  15.150  13.710  10.645 -0.0895  0.1160 -0.1273
46651OCT     C193301   9.445   1.211  21.804  0.0635 -0.1997 -0.3941
46651OCT     C293302   9.559   1.536  22.133  0.0635 -0.1383 -0.3809
46652OCT     C193303  10.094   4.124  20.006  0.0067 -0.0536 -0.2681
46652OCT     C293304  10.435   3.891  20.193  0.1041 -0.1284  0.0416
46653OCT     C193305   2.873  12.750   9.875 -0.2090 -0.2240 -0.1384
46653OCT     C293306   3.212  12.414  10.021  0.0773 -0.4563 -0.0831
46654OCT     C193307   5.379  10.701  11.244 -0.0240  0.1567 -0.1163
46654OCT     C293308   5.452  11.062  11.549 -0.5727 -0.3202  0.0524
46655OCT     C193309  14.149  10.353  13.534  0.0231 -0.2716  0.1558
46655OCT     C293310  13.803  10.178  13.813 -0.3609 -0.2063  0.2636
46656OCT     C193311  19.084   6.456  15.517  0.1048 -0.0498 -0.0969
46656OCT     C293312  18.747   6.790  15.455 -0.1967 -0.3313  0.3366
46657OCT     C193313   0.333   2.869   5.084  0.0269 -0.0651 -0.0669
46657OCT     C293314   0.190   2.652   4.672  0.2454  0.0878 -0.1727
46658OCT     C193315   2.859   3.576  22.751 -0.0940  0.1384  0.2984
46658OCT     C293316   3.032   3.984  22.580  0.2713  0.1045  0.0598
46659OCT     C193317  17.159   5.733   6.603  0.1761 -0.3350 -0.1363
46659OCT     C293318  16.968   5.739   6.197  0.4434  0.2458  0.2533
46660OCT     C193319  14.260  11.106  11.413  0.0885  0.0117 -0.0224
46660OCT     C293320  13.935  11.447  11.499  0.4438  0.3330  0.3969
46661OCT     C193321  10.879  16.321  12.866 -0.0670 -0.1964 -0.1697
46661OCT     C293322  10.664  15.975  13.007  0.3716  0.0202 -0.0078
46662OCT     C193323   6.530  13.548  16.507 -0.1543 -0.1299 -0.0288
46662OCT     C293324   6.754  13.288  16.207 -0.2507  0.0520 -0.0682
46663OCT     C193325  21.356  13.222  20.145 -0.1365 -0.0197 -0.1305
46663OCT     C293326  21.559  12.937  20.451  0.1608 -0.1184 -0.1447
46664OCT     C193327  16.989   2.131   9.098  0.1666  0.0680 -0.0927
46664OCT     C293328  16.592   2.053   9.260  0.0391  0.0261 -0.0880
46665OCT     C193329  16.281   2.929  14.438  0.0600 -0.0249  0.1897
46665OCT     C293330  16.101   2.547  14.273  0.2593 -0.1540  0.3289
46666OCT     C193331  22.713   8.932   4.574  0.1559  0.1155 -0.0528
46666OCT     C293332  22.376   9.041   4.292 -0.1025 -0.5190 -0.1120
46667OCT     C193333   9.924  12.497   3.675 -0.0584  0.0208 -0.1403
46667OCT     C293334  10.429  12.651   3.707  0.5227 -0.3133 -0.0074
46668OCT     C193335   9.605   4.146  14.200  0.3621  0.0528  0.0113
46668OCT     C293336  10.054   4.166  14.044  0.1723  0.1248 -0.3159
46669OCT     C193337   5.095  20.041  16.304  0.0702  0.1838 -0.0209
46669OCT     C293338   4.792  20.313  16.086 -0.3375 -0.0693  0.0323
46670OCT     C193339  22.083  15.218  17.367 -0.2288 -0.0439  0.1221
46670OCT     C293340  22.562  15.256  17.393  0.1094 -0.0572  0.0408
46671OCT     C193341  12.382   4.052  19.761 -0.0210 -0.2238 -0.1338
46671OCT     C293342  12.638   4.109  19.384 -0.4540  0.0549  0.1345
46672OCT     C193343   8.780   5.270   4.395  0.3694  0.1383 -0.2614
46672OCT     C293344   8.543   5.355   4.781  0.3051  0.2157  0.1832
46673OCT     C193345  18.701  17.177  23.544  0.1873  0.0164  0.3563
46673OCT     C293346  18.360  17.161   0.132 -0.1616 -0.3889  0.1422
46674OCT     C193347   5.427  20.793  20.415 -0.0486  0.3755 -0.0038
46674OCT     C293348   5.445  20.883  20.897  0.0753 -0.3390  0.0297
46675OCT     C193349  13.660  17.395  13.789 -0.2170  0.1057  0.1288
46675OCT     C293350  13.722  16.990  13.578  0.0397 -0.1981 -0.1284
46676OCT     C193351  23.230  15.823  23.701  0.0540  0.3209 -0.3256
46676OCT     C293352  23.636  16.074   0.055 -0.3215  0.1321  0.0916
46677OCT     C193353   3.777   1.653   2.217  0.1337 -0.1585  0.2552
46677OCT     C293354   4.131   1.395   2.007  0.2392  0.2745 -0.2955
46678OCT     C193355  23.342  20.998  14.689 -0.1907  0.0599  0.4358
46678OCT     C293356  23.433  20.851  15.138 -0.0217  0.1174 -0.0511
46679OCT     C193357  12.064   3.453  10.086  0.0404 -0.0515  0.0881
46679OCT     C293358  11.986   3.864  10.233 -0.0722 -0.1327 -0.3225
46680OCT     C193359  10.325  11.222  15.922 -0.0052  0.4044 -0.0299
46680OCT     C293360  10.364  11.111  16.338 -0.1291 -0.1014  0.3952
46681OCT     C193361  15.416  13.917   2.571 -0.1739 -0.4963 -0.5238
46681OCT     C293362  15.478  13.488   2.345  0.0115  0.0306 -0.1042
46682OCT     C193363  12.966  10.162  14.548  0.0377 -0.2087 -0.2038
46682OCT     C293364  12.533  10.240  14.609 -0.2146 -0.2132 -0.1097
46683OCT     C193365  19.993  10.309   9.600 -0.0265  0.0476 -0.0140
46683OCT     C293366  20.274  10.548   9.881  0.2752  0.0108 -0.1395
46684OCT     C193367  14.523   0.414  12.989  0.0121  0.3585  0.1559
46684OCT     C293368  14.810   0.681  12.695 -0.1231 -0.4085  0.4802
46685OCT     C193369  22.839   7.400  17.870  0.1952 -0.0322 -0.1223
46685OCT     C293370  22.434   7.531  17.798  0.3699  0.1260  0.3774
46686OCT     C193371  20.856  19.478   0.164  0.3602  0.0031 -0.0652
46686OCT     C293372  20.578  19.513   0.552  0.1752 -0.1647  0.1852
46687OCT     C193373  10.812   3.183  20.524 -0.1289 -0.1077 -0.3541
46687OCT     C293374  10.949   3.391  20.983 -0.0904  0.0737  0.0345
46688OCT     C193375   1.605  21.516   5.812  0.4460  0.3802  0.0080
46688OCT     C293376   1.744  21.378   6.312  0.0999 -0.1783  0.1258
46689OCT     C193377  15.780   5.338  22.319  0.0943  0.0002 -0.1719
46689OCT     C293378  15.576   5.618  22.633 -0.2340 -0.1213  0.2049
46690OCT     C193379   6.659  10.065  14.345 -0.0371  0.1915 -0.3327
46690OCT     C293380   6.705  10.324  14.702 -0.0633 -0.1132  0.1979
46691OCT     C193381  11.224   7.546   9.867  0.1032 -0.1906  0.0651
46691OCT     C293382  11.072   7.240  10.154 -0.1115 -0.0971 -0.0858
46692OCT     C193383   8.301   1.995  19.283 -0.3129 -0.1340  0.4008
46692OCT     C293384   8.759   1.900  19.316  0.3990 -0.2578 -0.2557
46693OCT     C193385  14.547  10.084   1.228  0.2497  0.3699 -0.0982
46693OCT     C293386  14.673  10.019   1.653 -0.0827 -0.0463 -0.4763
46694OCT     C193387  14.750  22.014  14.357  0.0580 -0.4516  0.0587
46694OCT     C293388  14.912  21.937  13.933  0.1741 -0.2115 -0.1424
46695OCT     C193389  20.639   0.889  17.806  0.3493 -0.0577 -0.3907
46695OCT     C293390  21.082   0.742  17.911 -0.1977  0.0416 -0.2669
46696OCT     C193391  13.646   0.148  10.984  0.1436 -0.4133  0.2632
46696OCT     C293392  13.478   0.588  11.097 -0.3009 -0.0629 -0.0849
46697OCT     C193393   3.901  10.855  18.340 -0.1582 -0.2356  0.2714
46697OCT     C293394   4.021  10.402  18.212  0.2370 -0.1308  0.2715
46698OCT     C193395  13.959  11.511  16.177 -0.0709  0.1396 -0.1629
46698OCT     C293396  13.547  11.406  16.013  0.3005 -0.2449  0.2601
46699OCT     C193397   6.142  13.837  23.068 -0.2481  0.0043  0.1777
46699OCT     C293398   5.848  14.022  22.723 -0.2057 -0.1176  0.4051
46700OCT     C193399  23.268  10.390  11.852 -0.0548  0.0029 -0.1228
46700OCT     C293400  23.520  10.460  12.218  0.1067  0.1553  0.2325
46701OCT     C193401   2.816  17.251   0.361 -0.2714  0.2082  0.3974
46701OCT     C293402   2.994  17.232   0.774  0.0980  0.1671 -0.1683
46702OCT     C193403  13.279  21.390  14.950  0.2241 -0.0456 -0.0333
46702OCT     C293404  13.268  21.198  14.566 -0.2375 -0.0143  0.0732
46703OCT     C193405   9.023  22.389   5.979  0.0015 -0.2913 -0.0569
46703OCT     C293406   8.573  22.555   5.688 -0.1568 -0.0093  0.1125
46704OCT     C193407  20.005   0.379  15.190 -0.3866  0.0213 -0.3618
46704OCT     C293408  20.294   0.423  15.511  0.3890 -0.2706 -0.2410
46705OCT     C193409   9.521  16.643  11.355 -0.0977  0.0855 -0.0404
46705OCT     C293410   9.958  16.541  11.436  0.0623  0.3765  0.0833
46706OCT     C193411   4.956  18.612  16.143  0.0716  0.1180  0.3540
46706OCT     C293412   4.983  19.110  16.062 -0.0495  0.1818  0.3136
46707OCT     C193413   4.017   5.214  15.210 -0.1087  0.0040  0.0459
46707OCT     C293414   4.189   4.878  14.892  0.4080 -0.0920 -0.3581
46708OCT     C193415  15.189  19.282  15.056  0.1350 -0.1755 -0.2825
46708OCT     C293416  15.188  19.464  15.505  0.0803 -0.1728 -0.4135
46709OCT     C193417   6.370  19.063  12.930  0.0526 -0.5387 -0.0030
46709OCT     C293418   5.929  18.861  12.779  0.3539 -0.1048  0.2006
46710OCT     C193419  15.225   3.765   5.256 -0.1192  0.3951  0.1436
46710OCT     C293420  14.958   3.924   5.608 -0.2277 -0.0115 -0.2064
46711OCT     C193421  17.303   7.543   7.855 -0.1479 -0.0619  0.1065
46711OCT     C293422  17.704   7.798   7.971  0.0391  0.1776  0.4963
46712OCT     C193423   5.388   8.750  11.644 -0.0340  0.1449  0.2807
46712OCT     C293424   5.752   8.906  11.411 -0.1433  0.4733  0.2311
46713OCT     C193425  14.609   1.545   9.107 -0.2112 -0.4470 -0.0232
46713OCT     C293426  14.791   1.249   9.364  0.1878  0.1543 -0.0158
46714OCT     C193427   5.374  10.504   9.319  0.0505  0.4497  0.4642
46714OCT     C293428   5.614  10.524   9.750 -0.2914 -0.0173  0.0978
46715OCT     C193429  11.714  15.838  10.484  0.2249 -0.0552 -0.1575
46715OCT     C293430  11.384  16.111  10.706  0.1410  0.0894 -0.1691
46716OCT     C193431   9.909   0.339  17.317 -0.0023 -0.2356  0.0044
46716OCT     C293432   9.872   0.064  16.987  0.0318 -0.3850  0.0982
46717OCT     C193433  22.325   1.100  20.910 -0.1835 -0.2290  0.0868
46717OCT     C293434  22.104   1.224  21.295 -0.0318 -0.0722  0.0516
46718OCT     C193435  12.468  14.733   3.201  0.0662  0.2481 -0.2102
46718OCT     C293436  12.763  14.919   2.919 -0.0225  0.1432  0.3812
46719OCT     C193437  19.264  12.570   9.574  0.2244  0.1432 -0.1376
46719OCT     C293438  19.192  12.901   9.929  0.0380  0.1593 -0.3395
46720OCT     C193439  15.083  10.500  21.327 -0.1640 -0.1990  0.2708
46720OCT     C293440  15.531  10.342  21.387  0.1704 -0.2720 -0.2321
46721OCT     C193441   5.106  18.666  17.769  0.0501  0.0419  0.0915
46721OCT     C293442   4.923  18.286  18.012 -0.0970  0.1157  0.0508
46722OCT     C193443  15.418  15.144  22.791 -0.0530  0.5486  0.0009
46722OCT     C293444  15.212  14.743  22.895  0.0257  0.3454  0.1250
46723OCT     C193445  15.102   1.888   8.401 -0.1460 -0.2188  0.3992
46723OCT     C293446  15.462   2.086   8.169  0.0736 -0.0114  0.3149
46724OCT     C193447  10.550  21.367   0.316  0.0038 -0.0364 -0.2080
46724OCT     C293448  10.169  21.377   0.662  0.2883 -0.2001  0.2555
46725OCT     C193449  15.160  23.725  17.624  0.2005 -0.5364  0.0985
46725OCT     C293450  14.796  23.618  17.346 -0.1222  0.2811  0.1521
46726OCT     C193451  22.475   7.272  16.252  0.2269 -0.0836 -0.0156
46726OCT     C293452  22.173   7.603  16.450  0.0763 -0.2472  0.2128
46727OCT     C193453  22.251  17.851  23.251 -0.0552  0.1523  0.0842
46727OCT     C293454  21.915  17.837  23.581  0.0099  0.0324 -0.1204
46728OCT     C193455  18.017  18.992  16.709 -0.3129  0.0731  0.2812
46728OCT     C293456  17.763  19.303  16.491  0.1704 -0.0982 -0.4758
46729OCT     C193457  17.288  16.822   6.214 -0.0274  0.2160  0.2755
46729OCT     C293458  17.221  17.191   5.983 -0.0667 -0.1253  0.0127
46730OCT     C193459  16.850  16.796  19.859 -0.0615  0.5801 -0.2567
46730OCT     C293460  17.225  16.712  19.594 -0.0797 -0.0841  0.2123
46731OCT     C193461   3.694  17.909   5.251  0.0379  0.0219 -0.1295
46731OCT     C293462   3.345  17.642   5.424 -0.3606  0.1845  0.0079
46732OCT     C193463   3.261  20.159  12.834  0.3638  0.0371 -0.2425
46732OCT     C293464   2.801  20.295  12.873 -0.4097  0.3814 -0.1501
46733OCT     C193465   1.536  20.095  13.372 -0.3595  0.3662  0.0741
46733OCT     C293466   1.722  20.373  13.740  0.4221  0.0562 -0.1675
46734OCT     C193467  20.834   2.690   1.303 -0.2520  0.1019 -0.1028
46734OCT     C293468  20.758   2.922   1.693 -0.0673 -0.1117 -0.1057
46735OCT     C193469   1.835  13.412   0.180  0.2275  0.5834  0.1283
46735OCT     C293470   1.552  13.026   0.086 -0.4581  0.0742 -0.0941
46736OCT     C193471  19.518  12.474  12.680 -0.2366 -0.1892 -0.0496
46736OCT     C293472  19.332  12.111  12.434 -0.0565  0.0466 -0.3679
46737OCT     C193473  13.922   5.048   9.569  0.0791 -0.0661  0.3564
46737OCT     C293474  14.127   5.421   9.368  0.1877  0.0826  0.1208
46738OCT     C193475  13.544  18.323  19.012  0.1575  0.2158  0.1065
46738OCT     C293476  13.650  18.744  18.725 -0.0182 -0.2580 -0.1296
46739OCT     C193477   7.942  16.295  20.574  0.1110  0.1698  0.2028
46739OCT     C293478   7.827  16.702  20.364 -0.0860 -0.2208  0.0562
46740OCT     C193479   8.506   1.413  14.185 -0.2011 -0.2022 -0.1724
46740OCT     C293480   8.399   1.049  14.396  0.1706 -0.3048  0.2350
46741OCT     C193481   9.894   4.913  16.791 -0.2739  0.0829  0.0403
46741OCT     C293482   9.896   4.985  17.245 -0.3141 -0.3864  0.0874
46742OCT     C193483   8.659   9.684  18.668 -0.3811 -0.0373  0.0381
46742OCT     C293484   8.886   9.682  19.053  0.4397  0.3212 -0.0781
46743OCT     C193485   2.983  10.266   5.399  0.0479  0.0665 -0.1815
46743OCT     C293486   3.090  10.113   5.842  0.3410  0.3986  0.0594
46744OCT     C193487   1.236   6.410  22.500  0.1126  0.1162 -0.0650
46744OCT     C293488   1.108   6.167  22.084  0.1695  0.1641  0.1378
46745OCT     C193489  13.099  23.492  15.422  0.2660  0.4103  0.0696
46745OCT     C293490  13.261  23.688  15.013 -0.4260  0.0853  0.2797
46746OCT     C193491   0.584   2.912  14.776  0.2864 -0.2365 -0.3521
46746OCT     C293492   0.744   3.048  14.328  0.4267 -0.1939  0.1086
46747OCT     C193493   0.765   7.097  23.564  0.2635 -0.1573  0.1559
46747OCT     C293494   0.896   7.119  23.140 -0.1551  0.0432 -0.1135
46748OCT     C193495   6.154  17.467   6.199  0.2397 -0.2681  0.0539
46748OCT     C293496   5.667  17.393   6.015 -0.0299 -0.0386 -0.3124
46749OCT     C193497  10.961  21.127   0.117  0.0512  0.0253  0.4815
46749OCT     C293498  11.100  21.173  23.405 -0.2255 -0.0110 -0.3660
46750OCT     C193499  22.290   8.417  10.286  0.1042 -0.2121  0.0593
46750OCT     C293500  22.699   8.488  10.329 -0.1890 -0.0785  0.1284
46751OCT     C193501   6.334  22.634  18.161 -0.0579  0.0742 -0.0135
46751OCT     C293502   6.021  22.987  18.091 -0.0836  0.0255  0.0279
46752OCT     C193503  15.874   5.858  22.909 -0.1196 -0.0384 -0.1859
46752OCT     C293504  16.274   5.953  23.112 -0.2774  0.0677  0.1269
46753OCT     C193505  12.296  13.630  16.279  0.1631  0.0887  0.2134
46753OCT     C293506  12.747  13.686  16.199 -0.3133  0.2695  0.0104
46754OCT     C193507  20.018  11.948   9.922 -0.0301 -0.0110 -0.4811
46754OCT     C293508  20.382  12.141  10.126 -0.4992  0.2118  0.2402
46755OCT     C193509  18.101  11.969   6.623  0.1512  0.0909 -0.0618
46755OCT     C293510  18.466  11.970   6.393  0.5346 -0.1253  0.1262
46756OCT     C193511  11.718   3.398   5.913 -0.2723  0.3001  0.2155
46756OCT     C293512  12.084   3.186   6.145  0.1916 -0.0456 -0.1162
46757OCT     C193513  13.945   5.142   5.529 -0.3593 -0.1194 -0.2290
46757OCT     C293514  13.652   4.779   5.634  0.1110 -0.2937  0.0585
46758OCT     C193515  17.498   1.034   9.359 -0.1073 -0.2593  0.0780
46758OCT     C293516  17.889   1.096   9.564 -0.2815 -0.0490  0.3465
46759OCT     C193517  19.171   3.208  10.479 -0.0563  0.2251  0.1058
46759OCT     C293518  19.518   2.955  10.286  0.1009  0.1711 -0.3909
46760OCT     C193519  14.928  23.047   6.848 -0.1963  0.0424  0.1971
46760OCT     C293520  15.105  23.176   7.267 -0.1203  0.1305 -0.2251
46761OCT     C193521  17.314  10.128   0.342  0.1067 -0.1959  0.1645
46761OCT     C293522  17.605  10.471   0.264 -0.3314 -0.0791  0.1316
46762OCT     C193523  22.640   0.415   3.309 -0.1135  0.3035 -0.0124
46762OCT     C293524  22.390   0.586   3.660 -0.0089 -0.0378 -0.1717
46763OCT     C193525  16.906  11.423   2.705  0.1009 -0.1587 -0.0765
46763OCT     C293526  16.732  11.392   3.119 -0.1291  0.0683  0.0236
46764OCT     C193527   6.165  19.279  17.494 -0.0413 -0.1078  0.0893
46764OCT     C293528   6.263  19.522  17.049 -0.1318 -0.2534  0.0692
46765OCT     C193529   4.854  15.686  20.484  0.0864  0.0753  0.2121
46765OCT     C293530   5.172  15.469  20.752 -0.2900  0.0606 -0.2789
46766OCT     C193531   1.695  21.025  22.641 -0.0169 -0.0475  0.1269
46766OCT     C293532   2.127  21.198  22.516 -0.0403 -0.0189 -0.4026
46767OCT     C193533  23.424   4.998   7.958 -0.0573 -0.5737  0.0845
46767OCT     C293534  23.357   4.813   8.379  0.0302  0.1355  0.2704
46768OCT     C193535   7.680  10.473   4.248 -0.0005  0.0771 -0.2012
46768OCT     C293536   7.984  10.115   4.360 -0.1944 -0.1345 -0.0489
46769OCT     C193537   2.601   0.119   8.084 -0.1408  0.1061 -0.0040
46769OCT     C293538   3.042  23.711   8.154  0.2839 -0.1783  0.0952
46770OCT     C193539   7.796  19.658  12.397  0.2164 -0.0350 -0.0574
46770OCT     C293540   8.276  19.698  12.314 -0.0208  0.1160  0.0208
46771OCT     C193541  11.613  23.152   5.934  0.2289 -0.0265 -0.0165
46771OCT     C293542  12.014  23.140   5.668 -0.0928 -0.3692  0.0015
46772OCT     C193543   7.574   3.519  22.662 -0.2479 -0.0182 -0.2563
46772OCT     C293544   7.715   3.584  23.117 -0.2048  0.2084 -0.1974
46773OCT     C193545   1.589   5.399   2.182  0.0771 -0.6339 -0.1563
46773OCT     C293546   2.033   5.614   2.191  0.0220  0.0581  0.1282
46774OCT     C193547   2.066   6.063   7.712 -0.3569 -0.2776  0.1403
46774OCT     C293548   2.100   6.121   7.229  0.1423  0.3079  0.0885
46775OCT     C193549  11.789  21.106   0.737  0.1574 -0.1312 -0.1128
46775OCT     C293550  11.423  21.145   0.464 -0.0622 -0.0718 -0.4326
46776OCT     C193551  14.289  11.279  22.712 -0.0368  0.1037  0.1315
46776OCT     C293552  14.237  10.803  22.535  0.1887  0.1538  0.0456
46777OCT     C193553  15.956   3.906  18.717 -0.0091  0.2122 -0.0876
46777OCT     C293554  15.647   4.243  18.908  0.0974  0.1392  0.4015
46778OCT     C193555  10.942   7.353  19.367  0.0350  0.2569 -0.1383
46778OCT     C293556  11.002   6.958  19.590 -0.1963 -0.0593  0.0111
46779OCT     C193557   9.001   4.824  22.414  0.1867 -0.1528 -0.1827
46779OCT     C293558   9.025   4.562  21.957 -0.0991 -0.1411  0.2005
46780OCT     C193559   5.434  20.916  16.651  0.2655 -0.0013  0.2853
46780OCT     C293560   5.836  20.704  16.809 -0.1142 -0.0149 -0.0959
46781OCT     C193561  22.278  18.888   4.476 -0.0749 -0.2921 -0.0982
46781OCT     C293562  22.640  18.941   4.126  0.1526 -0.1408 -0.0875
46782OCT     C193563  14.803  14.891  21.205  0.1489  0.2038  0.2764
46782OCT     C293564  15.191  14.594  21.240 -0.2285  0.0411 -0.1231
46783OCT     C193565  15.529   1.071  14.959  0.1492  0.3401  0.2443
46783OCT     C293566  15.665   1.457  14.930  0.2851  0.2095  0.0494
46784OCT     C193567  17.839  13.052  17.962  0.2479  0.1018 -0.0652
46784OCT     C293568  17.881  12.931  17.501  0.1243 -0.3571 -0.1337
46785OCT     C193569   4.552  21.144   7.153  0.0610 -0.0202 -0.4876
46785OCT     C293570   4.415  21.096   6.637 -0.1197  0.0459 -0.3014
46786OCT     C193571  22.711  16.675  14.837  0.1533  0.1555 -0.0868
46786OCT     C293572  23.071  16.382  14.992 -0.1803  0.0676  0.1490
46787OCT     C193573   1.106   2.138   6.671 -0.0808  0.1761  0.0257
46787OCT     C293574   0.836   2.137   6.312 -0.2156  0.0749 -0.3454
46788OCT     C193575   9.259  21.484  23.706  0.0349 -0.2044  0.1738
46788OCT     C293576   9.156  21.332   0.407  0.0255 -0.1026  0.1483
46789OCT     C193577  23.349   3.712   8.271  0.3818 -0.0829 -0.0373
46789OCT     C293578  23.297   3.612   7.831 -0.2417 -0.0945  0.2352
46790OCT     C193579   5.028  23.555   1.842 -0.0598  0.0451  0.1598
46790OCT     C293580   5.442  23.344   1.978  0.0754  0.0286 -0.0064
46791OCT     C193581  22.643   0.549   5.882 -0.2770 -0.0868  0.2146
46791OCT     C293582  22.757   0.476   6.343 -0.2234  0.5172  0.0682
46792OCT     C193583   4.814  22.405  19.371  0.0011  0.1887  0.0069
46792OCT     C293584   4.521  22.243  19.706  0.1301 -0.0636 -0.0010
46793OCT     C193585   4.336   7.507   1.736  0.4417  0.0041 -0.2686
46793OCT     C293586   4.223   7.061   1.713  0.0130 -0.1029  0.0642
46794OCT     C193587  13.855  14.785   7.213  0.2065 -0.1131 -0.0660
46794OCT     C293588  14.106  14.407   7.276 -0.5850 -0.0908  0.0552
46795OCT     C193589  18.031   7.236  15.708 -0.3262  0.4364 -0.1305
46795OCT     C293590  18.206   6.914  15.426 -0.0826  0.2319 -0.2140
46796OCT     C193591  10.978   0.890  21.785  0.1557  0.0232 -0.1060
46796OCT     C293592  11.078   1.322  22.032 -0.0496 -0.0465 -0.2168
46797OCT     C193593  15.325   9.495   3.810 -0.2643 -0.2628 -0.1592
46797OCT     C293594  15.520   9.384   4.235 -0.1117 -0.0783 -0.0937
46798OCT     C193595  21.095   0.875   9.558  0.1123  0.0047  0.1036
46798OCT     C293596  20.956   1.239   9.259  0.0318  0.0191  0.0249
46799OCT     C193597   5.796  17.646  11.701  0.2804  0.0266  0.1792
46799OCT     C293598   6.224  17.606  11.717 -0.0303  0.3455 -0.3198
46800OCT     C193599   7.230  11.396   4.054 -0.1331  0.2057 -0.0095
46800OCT     C293600   6.803  11.605   4.097 -0.5925 -0.0477 -0.7866
46801OCT     C193601   1.085   0.992   7.802  0.2643  0.0644  0.0633
46801OCT     C293602   0.809   0.647   8.011 -0.0685  0.2808 -0.0232
46802OCT     C193603   0.613  23.565   3.231  0.3408 -0.0239 -0.2336
46802OCT     C293604   0.863   0.221   3.438 -0.1752 -0.1428 -0.6243
46803OCT     C193605   3.314   4.518  14.139  0.2283 -0.1171 -0.0119
46803OCT     C293606   3.190   4.468  14.543 -0.3594  0.0387  0.1299
46804OCT     C193607  21.164   7.648  22.412  0.2195  0.0742  0.0176
46804OCT     C293608  21.427   7.896  22.091 -0.4772  0.0863 -0.1963
46805OCT     C193609   2.080   0.396  23.004  0.0328 -0.3047 -0.3256
46805OCT     C293610   1.891   0.524  22.576  0.3097  0.2894  0.0064
46806OCT     C193611  13.637  20.360  17.923  0.2127  0.2601 -0.0111
46806OCT     C293612  13.568  20.559  17.497  0.2051 -0.2585 -0.1766
46807OCT     C193613  18.786   5.155  22.140  0.3086 -0.0034  0.0623
46807OCT     C293614  19.089   5.161  22.493  0.1811  0.1267  0.1959
46808OCT     C193615  15.162  17.228  20.101 -0.1438  0.0313  0.0632
46808OCT     C293616  14.727  17.182  20.305 -0.1740  0.0626  0.1163
46809OCT     C193617  20.045  22.272   5.615 -0.0006 -0.0546  0.0427
46809OCT     C293618  20.146  21.900   5.870 -0.2763 -0.0894  0.2382
46810OCT     C193619  15.415  14.868  13.515  0.2471  0.2582  0.1340
46810OCT     C293620  15.830  14.707  13.413 -0.3347 -0.0266 -0.0425
46811OCT     C193621   2.118   7.452  16.175 -0.0001  0.1361 -0.1077
46811OCT     C293622   2.289   7.559  15.765  0.2079  0.0308 -0.2668
46812OCT     C193623   8.137  13.883   3.170 -0.0897 -0.0884 -0.0580
46812OCT     C293624   8.409  13.878   3.513  0.0510 -0.0444 -0.1033
46813OCT     C193625  22.412  20.022  12.371  0.2437 -0.4113 -0.1240
46813OCT     C293626  22.041  20.287  12.516  0.1165  0.0406  0.0698
46814OCT     C193627  13.972   9.251  13.081 -0.1677  0.2200 -0.0956
46814OCT     C293628  14.444   9.017  13.060  0.2979 -0.1761 -0.3451
46815OCT     C193629  22.142  21.179   1.692 -0.3312 -0.2144 -0.1585
46815OCT     C293630  22.055  20.904   1.303  0.2359 -0.4159 -0.0374
46816OCT     C193631  16.782   6.510  11.073 -0.4817  0.0687  0.0515
46816OCT     C293632  16.957   6.629  11.486  0.0042 -0.0986  0.1384
46817OCT     C193633   2.779  12.086  14.644 -0.1130 -0.2401  0.1824
46817OCT     C293634   2.616  12.405  14.905 -0.1188  0.0956 -0.2551
46818OCT     C193635  14.958  23.035  15.160 -0.2821  0.0162 -0.4555
46818OCT     C293636  14.929  23.415  14.936  0.2429  0.2299 -0.0074
46819OCT     C193637  16.435   1.944   4.568  0.0158  0.0367  0.1042
46819OCT     C293638  16.263   1.622   4.297 -0.3119 -0.0762 -0.2392
46820OCT     C193639  17.301  11.231  21.843  0.1403 -0.0079  0.3072
46820OCT     C293640  17.010  11.001  22.094  0.1556 -0.0490  0.2280
46821OCT     C193641   5.119   0.431   6.487  0.1492  0.1909  0.2390
46821OCT     C293642   5.135  23.724   6.390  0.0365  0.5362  0.0554
46822OCT     C193643  22.246  10.792  20.614 -0.1351 -0.0790  0.1900
46822OCT     C293644  21.971  11.149  20.833  0.5030 -0.2531  0.0901
46823OCT     C193645  10.202   3.234  16.151  0.0838 -0.0461  0.0565
46823OCT     C293646  10.104   3.115  16.600 -0.1158  0.0961  0.0243
46824OCT     C193647   2.021   3.206  19.566  0.1418 -0.2096 -0.0769
46824OCT     C293648   1.661   3.171  19.292 -0.0705 -0.0479 -0.1628
46825OCT     C193649   3.226  12.046  10.943  0.0843  0.6668  0.1137
46825OCT     C293650   3.438  11.667  11.190 -0.0968  0.0244  0.0729
46826OCT     C193651  15.676  11.535  17.756  0.3055 -0.1533 -0.6471
46826OCT     C293652  16.193  11.552  17.762 -0.3483 -0.0092 -0.1136
46827OCT     C193653  21.075   4.767   3.138 -0.0823  0.3777  0.2885
46827OCT     C293654  21.033   4.317   3.171 -0.1003  0.0652  0.3237
46828OCT     C193655   6.049  14.457  12.605 -0.0155 -0.1512 -0.0374
46828OCT     C293656   5.651  14.447  12.761 -0.1922 -0.0224 -0.0088
46829OCT     C193657  17.069   8.454   5.883 -0.0050  0.3245 -0.0769
46829OCT     C293658  17.206   8.399   5.432 -0.1019 -0.1320  0.0447
46830OCT     C193659   4.029  18.518   8.804  0.1366 -0.0761 -0.3640
46830OCT     C293660   4.264  18.259   9.047  0.0665 -0.0082  0.1862
46831OCT     C193661  22.764  20.967   9.441 -0.2840  0.1027  0.1448
46831OCT     C293662  23.073  20.888   9.100 -0.1483  0.0828 -0.3393
46832OCT     C193663   1.929   8.390  13.485  0.3367  0.1786 -0.1219
46832OCT     C293664   1.532   8.196  13.338 -0.0038 -0.2004  0.2166
46833OCT     C193665  19.944   3.046   8.706 -0.1262 -0.4303 -0.2956
46833OCT     C293666  19.455   2.831   8.715 -0.0285  0.2554  0.3670
46834OCT     C193667   7.899  10.223   6.124 -0.0287 -0.0001  0.0469
46834OCT     C293668   7.562  10.391   6.367 -0.0777 -0.1105 -0.0823
46835OCT     C193669  18.812   4.237   1.218 -0.2821 -0.4084  0.0990
46835OCT     C293670  19.193   4.546   1.262  0.2364 -0.2156 -0.2249
46836OCT     C193671   1.722  22.129  20.922 -0.2631 -0.0165  0.1386
46836OCT     C293672   2.012  22.442  21.095  0.0236 -0.1437  0.0062
46837OCT     C193673   9.699  20.136  16.529  0.2555  0.2666  0.0001
46837OCT     C293674  10.108  20.398  16.690  0.1942  0.0744 -0.2552
46838OCT     C193675  11.883  20.729  19.833  0.0053 -0.1238  0.1225
46838OCT     C293676  12.241  20.541  20.058  0.0511  0.0249 -0.2291
46839OCT     C193677   1.547   8.618  22.932 -0.2779  0.2770  0.0222
46839OCT     C293678   1.314   8.850  23.262 -0.0502  0.0739  0.1662
46840OCT     C193679   2.325  20.517   2.649 -0.0791 -0.2025 -0.0349
46840OCT     C293680   2.816  20.631   2.762  0.1228  0.3177 -0.1061
46841OCT     C193681   0.630   6.899   0.968 -0.4478 -0.1012 -0.3170
46841OCT     C293682   0.954   6.797   0.624  0.2293  0.0202  0.1163
46842OCT     C193683  15.142  12.632   2.995 -0.1371  0.0400  0.3643
46842OCT     C293684  15.543  12.638   2.739  0.0660  0.0069  0.1713
46843OCT     C193685  19.316  14.529   1.108  0.0442 -0.1630 -0.1481
46843OCT     C293686  19.477  14.188   1.339  0.2371  0.2732 -0.1100
46844OCT     C193687   4.516  12.382   0.778 -0.5900 -0.1993 -0.3800
46844OCT     C293688   4.280  12.009   0.796 -0.1316 -0.1425  0.2576
46845OCT     C193689   2.194  22.392  13.586 -0.0513 -0.2922 -0.2198
46845OCT     C293690   2.248  22.824  13.392  0.3703 -0.1190 -0.0606
46846OCT     C193691  18.027  17.871  20.438 -0.0373  0.0853  0.0372
46846OCT     C293692  17.928  17.442  20.206 -0.2354 -0.2638 -0.0060
46847OCT     C193693   1.184  21.782  10.494 -0.0056  0.1011  0.3017
46847OCT     C293694   1.564  21.602  10.326 -0.0655 -0.1686 -0.0446
46848OCT     C193695  14.304   6.215   8.933  0.4820  0.0709  0.2244
46848OCT     C293696  14.597   6.523   8.952 -0.3163  0.1210 -0.0335
46849OCT     C193697  16.447   0.070   4.205 -0.0947  0.2202 -0.4275
46849OCT     C293698  16.870  23.565   4.346 -0.0585  0.0560  0.1344
46850OCT     C193699  14.377  15.749   7.129  0.0494 -0.0263 -0.2282
46850OCT     C293700  13.951  15.644   7.304  0.1152 -0.2203  0.5562
46851OCT     C193701   0.399   8.098  12.003  0.3753  0.2668  0.1562
46851OCT     C293702   0.844   8.082  11.953  0.3009 -0.1278  0.0701
46852OCT     C193703   4.805  16.584   5.521 -0.3242  0.1467 -0.2542
46852OCT     C293704   4.984  16.802   5.157  0.2598  0.3100  0.3342
46853OCT     C193705  14.275  23.588  19.287 -0.0833  0.1126  0.1718
46853OCT     C293706  14.057  23.163  19.275 -0.1411 -0.1167 -0.0074
46854OCT     C193707  21.389  13.985   0.201 -0.0228  0.2447 -0.1228
46854OCT     C293708  21.586  13.881   0.547 -0.1048  0.0145  0.3040
46855OCT     C193709   7.634  20.988   5.537  0.0013 -0.0097 -0.4011
46855OCT     C293710   7.842  20.595   5.472 -0.2834 -0.0847  0.1597
46856OCT     C193711  17.484  15.131  16.482  0.0570  0.1238 -0.1336
46856OCT     C293712  17.301  15.032  16.010 -0.1115  0.4707  0.4473
46857OCT     C193713  19.028  13.809  15.686  0.3843  0.5184 -0.2337
46857OCT     C293714  18.874  13.747  16.174  0.1517 -0.0895  0.0196
46858OCT     C193715   2.512  17.952   4.595  0.1149  0.0178 -0.1509
46858OCT     C293716   2.828  18.069   4.923 -0.4205  0.2759  0.0481
46859OCT     C193717  11.761  15.672  14.725 -0.2945  0.0318  0.1253
46859OCT     C293718  11.489  15.992  14.427 -0.3608  0.4089  0.0012
46860OCT     C193719  22.576   8.511  23.105  0.2158  0.1702  0.1491
46860OCT     C293720  22.378   8.421  23.515 -0.0689 -0.0610  0.2668
46861OCT     C193721  17.248  10.702  23.149 -0.2056  0.0089  0.0548
46861OCT     C293722  17.545  10.413  22.936 -0.0222 -0.3028 -0.1730
46862OCT     C193723  22.090  18.313  15.672 -0.4112 -0.0662  0.2650
46862OCT     C293724  22.553  18.162  15.766  0.1508  0.0129 -0.0172
46863OCT     C193725   4.261  14.205   9.735  0.1480 -0.2344 -0.2555
46863OCT     C293726   4.258  13.917  10.100  0.2580 -0.1395  0.4542
46864OCT     C193727  14.394   4.181  22.513 -0.1530 -0.1919  0.2026
46864OCT     C293728  14.572   4.245  22.071  0.0431 -0.1967 -0.0585
46865OCT     C193729  10.902   0.899   9.390 -0.1992 -0.1565  0.1553
46865OCT     C293730  10.875   0.897   9.837  0.1917  0.1561 -0.1494
46866OCT     C193731   3.513  10.168   5.505 -0.2575 -0.2077 -0.1784
46866OCT     C293732   3.393  10.375   5.147  0.0504  0.1041  0.2842
46867OCT     C193733  22.683   3.037   5.385 -0.1902 -0.0111  0.0257
46867OCT     C293734  22.630   2.610   5.104  0.1946  0.1771  0.1986
46868OCT     C193735   1.131  20.618   4.254  0.4001  0.0696 -0.2453
46868OCT     C293736   1.234  20.261   4.516  0.3034  0.0223 -0.0746
46869OCT     C193737  20.960  17.105  17.220 -0.0751 -0.1710 -0.0039
46869OCT     C293738  20.599  17.113  16.969  0.0432  0.2135 -0.0849
46870OCT     C193739  20.298  17.713  17.624 -0.0750  0.0026 -0.0198
46870OCT     C293740  19.874  17.604  17.762 -0.0121  0.3674  0.2018
46871OCT     C193741   6.677   4.294   8.596  0.1078 -0.2118  0.0453
46871OCT     C293742   6.820   3.938   8.414 -0.0745  0.3161  0.4272
46872OCT     C193743  18.563  12.610   3.417  0.0481 -0.0228  0.0041
46872OCT     C293744  18.787  12.879   3.739 -0.2319  0.6099 -0.1276
46873OCT     C193745  13.138  16.415   6.900  0.5136  0.2124  0.0140
46873OCT     C293746  13.181  16.097   6.561 -0.3004 -0.0721 -0.1019
46874OCT     C193747   6.847   5.595   1.075 -0.1073 -0.0258 -0.2278
46874OCT     C293748   6.656   5.962   0.927  0.4143 -0.2945  0.0697
46875OCT     C193749  21.573  19.698  18.893  0.0299  0.3576 -0.0142
46875OCT     C293750  21.898  19.359  18.966  0.0821  0.2100  0.2017
46876OCT     C193751   5.102  18.937  12.336 -0.0695 -0.2743 -0.1385
46876OCT     C293752   5.031  18.708  11.974  0.0064 -0.0260  0.2198
46877OCT     C193753   0.098   2.894  14.890  0.2914  0.0404  0.2460
46877OCT     C293754  23.609   2.754  15.300  0.0591 -0.2191 -0.4989
46878OCT     C193755  14.335  21.464   7.905 -0.0331 -0.0641  0.1331
46878OCT     C293756  14.478  21.913   7.805  0.2030 -0.0271 -0.0813
46879OCT     C193757   4.005   4.133  20.363  0.0323 -0.1253  0.0822
46879OCT     C293758   4.044   4.250  20.813 -0.3237 -0.1210  0.4062
46880OCT     C193759  23.591  17.996  19.298 -0.2323  0.2192  0.1142
46880OCT     C293760  23.661  17.947  18.819 -0.0172  0.0761 -0.1484
46881OCT     C193761   8.188   5.451  17.141  0.0850  0.2461 -0.1561
46881OCT     C293762   7.927   5.714  16.815 -0.0910 -0.2279 -0.1125
46882OCT     C193763   5.738  13.737  13.320 -0.1293  0.1203 -0.2691
46882OCT     C293764   5.504  13.332  13.458 -0.1306  0.0803  0.1634
46883OCT     C193765  20.891   6.155   6.331 -0.0388 -0.3640  0.3005
46883OCT     C293766  21.201   6.497   6.512  0.2414 -0.0499 -0.1561
46884OCT     C193767   4.334   4.431  18.545  0.6094 -0.0207 -0.1790
46884OCT     C293768   4.469   4.570  18.959 -0.1030  0.0354 -0.4495
46885OCT     C193769   7.462  16.131  23.630 -0.2816  0.1822  0.0537
46885OCT     C293770   7.342  16.001  23.135  0.2907 -0.1083  0.0649
46886OCT     C193771   6.963   0.932   4.500 -0.1998 -0.1908  0.0100
46886OCT     C293772   7.199   1.044   4.921 -0.0156 -0.1596 -0.0412
46887OCT     C193773  12.020  20.565   8.705 -0.0579 -0.0415 -0.0586
46887OCT     C293774  12.432  20.394   8.745  0.1910  0.4424 -0.0162
46888OCT     C193775  10.088   4.231  16.288 -0.1528  0.3156  0.1354
46888OCT     C293776   9.876   4.301  15.849 -0.2948  0.0798  0.2007
46889OCT     C193777  18.743  10.986  21.317 -0.1714  0.2996  0.1086
46889OCT     C293778  18.896  11.084  20.865 -0.2919  0.1829 -0.2050
46890OCT     C193779  22.060  22.965  19.778  0.0061  0.1401 -0.1181
46890OCT     C293780  21.581  22.774  19.649 -0.0144 -0.2146  0.0521
46891OCT     C193781  23.108   3.376  22.006 -0.2903  0.0244  0.1532
46891OCT     C293782  22.735   3.083  21.821 -0.1347  0.1117 -0.0548
46892OCT     C193783   6.121   3.516   4.567 -0.2280  0.2544 -0.0025
46892OCT     C293784   6.222   3.965   4.602 -0.2924  0.0979  0.0054
46893OCT     C193785  19.281  18.221   4.255  0.0666  0.1017 -0.0120
46893OCT     C293786  19.243  18.215   4.721 -0.0684  0.1841 -0.2299
46894OCT     C193787  17.852  16.770  15.987  0.1071 -0.0625  0.0474
46894OCT     C293788  17.613  16.798  15.617  0.3044  0.0064 -0.2360
46895OCT     C193789   1.545   3.408   3.153  0.0116  0.0166 -0.3443
46895OCT     C293790   1.134   3.613   3.382  0.0554 -0.4289 -0.3082
46896OCT     C193791  18.685   8.565   0.691  0.3465  0.1459  0.0781
46896OCT     C293792  19.071   8.336   0.673 -0.1378 -0.0198  0.0569
46897OCT     C193793  21.356  20.097  20.663  0.4829 -0.4836 -0.0659
46897OCT     C293794  21.606  19.713  20.793  0.1731  0.2312  0.2808
46898OCT     C193795  22.699  19.098  20.156  0.3674  0.1509  0.0480
46898OCT     C293796  22.941  19.472  20.081  0.0152 -0.1451 -0.1214
46899OCT     C193797   7.359  23.654  20.980 -0.0913 -0.0804 -0.2615
46899OCT     C293798   7.441  23.349  20.608 -0.0519 -0.1946 -0.2796
46900OCT     C193799  16.310  13.444   2.439  0.0270 -0.1645  0.0231
46900OCT     C293800  15.891  13.689   2.574  0.2289  0.2555 -0.2766
46901OCT     C193801  19.230  12.450   6.776 -0.3757  0.2375  0.0441
46901OCT     C293802  19.147  12.196   7.186 -0.4254  0.0948  0.1580
46902OCT     C193803  22.944   8.167   1.580 -0.0177 -0.0085 -0.1515
46902OCT     C293804  22.776   8.620   1.546  0.6071  0.3016  0.1810
46903OCT     C193805  17.217  17.961  14.904 -0.2977  0.0215  0.2480
46903OCT     C293806  17.154  18.454  14.885  0.0250 -0.2174 -0.1177
46904OCT     C193807  21.611  13.322   1.925  0.3770 -0.0597 -0.0380
46904OCT     C293808  21.372  12.931   2.032  0.0217 -0.2015  0.1454
46905OCT     C193809  11.772   2.810  12.176 -0.6306  0.4360 -0.0057
46905OCT     C293810  12.287   2.969  12.237 -0.0494 -0.0713 -0.2209
46906OCT     C193811  17.403  15.928   5.628  0.1245  0.1001  0.0103
46906OCT     C293812  17.041  15.908   5.929  0.2960 -0.1622  0.0404
46907OCT     C193813   9.150  20.228  14.742 -0.1893  0.0300  0.4605
46907OCT     C293814   8.755  19.986  14.725 -0.3539 -0.0817  0.1454
46908OCT     C193815  10.608  19.527  11.987 -0.1542 -0.1629 -0.1026
46908OCT     C293816  10.862  19.915  11.810  0.1396 -0.1411  0.1720
46909OCT     C193817  23.503  12.863  23.256 -0.2619 -0.0807 -0.1543
46909OCT     C293818  23.612  12.451  23.126  0.0874  0.3515 -0.2916
46910OCT     C193819  23.469   5.499   5.256 -0.1196 -0.1967  0.1608
46910OCT     C293820   0.070   5.379   5.537  0.4759  0.0179 -0.0017
46911OCT     C193821  15.925  18.602  13.521 -0.3645 -0.0276 -0.0323
46911OCT     C293822  15.575  18.722  13.226 -0.2274 -0.3112  0.0703
46912OCT     C193823   2.943  13.364   8.495 -0.3590 -0.2890 -0.1037
46912OCT     C293824   2.984  13.775   8.274  0.1250  0.2008  0.0628
46913OCT     C193825  17.622  17.308   3.964  0.4396 -0.0481 -0.1695
46913OCT     C293826  17.948  17.105   3.691  0.0650  0.0640  0.2731
46914OCT     C193827   6.424  14.256  22.999  0.1766 -0.0446  0.2390
46914OCT     C293828   6.781  14.506  22.907 -0.2832 -0.1213  0.1937
46915OCT     C193829  14.037  16.967   3.430 -0.4410 -0.2767  0.0218
46915OCT     C293830  13.683  17.338   3.438  0.0912  0.2263  0.0331
46916OCT     C193831   6.490   6.355   7.621  0.0038 -0.1555 -0.1684
46916OCT     C293832   6.979   6.228   7.688  0.1730 -0.4080  0.0144
46917OCT     C193833  12.790   3.874  15.506  0.0773  0.0268  0.0467
46917OCT     C293834  12.424   3.768  15.727  0.1568  0.0490  0.3995
46918OCT     C193835   6.416   9.783   9.107 -0.2076 -0.0406 -0.1847
46918OCT     C293836   6.469   9.940   8.648  0.2538  0.0404  0.0810
46919OCT     C193837  12.676   9.977  19.271 -0.5265 -0.6375 -0.1179
46919OCT     C293838  12.757   9.630  18.995 -0.0260 -0.1025  0.1846
46920OCT     C193839   0.891   8.748   7.078 -0.2195  0.1666 -0.3072
46920OCT     C293840   0.848   8.470   6.709 -0.2948 -0.2507  0.1334
46921OCT     C193841   0.747   2.540  14.449 -0.1801  0.1438  0.0228
46921OCT     C293842   0.943   2.132  14.504  0.1928 -0.2827 -0.0623
46922OCT     C193843  14.852  15.295  20.367 -0.0958  0.0818  0.0472
46922OCT     C293844  14.567  15.330  20.719  0.0775 -0.3451 -0.2608
46923OCT     C193845  23.458   3.361   7.122  0.0913  0.1179  0.2573
46923OCT     C293846  23.633   3.685   7.455 -0.3881  0.2035  0.0364
46924OCT     C193847  12.857  22.240   5.199  0.1971 -0.0189  0.0868
46924OCT     C293848  12.634  22.539   4.946 -0.2866 -0.0592 -0.1561
46925OCT     C193849   0.742  14.660  15.652 -0.0402  0.3275 -0.4882
46925OCT     C293850   1.075  14.954  15.584  0.2358 -0.2649 -0.1495
46926OCT     C193851  20.374   4.956  11.081  0.1509  0.1718 -0.0681
46926OCT     C293852  20.251   5.072  11.496  0.1993  0.1253 -0.0534
46927OCT     C193853  14.718   3.084  12.496  0.3595 -0.0876  0.0547
46927OCT     C293854  14.617   2.799  12.878 -0.4406  0.0271  0.2329
46928OCT     C193855  22.547   6.035  10.970  0.3699  0.5521  0.0136
46928OCT     C293856  22.299   5.857  11.344  0.0263  0.2258 -0.2229
46929OCT     C193857   5.308  23.621   5.842  0.1422  0.0409  0.0103
46929OCT     C293858   4.960  23.549   5.537  0.0345  0.1872 -0.2324
46930OCT     C193859   2.160  19.159  23.133  0.1545 -0.2132  0.2789
46930OCT     C293860   1.857  19.488  22.929 -0.1335 -0.3356 -0.3154
46931OCT     C193861  21.885  23.512   1.480 -0.2901 -0.0528 -0.3745
46931OCT     C293862  21.650   0.153   1.402 -0.0899 -0.1680  0.0017
46932OCT     C193863  18.397   0.377   4.125  0.3342  0.0685 -0.2610
46932OCT     C293864  17.918   0.314   4.224  0.0599 -0.2864  0.1350
46933OCT     C193865  22.273  19.634  14.288 -0.0734  0.3553 -0.1613
46933OCT     C293866  22.197  19.953  13.979  0.3423  0.0112  0.0217
46934OCT     C193867   3.265   8.801   4.201 -0.0651  0.4149  0.3846
46934OCT     C293868   3.756   8.834   4.281 -0.4016  0.0913 -0.2796
46935OCT     C193869   6.051   7.578   7.310  0.3595 -0.0878 -0.0479
46935OCT     C293870   5.588   7.672   7.248  0.2025  0.0759  0.1546
46936OCT     C193871  16.495  15.493  21.689 -0.1724  0.0662 -0.1483
46936OCT     C293872  16.812  15.794  21.764  0.0141  0.0215  0.1886
46937OCT     C193873  19.351  20.739  20.480 -0.0667  0.0011  0.4377
46937OCT     C293874  19.685  20.454  20.328 -0.3111 -0.0879 -0.1687
46938OCT     C193875   7.655   6.686  15.147 -0.3143 -0.0121  0.0360
46938OCT     C293876   8.091   6.648  15.174  0.1705 -0.0866  0.0172
46939OCT     C193877  13.080  13.399   2.652 -0.1279 -0.4861  0.1008
46939OCT     C293878  12.909  13.828   2.517  0.2703  0.0160 -0.1039
46940OCT     C193879  13.557  11.083  20.129 -0.3295 -0.1379  0.2532
46940OCT     C293880  13.732  11.468  20.400  0.0414 -0.2126 -0.3002
46941OCT     C193881  11.208   8.876  23.688  0.0770 -0.0968  0.4697
46941OCT     C293882  10.753   8.912  23.564  0.3465  0.1249 -0.4389
46942OCT     C193883   4.314  11.582  10.908 -0.1977  0.3394 -0.2401
46942OCT     C293884   4.407  11.475  11.369  0.0319 -0.0422 -0.0944
46943OCT     C193885   7.631  10.837   6.196 -0.1286 -0.2112 -0.1457
46943OCT     C293886   7.789  11.232   6.130 -0.5124  0.2606 -0.1004
46944OCT     C193887  10.352   3.337   1.321 -0.1375 -0.0884 -0.1632
46944OCT     C293888  10.183   3.589   1.693  0.2321  0.1706  0.5263
46945OCT     C193889  23.536   7.551  13.099 -0.0346  0.0045  0.2998
46945OCT     C293890   0.145   7.334  13.299 -0.2736  0.2992 -0.2333
46946OCT     C193891   2.615  22.799  21.945  0.0016  0.0172 -0.0460
46946OCT     C293892   3.078  22.947  22.102  0.0658 -0.0823 -0.1881
46947OCT     C193893  17.878   9.141   5.190  0.0086  0.0776 -0.1491
46947OCT     C293894  18.058   9.442   5.487 -0.0463  0.1289 -0.1889
46948OCT     C193895   9.056  12.457  16.077 -0.2984  0.4079  0.3477
46948OCT     C293896   9.250  12.863  15.829  0.0032  0.2913  0.2376
46949OCT     C193897  17.047   0.206  20.797  0.0156  0.1424 -0.1773
46949OCT     C293898  16.826   0.123  20.461  0.0730 -0.0175 -0.1365
46950OCT     C193899  22.142   8.998  22.451 -0.0604  0.0952  0.0024
46950OCT     C293900  22.065   8.594  22.286  0.1088  0.1686 -0.0258
46951OCT     C193901   6.950  23.600  16.579 -0.4800  0.1729  0.0143
46951OCT     C293902   6.521  23.705  16.451  0.0483 -0.0256 -0.0216
46952OCT     C193903   6.211  13.100  10.776 -0.0264  0.1462 -0.0175
46952OCT     C293904   6.221  13.145  10.314  0.0759  0.0895  0.1426
46953OCT     C193905  10.362  11.930  23.555 -0.1042 -0.1214 -0.0943
46953OCT     C293906  10.008  12.001  23.308 -0.3580  0.1955 -0.0667
46954OCT     C193907  10.192   9.944  22.635  0.2007 -0.2963 -0.2657
46954OCT     C293908  10.460  10.364  22.703 -0.0126 -0.2645 -0.1155
46955OCT     C193909  15.831  19.976  14.018 -0.0488 -0.2147 -0.1350
46955OCT     C293910  15.489  19.848  14.287  0.3453 -0.0813  0.0768
46956OCT     C193911   1.230  10.336  21.646 -0.3340  0.0591  0.2644
46956OCT     C293912   1.681  10.448  21.518  0.0725 -0.1744 -0.3646
46957OCT     C193913  22.485  15.838  20.246  0.0642  0.1014 -0.0755
46957OCT     C293914  22.720  15.975  20.664  0.2201  0.2273  0.2105
46958OCT     C193915  22.960  12.011   0.872  0.4093 -0.3165 -0.0865
46958OCT     C293916  23.118  12.139   1.303  0.0009  0.4797  0.1097
46959OCT     C193917   8.024   6.770  18.214  0.0944 -0.0181  0.0251
46959OCT     C293918   7.850   6.529  17.851 -0.1096  0.0690 -0.3367
46960OCT     C193919   4.961   1.781  19.150  0.1108 -0.0668  0.3950
46960OCT     C293920   5.032   2.055  18.736  0.2033  0.3379 -0.2834
46961OCT     C193921  22.336  21.630  20.402  0.3177 -0.2369  0.0349
46961OCT     C293922  22.400  21.924  20.807 -0.1779 -0.3316  0.0462
46962OCT     C193923  13.452  23.537   2.410  0.0608  0.2104  0.3082
46962OCT     C293924  13.342   0.203   2.674 -0.0617 -0.1934 -0.1081
46963OCT     C193925  22.890  21.566  17.065 -0.1900 -0.0594  0.3469
46963OCT     C293926  23.411  21.597  17.122  0.2573 -0.3119  0.3604
46964OCT     C193927   7.473  13.048  19.869 -0.0987  0.0931  0.2986
46964OCT     C293928   7.212  12.721  19.781 -0.1188  0.2433 -0.2303
46965OCT     C193929   3.215   1.418   4.772  0.0926  0.3341  0.2209
46965OCT     C293930   3.640   1.447   4.540  0.1302 -0.1276  0.0636
46966OCT     C193931   7.183   3.127  23.648  0.1008  0.2495  0.0365
46966OCT     C293932   7.541   2.839  23.472 -0.0951 -0.1484  0.0277
46967OCT     C193933  17.930  20.983  23.402  0.0595 -0.2833 -0.4144
46967OCT     C293934  17.550  21.246  23.409  0.2364 -0.4661 -0.1125
46968OCT     C193935  11.971  11.839  20.731 -0.0466  0.4680  0.3714
46968OCT     C293936  11.708  11.753  21.110  0.2744 -0.0823 -0.2284
46969OCT     C193937   2.852   2.331  10.141  0.0033 -0.0440  0.2936
46969OCT     C293938   2.492   2.503  10.438 -0.1161  0.1180 -0.0346
46970OCT     C193939  15.382   6.623  17.923 -0.2709  0.0252 -0.0565
46970OCT     C293940  15.718   6.528  18.149 -0.0290 -0.1179  0.0678
46971OCT     C193941  20.597  17.630   5.829  0.0582  0.2264  0.1742
46971OCT     C293942  20.867  17.343   5.788  0.0846 -0.0296 -0.1644
46972OCT     C193943  13.632   7.397   1.527  0.1978 -0.0465  0.2774
46972OCT     C293944  13.380   7.282   1.950  0.0636 -0.1272 -0.1110
46973OCT     C193945   1.641  10.925  22.861 -0.2327  0.0384  0.0751
46973OCT     C293946   2.025  10.816  22.572  0.0011  0.0186 -0.1897
46974OCT     C193947   5.071   1.389  22.365 -0.0020 -0.1007  0.1333
46974OCT     C293948   4.807   1.016  22.375 -0.0670  0.0371  0.2418
46975OCT     C193949  10.469   3.773  15.366 -0.0371 -0.0321 -0.0784
46975OCT     C293950  10.574   3.415  15.093  0.2602  0.2687  0.4139
46976OCT     C193951   3.170   9.588  14.539 -0.0727  0.2921 -0.0059
46976OCT     C293952   3.553   9.516  14.769  0.2301 -0.3529  0.5387
46977OCT     C193953  21.402  15.187   1.409 -0.0362 -0.1007 -0.0754
46977OCT     C293954  21.800  14.906   1.340 -0.1066 -0.0940  0.4258
46978OCT     C193955   0.269  22.440   4.478 -0.2384  0.1094 -0.2726
46978OCT     C293956   0.177  22.378   4.965  0.0183 -0.0123 -0.0885
46979OCT     C193957  23.642   8.847   4.611  0.0810 -0.2285 -0.1859
46979OCT     C293958   0.029   9.191   4.257  0.0977 -0.0646 -0.1145
46980OCT     C193959  12.066   1.354  23.223  0.0390 -0.0147  0.1822
46980OCT     C293960  11.816   1.029  23.072 -0.2912  0.0926  0.2465
46981OCT     C193961  12.649   6.468  17.836  0.2437 -0.4927  0.1009
46981OCT     C293962  12.478   6.760  17.507 -0.1346  0.1131  0.0946
46982OCT     C193963  18.267   9.646   1.511  0.0033  0.1603  0.3727
46982OCT     C293964  17.831   9.618   1.414 -0.0721  0.1689  0.3399
46983OCT     C193965   3.218   1.145  22.528  0.0102  0.2042 -0.0930
46983OCT     C293966   3.292   0.728  22.523 -0.6331 -0.0836 -0.3231
46984OCT     C193967   8.105  18.711  22.877  0.1423  0.0285  0.1008
46984OCT     C293968   8.144  18.593  23.315 -0.3286  0.1252 -0.0485
46985OCT     C193969   3.626  18.954  21.644  0.0622 -0.3665 -0.1157
46985OCT     C293970   3.539  19.184  21.199 -0.1338 -0.2089 -0.3972
46986OCT     C193971   3.192   1.641  23.613  0.1507  0.0289 -0.3365
46986OCT     C293972   3.500   1.311  23.694 -0.0060 -0.0838 -0.1888
46987OCT     C193973  15.130   1.224  20.481  0.2600 -0.0033 -0.1792
46987OCT     C293974  14.678   1.357  20.617  0.4215 -0.1351 -0.0944
46988OCT     C193975   6.981   1.224  18.543 -0.3238 -0.1030  0.2773
46988OCT     C293976   6.985   0.832  18.273  0.1552 -0.2257 -0.5342
46989OCT     C193977  22.603   3.731  19.047  0.0678 -0.3389  0.1426
46989OCT     C293978  22.499   3.513  19.453  0.0038  0.4363 -0.2586
46990OCT     C193979  19.709  16.208   0.825  0.5468  0.1108  0.0304
46990OCT     C293980  19.758  16.540   1.116  0.0596 -0.3168  0.3466
46991OCT     C193981  10.983  20.090   7.617  0.1916 -0.0335 -0.1206
46991OCT     C293982  10.761  20.488   7.792 -0.2943 -0.1086  0.3466
46992OCT     C193983   0.552  14.439  13.075  0.3975 -0.1345 -0.0139
46992OCT     C293984   0.445  14.934  13.222 -0.0926  0.0326 -0.1560
46993OCT     C193985   4.234  14.159   2.378  0.1127 -0.0450 -0.0431
46993OCT     C293986   4.195  14.223   2.876 -0.0286 -0.1887  0.4254
46994OCT     C193987   5.807  11.715  12.933  0.0899  0.3459  0.0753
46994OCT     C293988   5.722  12.122  13.226 -0.2857 -0.2676  0.1417
46995OCT     C193989   0.512   1.177  18.081  0.4165  0.1873  0.2469
46995OCT     C293990   0.351   1.097  18.546  0.3105 -0.1466 -0.1837
46996OCT     C193991  16.249   5.256   0.706  0.3540 -0.1008 -0.2422
46996OCT     C293992  16.308   5.720   0.658 -0.0770 -0.0508  0.3698
46997OCT     C193993  11.692  16.929  23.492 -0.0888  0.2230  0.1510
46997OCT     C293994  11.467  17.024   0.172  0.1857  0.2916 -0.1928
46998OCT     C193995  15.446  19.632  16.301 -0.0732  0.3375 -0.0074
46998OCT     C293996  15.419  19.990  16.602  0.0154 -0.1543 -0.0747
46999OCT     C193997   6.084  15.159  15.800  0.0165 -0.0311 -0.0261
46999OCT     C293998   6.436  14.881  15.669  0.1023  0.2208  0.2742
47000OCT     C193999   2.845   9.330  10.219 -0.1882  0.1079  0.2444
47000OCT     C294000   3.042   8.939  10.333  0.4048  0.0089  0.0866
47001OCT     C194001  16.706  17.373  14.180  0.1843 -0.1146  0.0196
47001OCT     C294002  16.650  17.009  13.905 -0.1141 -0.0763 -0.2702
47002OCT     C194003  14.505   4.563  15.924  0.2486  0.4983 -0.0496
47002OCT     C294004  14.913   4.815  15.964  0.2152  0.4293 -0.0127
47003OCT     C194005  18.384  16.119  15.754 -0.3775  0.0838 -0.2018
47003OCT     C294006  18.606  15.847  16.091  0.3757  0.0431 -0.4507
47004OCT     C194007  19.546  13.801   5.774  0.1999  0.4356 -0.0030
47004OCT     C294008  19.941  13.793   5.532  0.2255  0.1151 -0.2348
47005OCT     C194009  12.671   8.937   1.673  0.0988 -0.0742  0.0023
47005OCT     C294010  12.372   8.685   1.534  0.0259 -0.0518  0.0244
47006OCT     C194011  16.337   4.333  21.491 -0.0536  0.1998  0.2652
47006OCT     C294012  15.988   4.571  21.238 -0.1508  0.0788  0.1170
47007OCT     C194013   3.971   2.111  17.694 -0.4767 -0.1905 -0.0562
47007OCT     C294014   4.176   1.679  17.620  0.3506 -0.2471  0.1905
47008OCT     C194015  14.040  10.476  18.759 -0.0477 -0.2279  0.2601
47008OCT     C294016  13.722  10.674  19.001 -0.1274  0.3664  0.3593
47009OCT     C194017   7.442   8.602  22.475  0.2114 -0.1133  0.3409
47009OCT     C294018   7.301   8.226  22.256  0.1657 -0.1042  0.1544
47010OCT     C194019   4.717  16.803   2.646 -0.1933 -0.2034 -0.1768
47010OCT     C294020   5.005  16.920   2.316 -0.0127 -0.2426  0.6258
47011OCT     C194021   7.438  10.989  10.429  0.1600  0.2428  0.0832
47011OCT     C294022   7.361  11.444  10.613 -0.2291  0.0427 -0.1965
47012OCT     C194023   3.624  17.634  18.628 -0.3992  0.0610 -0.1978
47012OCT     C294024   3.897  17.920  18.353  0.0842  0.4045 -0.0882
47013OCT     C194025  10.220   5.242   4.356 -0.1686 -0.2721  0.3344
47013OCT     C294026  10.093   5.546   4.704 -0.0457  0.2196  0.1073
47014OCT     C194027   2.426   2.520  15.164 -0.1007 -0.0420 -0.1011
47014OCT     C294028   1.973   2.618  15.237 -0.2214 -0.2011  0.1529
47015OCT     C194029  22.514   5.431   0.920  0.0306 -0.0758 -0.0498
47015OCT     C294030  22.321   5.468   0.520 -0.3542 -0.3838  0.0419
47016OCT     C194031   4.355  20.520   0.839  0.0367  0.2301 -0.1105
47016OCT     C294032   4.156  20.285   0.419  0.1796 -0.1021 -0.0544
47017OCT     C194033  14.329   4.476  17.470 -0.2006  0.2556 -0.1183
47017OCT     C294034  14.632   4.857  17.538  0.0578 -0.0933  0.1839
47018OCT     C194035  14.320  13.359  21.960  0.0592  0.0132 -0.1580
47018OCT     C294036  14.610  13.117  21.668 -0.0698 -0.0596 -0.0084
47019OCT     C194037   4.422  11.148  14.593  0.0038 -0.1357 -0.1310
47019OCT     C294038   4.489  11.608  14.567  0.3042  0.0594 -0.3273
47020OCT     C194039  20.817   0.417  19.658 -0.0315  0.1969  0.1635
47020OCT     C294040  21.019   0.595  19.290 -0.2611  0.0907  0.1172
47021OCT     C194041   2.870   5.982  15.295  0.3594 -0.1250 -0.1528
47021OCT     C294042   2.607   6.313  15.094 -0.1474  0.3220  0.2019
47022OCT     C194043   1.989  15.475   0.664 -0.1769 -0.3141 -0.0323
47022OCT     C294044   1.528  15.285   0.771  0.1086 -0.0871 -0.2740
47023OCT     C194045  21.837  20.399  10.003  0.0719 -0.2077 -0.3200
47023OCT     C294046  21.718  19.916  10.067  0.0799  0.2271 -0.2019
47024OCT     C194047   4.809   6.820   4.572 -0.2443 -0.0808  0.0029
47024OCT     C294048   4.737   6.354   4.596  0.0223 -0.4507  0.0697
47025OCT     C194049  22.700   0.175   1.058  0.1831 -0.1832 -0.0398
47025OCT     C294050  22.815   0.011   1.358 -0.0232  0.3900 -0.0625
47026OCT     C194051  15.743   4.594  13.997 -0.1524  0.2308  0.1948
47026OCT     C294052  16.181   4.361  13.991 -0.0508 -0.1944  0.0758
47027OCT     C194053   9.803  20.162   8.370  0.0041  0.1519  0.0278
47027OCT     C294054   9.896  20.561   8.112  0.0937  0.2425 -0.2036
47028OCT     C194055   2.435   3.472   0.377  0.2879  0.0049  0.3969
47028OCT     C294056   2.246   3.625  23.720 -0.0365 -0.0388 -0.3614
47029OCT     C194057   5.448  16.329   5.994  0.0579  0.0511  0.0991
47029OCT     C294058   5.908  16.459   5.872  0.0159  0.0768 -0.1231
47030OCT     C194059  20.830   3.948  23.163 -0.0771  0.0340  0.1199
47030OCT     C294060  20.787   4.232  23.505 -0.2337 -0.0912  0.0052
47031OCT     C194061   9.939  22.155  18.745  0.0366 -0.1687 -0.3104
47031OCT     C294062  10.345  22.025  19.012  0.0867 -0.4011  0.2824
47032OCT     C194063   7.139  12.134  19.681 -0.1764 -0.1998  0.4310
47032OCT     C294064   7.448  12.332  19.968 -0.2384 -0.0388 -0.0697
47033OCT     C194065   7.887  22.413   3.514 -0.0437  0.0130  0.0578
47033OCT     C294066   8.026  22.287   3.069 -0.0730 -0.0341  0.2118
47034OCT     C194067  11.641   1.874  12.055 -0.2006  0.2379  0.0405
47034OCT     C294068  11.864   1.469  12.076 -0.0065  0.0965  0.2163
47035OCT     C194069   5.237   5.980   9.919  0.1579  0.0346 -0.1116
47035OCT     C294070   5.278   5.750   9.516 -0.0792  0.0691 -0.0104
47036OCT     C194071   4.431  13.210   4.946 -0.0293  0.3903 -0.1285
47036OCT     C294072   4.466  13.516   4.599  0.0022  0.2522 -0.3086
47037OCT     C194073   2.117   7.583   2.338 -0.0968  0.0556  0.0485
47037OCT     C294074   2.576   7.661   2.428  0.6156 -0.0067  0.3656
47038OCT     C194075  19.546   4.848  18.356  0.3299  0.0870  0.1008
47038OCT     C294076  19.614   5.129  18.748 -0.0774  0.2637  0.2107
47039OCT     C194077   1.642   8.113  11.506  0.1025 -0.1006  0.0408
47039OCT     C294078   1.505   7.647  11.530 -0.0785  0.2788 -0.1243
47040OCT     C194079  10.010  17.709  12.846  0.1610  0.1802  0.2404
47040OCT     C294080   9.689  17.843  13.039 -0.0053 -0.2334 -0.3125
47041OCT     C194081  11.824  12.788  16.800 -0.1959 -0.2677  0.0433
47041OCT     C294082  12.070  12.580  17.180  0.2212  0.1580 -0.1664
47042OCT     C194083   1.916   8.887   6.262  0.2475  0.0316 -0.1835
47042OCT     C294084   1.683   9.219   5.989 -0.0899  0.2223 -0.2006
47043OCT     C194085  12.462   8.293   4.446 -0.4959 -0.1785 -0.1230
47043OCT     C294086  12.238   8.688   4.610  0.0619  0.1761 -0.0550
47044OCT     C194087  17.947  18.998  14.721  0.2727  0.1764 -0.1983
47044OCT     C294088  18.117  18.970  14.288  0.1166  0.2094  0.0191
47045OCT     C194089   4.103   6.383  21.093  0.3710 -0.1596 -0.1045
47045OCT     C294090   4.215   6.712  21.446 -0.2008  0.2371 -0.4150
47046OCT     C194091  13.568  18.160   6.196  0.3390 -0.2787  0.0433
47046OCT     C294092  13.283  18.530   6.188 -0.1240  0.0354 -0.3651
47047OCT     C194093   3.949   6.566   3.947  0.4194 -0.0519 -0.0796
47047OCT     C294094   4.108   6.319   4.283 -0.0304 -0.0991 -0.2629
47048OCT     C194095  14.327  12.472  12.954  0.0151 -0.1206  0.1280
47048OCT     C294096  14.378  12.164  12.607  0.4969 -0.4574 -0.0109
47049OCT     C194097  21.269   9.552   8.161 -0.0482 -0.1748  0.3391
47049OCT     C294098  20.934   9.868   8.294  0.4179 -0.0581 -0.1181
47050OCT     C194099  19.412   1.794  10.939  0.0134  0.1105  0.2231
47050OCT     C294100  19.503   1.697  10.482 -0.0563 -0.1995 -0.0247
47051OCT     C194101  19.119  10.693  21.687  0.2174  0.0794 -0.0844
47051OCT     C294102  19.464  10.444  21.706 -0.1342 -0.0947 -0.4256
47052OCT     C194103   7.755  15.613   7.888  0.4126 -0.0716 -0.1854
47052OCT     C294104   7.802  16.015   7.657 -0.0160 -0.0163  0.1215
47053OCT     C194105   5.146   1.666  17.081 -0.3039 -0.2529  0.0180
47053OCT     C294106   5.064   1.523  17.550 -0.2687 -0.0084  0.0954
47054OCT     C194107   5.520  17.203   8.779 -0.0242  0.2774  0.4259
47054OCT     C294108   5.820  17.212   9.098 -0.2904 -0.1450  0.2624
47055OCT     C194109  10.181   2.009  11.168  0.1395 -0.2520 -0.0540
47055OCT     C294110  10.144   2.088  10.742 -0.0631  0.2347  0.0904
47056OCT     C194111  15.619   1.302   2.139 -0.0748  0.0430  0.1138
47056OCT     C294112  15.764   1.660   1.867  0.1704 -0.1295  0.0586
47057OCT     C194113  16.653  14.456   8.327 -0.2152 -0.1999 -0.1226
47057OCT     C294114  16.661  14.414   8.722  0.2185  0.0687  0.0431
47058OCT     C194115  15.682   3.232  19.319 -0.3089  0.3222 -0.1886
47058OCT     C294116  15.921   3.480  18.964 -0.1367  0.3169 -0.1368
47059OCT     C194117   6.652   7.756   4.740  0.1281  0.0039 -0.3225
47059OCT     C294118   7.095   7.633   4.835 -0.1988  0.0150  0.3826
47060OCT     C194119  14.913  20.725  23.268 -0.0481 -0.0513  0.2133
47060OCT     C294120  15.358  20.744  23.436  0.2829 -0.2646  0.1496
47061OCT     C194121  20.623  14.957  22.255 -0.1029 -0.1776  0.2646
47061OCT     C294122  20.871  14.870  21.833  0.0834  0.0909 -0.2013
47062OCT     C194123   4.888  17.623  10.524 -0.1506 -0.1496 -0.2619
47062OCT     C294124   4.511  17.580  10.310 -0.0323  0.0893  0.0297
47063OCT     C194125  16.091   9.337  11.236 -0.1315  0.3323  0.0565
47063OCT     C294126  16.521   9.366  11.210 -0.0900  0.0030  0.4661
47064OCT     C194127  13.774  18.292  23.719  0.0652  0.1451  0.1070
47064OCT     C294128  13.412  18.592  23.729  0.3571  0.0862  0.2164
47065OCT     C194129   9.139   7.595  22.302  0.1883 -0.1045  0.0019
47065OCT     C294130   8.816   7.309  22.332 -0.3345  0.2481 -0.0027
47066OCT     C194131  15.785  15.654  20.629 -0.0654 -0.2781 -0.1245
47066OCT     C294132  15.555  15.322  20.838  0.1213  0.2227  0.1855
47067OCT     C194133   7.553  21.155   2.502 -0.1999  0.2160  0.1396
47067OCT     C294134   7.210  21.015   2.813  0.2477  0.3010  0.2510
47068OCT     C194135  16.502   8.811  11.779  0.3040 -0.3926 -0.0097
47068OCT     C294136  16.630   9.239  11.813 -0.1408 -0.2069  0.6326
47069OCT     C194137  13.454  18.887  17.636 -0.4018  0.0705 -0.2530
47069OCT     C294138  13.698  19.232  17.821 -0.2891  0.1017 -0.0489
47070OCT     C194139  21.508   8.113  20.610  0.0824 -0.2247 -0.2082
47070OCT     C294140  21.238   8.112  21.022  0.0535 -0.1450 -0.0497
47071OCT     C194141  13.190   4.057  17.734 -0.0958  0.2669 -0.1146
47071OCT     C294142  13.611   3.786  17.865  0.1731  0.5300  0.1351
47072OCT     C194143  14.648  22.077  16.502 -0.0513  0.2887  0.1093
47072OCT     C294144  14.851  21.990  16.885  0.0018  0.0464  0.1890
47073OCT     C194145   2.004  14.387  23.198  0.1974 -0.1451 -0.0278
47073OCT     C294146   1.896  14.323  23.675  0.1843  0.1707  0.0795
47074OCT     C194147   9.391  12.376   7.490 -0.2000 -0.0387  0.1268
47074OCT     C294148   9.723  12.717   7.501  0.0970  0.2022 -0.1761
47075OCT     C194149  15.322  17.166   5.143  0.1770  0.2746 -0.0583
47075OCT     C294150  15.663  16.850   5.114  0.5843  0.0575  0.1467
47076OCT     C194151   9.702   6.815   1.151  0.1036 -0.2542  0.2661
47076OCT     C294152   9.629   6.681   1.532 -0.1859 -0.3458  0.0993
47077OCT     C194153   9.769  11.532   6.087  0.0607 -0.0707  0.0886
47077OCT     C294154   9.572  11.243   5.812  0.0290 -0.0805  0.1630
47078OCT     C194155   1.973  16.899  13.060 -0.1037 -0.1934  0.0289
47078OCT     C294156   2.098  16.443  13.003  0.2713  0.1064 -0.1261
47079OCT     C194157   3.049   8.382  13.496  0.1762 -0.0300  0.1515
47079OCT     C294158   2.702   8.486  13.253 -0.1199 -0.0539 -0.1891
47080OCT     C194159  17.070   5.788  22.686 -0.2851  0.4438  0.1180
47080OCT     C294160  16.719   5.974  22.457 -0.2263 -0.0164  0.1118
47081OCT     C194161   4.402   5.780   6.800 -0.4870 -0.0817  0.1311
47081OCT     C294162   4.150   5.637   6.470 -0.1275  0.0754  0.0857
47082OCT     C194163  16.325   8.810  23.476 -0.0833  0.2151 -0.1827
47082OCT     C294164  16.014   9.016  23.684  0.1154 -0.0521  0.0481
47083OCT     C194165  10.395  15.934   0.360 -0.2231  0.1016  0.0864
47083OCT     C294166  10.432  15.703   0.846  0.0816  0.1810 -0.0440
47084OCT     C194167  12.403   4.346   4.746  0.0709  0.2559 -0.4023
47084OCT     C294168  12.185   4.081   5.056  0.3635  0.4184 -0.0693
47085OCT     C194169  23.736  10.200  17.131  0.1089 -0.2320 -0.0190
47085OCT     C294170   0.233  10.252  17.520  0.2248  0.3382  0.0951
47086OCT     C194171   6.167   4.230  14.287 -0.1671  0.1070 -0.2403
47086OCT     C294172   5.784   4.077  14.154  0.1711  0.2393 -0.2114
47087OCT     C194173  11.101  23.211  10.337  0.1410 -0.0762  0.0478
47087OCT     C294174  10.695  22.935  10.417  0.1970  0.2170 -0.0843
47088OCT     C194175  16.403  18.659  18.003 -0.2408  0.2220  0.1463
47088OCT     C294176  16.676  19.072  17.973  0.3637  0.0828 -0.1119
47089OCT     C194177   8.500  18.518  14.968  0.2149 -0.1268 -0.0169
47089OCT     C294178   8.772  18.167  15.100 -0.0199 -0.0902  0.1428
47090OCT     C194179  19.712  10.899  17.033  0.0168  0.0868 -0.0973
47090OCT     C294180  19.815  10.943  16.547  0.3115 -0.0246 -0.3973
47091OCT     C194181   7.967  12.045   9.448 -0.0690 -0.1974  0.1209
47091OCT     C294182   8.241  12.232   9.757 -0.3325  0.1947 -0.2480
47092OCT     C194183  15.247  11.143  23.399  0.2369 -0.1295 -0.0279
47092OCT     C294184  15.676  11.261  23.653  0.1938 -0.0536 -0.1125
47093OCT     C194185  13.551  15.819  12.457  0.1229 -0.1227 -0.1525
47093OCT     C294186  13.316  15.829  12.096  0.1804 -0.2477  0.1411
47094OCT     C194187   6.692  17.670  16.045  0.0037  0.2382  0.1135
47094OCT     C294188   6.496  17.226  15.984 -0.2578  0.4924  0.2428
47095OCT     C194189  21.469  12.749   4.117 -0.0197 -0.0625  0.0519
47095OCT     C294190  21.422  13.151   3.904 -0.1135 -0.0544  0.3008
47096OCT     C194191  12.370  23.381  20.545  0.1733  0.1523  0.0288
47096OCT     C294192  12.655  23.668  20.551 -0.0249 -0.2354 -0.0249
47097OCT     C194193   0.506  19.259  22.638  0.0838  0.0012  0.0083
47097OCT     C294194   0.850  19.572  22.784  0.0767  0.1302  0.2817
47098OCT     C194195  21.732  13.910   8.630 -0.2611 -0.1667  0.1030
47098OCT     C294196  22.046  13.947   8.278 -0.0111 -0.0748  0.0514
47099OCT     C194197  11.088  14.436  11.162  0.2596  0.0523  0.1114
47099OCT     C294198  10.754  14.430  10.774  0.1232 -0.1401  0.0940
47100OCT     C194199  14.306  11.535  10.572  0.1620 -0.3456  0.1558
47100OCT     C294200  14.358  11.163  10.285  0.1722 -0.1292  0.2593
47101OCT     C194201   4.882  15.797   7.455 -0.2041  0.0108 -0.1288
47101OCT     C294202   4.740  16.182   7.614  0.1729 -0.0262 -0.2483
47102OCT     C194203  15.976  16.004  11.040 -0.0170 -0.0110 -0.2068
47102OCT     C294204  16.004  16.370  10.787  0.3286 -0.0715 -0.0661
47103OCT     C194205   5.245   1.194   3.891  0.2963  0.0975  0.0174
47103OCT     C294206   5.455   1.096   4.312 -0.3742  0.1646 -0.1343
47104OCT     C194207  20.579  10.142  18.715  0.1088  0.1201  0.0042
47104OCT     C294208  20.968  10.238  18.428  0.2981 -0.2089 -0.1932
47105OCT     C194209  13.384   7.465  15.272 -0.2387  0.0662 -0.1518
47105OCT     C294210  12.951   7.648  15.262  0.2696 -0.1203  0.0386
47106OCT     C194211   2.750  15.229  21.569  0.0961  0.2437  0.0162
47106OCT     C294212   3.092  14.953  21.761 -0.0496  0.5236  0.2101
47107OCT     C194213   4.075  14.838  19.690 -0.0006 -0.1331  0.1665
47107OCT     C294214   4.315  14.526  19.477  0.1141  0.1626  0.4435
47108OCT     C194215   2.612  17.494  13.206 -0.1243 -0.4213  0.0889
47108OCT     C294216   2.214  17.352  13.070 -0.0334  0.6262  0.1529
47109OCT     C194217  13.289  19.084   1.284 -0.0475 -0.0914  0.1167
47109OCT     C294218  13.610  19.053   1.573 -0.0665  0.3977  0.0782
47110OCT     C194219   6.360   4.346  21.665  0.0216 -0.3934  0.0740
47110OCT     C294220   6.693   4.075  21.476  0.1023  0.0537 -0.1419
47111OCT     C194221  10.574  20.288  22.235 -0.2621 -0.2416 -0.3681
47111OCT     C294222  10.141  20.064  22.295  0.2103  0.1433 -0.1976
47112OCT     C194223   4.901   1.776  18.305 -0.1059  0.3048  0.0960
47112OCT     C294224   5.301   1.622  18.458 -0.1090  0.0120 -0.3557
47113OCT     C194225  22.162   2.374  22.799  0.4308 -0.1275  0.1550
47113OCT     C294226  21.736   2.542  22.582 -0.1188  0.1702 -0.1641
47114OCT     C194227  16.468   7.820  19.765 -0.0254  0.2670  0.1351
47114OCT     C294228  16.560   7.450  20.010  0.1958  0.7081  0.3618
47115OCT     C194229  18.686   3.702  22.805  0.2713 -0.1553 -0.2250
47115OCT     C294230  18.960   3.363  22.632  0.1934 -0.1403  0.2629
47116OCT     C194231  15.505  17.531  23.042  0.1656 -0.2587  0.3015
47116OCT     C294232  15.437  17.874  22.713  0.1448 -0.1477  0.1112
47117OCT     C194233   0.133   3.280  12.003  0.0736  0.1730  0.0445
47117OCT     C294234   0.240   3.291  11.569  0.2073 -0.3928  0.0973
47118OCT     C194235   0.430  21.175   6.286 -0.1367  0.1390 -0.0290
47118OCT     C294236   0.686  21.454   6.039  0.2711 -0.1396  0.2262
47119OCT     C194237   6.892  20.505  19.674  0.2784  0.1116  0.0988
47119OCT     C294238   7.198  20.353  19.364 -0.0978 -0.1121 -0.0011
47120OCT     C194239   7.103   0.307  10.112 -0.4241 -0.1582  0.3045
47120OCT     C294240   6.748   0.241  10.377  0.0014  0.0664 -0.2723
47121OCT     C194241  22.193  12.731  14.190  0.3254  0.2410  0.2061
47121OCT     C294242  22.432  12.383  13.964  0.1033 -0.2820  0.3728
47122OCT     C194243  21.153  15.938   6.345 -0.1923  0.4341 -0.2001
47122OCT     C294244  21.331  16.066   6.747 -0.2945  0.2104  0.4061
47123OCT     C194245   4.197   6.918   3.704  0.1944  0.0937 -0.2370
47123OCT     C294246   3.770   6.868   3.530 -0.1019  0.1520  0.3307
47124OCT     C194247   5.628   7.707   2.494 -0.1225 -0.0840 -0.0327
47124OCT     C294248   5.553   7.277   2.269  0.2204 -0.1511 -0.0635
47125OCT     C194249  18.698  10.751  19.384  0.1146  0.0114  0.3785
47125OCT     C294250  18.476  10.755  18.928  0.2394  0.1882 -0.0942
47126OCT     C194251  22.844   0.382  16.015  0.1456 -0.1861  0.1055
47126OCT     C294252  23.176   0.699  16.185  0.1851  0.2238  0.3312
47127OCT     C194253  16.043  20.896   4.757 -0.0282  0.2247  0.0830
47127OCT     C294254  16.131  20.498   5.006  0.1701 -0.1924 -0.5227
47128OCT     C194255  18.813  20.732  16.256  0.3401 -0.2148 -0.3574
47128OCT     C294256  18.511  20.795  15.895  0.0468  0.1287  0.1673
47129OCT     C194257  23.068  14.015  17.498 -0.1449 -0.3694  0.0545
47129OCT     C294258  22.843  13.647  17.612 -0.0396 -0.3029  0.2504
47130OCT     C194259  20.100   1.244   4.232 -0.1260  0.1075  0.1969
47130OCT     C294260  19.688   1.005   4.271  0.0214  0.2250 -0.2180
47131OCT     C194261   8.788  12.883  16.104 -0.3888 -0.1253 -0.3995
47131OCT     C294262   8.530  13.303  16.042 -0.1147  0.0913  0.0618
47132OCT     C194263  10.153   5.405   1.257  0.1173  0.0923 -0.2152
47132OCT     C294264  10.590   5.415   1.506  0.5459  0.0596 -0.0901
47133OCT     C194265   4.967  22.716   3.274 -0.2189 -0.1642 -0.1979
47133OCT     C294266   5.435  22.767   3.269 -0.4560  0.0861 -0.0536
47134OCT     C194267   4.622  12.883  10.884 -0.0759  0.1131  0.1153
47134OCT     C294268   4.892  12.952  10.543  0.0928  0.0158  0.0176
47135OCT     C194269  22.148  11.980   4.175  0.1946 -0.0197  0.3517
47135OCT     C294270  22.331  11.541   4.076 -0.2393 -0.1213  0.1470
47136OCT     C194271   3.340   6.522   5.789  0.5085 -0.1219 -0.0057
47136OCT     C294272   3.672   6.677   5.502  0.4875 -0.0728  0.0361
47137OCT     C194273   4.632  10.120   4.416 -0.1924  0.2062  0.1404
47137OCT     C294274   4.735   9.924   4.843  0.0184  0.3257 -0.0650
47138OCT     C194275   7.111   0.285   9.174 -0.2940 -0.4411 -0.0372
47138OCT     C294276   7.246  23.590   9.153 -0.2151  0.1180 -0.1399
47139OCT     C194277   9.684  12.549  20.103 -0.1469 -0.1469  0.1734
47139OCT     C294278   9.443  12.324  20.418  0.0039  0.0162  0.0132
47140OCT     C194279   2.469  18.680   9.440  0.0320  0.1313 -0.0188
47140OCT     C294280   2.198  19.047   9.291  0.1871  0.0440  0.0127
47141OCT     C194281   7.835  11.906  22.669  0.3211 -0.0122 -0.0083
47141OCT     C294282   7.604  12.296  22.425 -0.0530  0.0829 -0.0903
47142OCT     C194283   7.631  19.436  23.471  0.0050  0.1501 -0.0129
47142OCT     C294284   7.612  19.474   0.200 -0.2672 -0.0567  0.1854
47143OCT     C194285   6.448  17.363   2.705 -0.0206  0.0194  0.2650
47143OCT     C294286   6.241  17.167   3.076  0.0003 -0.1102  0.4341
47144OCT     C194287  14.439   9.327  16.392 -0.3778 -0.1529 -0.4267
47144OCT     C294288  14.401   9.591  16.756 -0.3361 -0.1214 -0.1039
47145OCT     C194289   1.831  13.479   1.491 -0.1417 -0.0865 -0.1493
47145OCT     C294290   1.624  13.077   1.381  0.2265 -0.3429 -0.0084
47146OCT     C194291  18.988   7.912  10.977 -0.0597 -0.3818  0.3481
47146OCT     C294292  18.982   8.242  10.539 -0.0433 -0.2308 -0.1621
47147OCT     C194293  10.808   2.773  11.254  0.0708 -0.0591 -0.0009
47147OCT     C294294  10.361   2.904  11.310  0.1142  0.0302  0.3866
47148OCT     C194295   1.743  16.511   5.561 -0.6154  0.0883  0.1732
47148OCT     C294296   1.697  16.663   5.105  0.0196 -0.1143  0.4358
47149OCT     C194297   3.320  17.981  19.966  0.2742  0.1030  0.1303
47149OCT     C294298   3.201  17.594  20.011  0.0373  0.2133 -0.0038
47150OCT     C194299   7.757  21.658  21.772  0.1312  0.0196  0.1189
47150OCT     C294300   8.140  21.599  21.562 -0.1010 -0.1344  0.3684
47151OCT     C194301   9.708  15.863  22.498  0.2417 -0.0992 -0.1111
47151OCT     C294302  10.159  15.887  22.392 -0.2230 -0.0599  0.3279
47152OCT     C194303   8.278  14.840  18.625 -0.0708  0.1052 -0.1107
47152OCT     C294304   8.192  14.740  18.222  0.2209  0.3102  0.0388
47153OCT     C194305  14.996  18.073   1.663 -0.6498  0.2564  0.1235
47153OCT     C294306  14.942  18.494   1.515 -0.4015  0.1925 -0.2141
47154OCT     C194307  19.902  22.370  16.123 -0.1134 -0.4621 -0.1629
47154OCT     C294308  19.757  22.158  16.536 -0.0685 -0.0982 -0.0609
47155OCT     C194309   6.518   1.498  22.923 -0.2348 -0.2038  0.0158
47155OCT     C294310   6.449   1.260  22.491  0.1521 -0.2588 -0.0447
47156OCT     C194311  13.182  13.536   7.048  0.0413 -0.1473  0.1759
47156OCT     C294312  12.666  13.365   6.985 -0.0974 -0.0372 -0.0696
47157OCT     C194313  22.297   5.324  19.009 -0.0997 -0.0041  0.1749
47157OCT     C294314  22.268   5.343  19.501  0.1110 -0.2602 -0.0570
47158OCT     C194315   4.971  23.161   3.098  0.1178  0.2866 -0.0338
47158OCT     C294316   4.516  22.903   3.161 -0.0253 -0.1741  0.2531
47159OCT     C194317   7.214   4.631  15.007 -0.3984 -0.1255  0.0722
47159OCT     C294318   6.928   4.502  14.700 -0.1661  0.0885 -0.0484
47160OCT     C194319  23.526  16.167  22.632 -0.1703  0.2464 -0.1697
47160OCT     C294320  23.490  16.455  22.277 -0.1164 -0.0845 -0.2344
47161OCT     C194321  21.331  20.854  14.962 -0.1729 -0.1188  0.0616
47161OCT     C294322  20.919  20.923  14.721 -0.0806  0.0245 -0.0509
47162OCT     C194323   1.156  11.644  13.915  0.3082  0.2232  0.0178
47162OCT     C294324   1.490  11.351  13.918 -0.3803 -0.0939 -0.1443
47163OCT     C194325   6.686  15.533   0.743 -0.2207  0.0506 -0.5032
47163OCT     C294326   6.562  15.881   0.540 -0.2720 -0.7647  0.0020
47164OCT     C194327   9.463   6.271   0.131 -0.2451 -0.0938  0.0717
47164OCT     C294328   9.127   6.617   0.027  0.3604 -0.0716 -0.1795
47165OCT     C194329   7.053  10.468  22.235  0.0064 -0.4488 -0.0491
47165OCT     C294330   6.745  10.682  21.966 -0.5376 -0.3742  0.2601
47166OCT     C194331  21.787   6.622  17.772  0.0519 -0.2923 -0.2858
47166OCT     C294332  22.146   6.634  18.080 -0.1362 -0.0959 -0.2054
47167OCT     C194333   1.108   6.069   8.838  0.1476 -0.1764  0.0143
47167OCT     C294334   1.254   5.769   8.516  0.1109  0.0697 -0.1250
47168OCT     C194335   7.397  21.952  22.130  0.1051 -0.0231 -0.0171
47168OCT     C294336   7.095  21.719  22.413 -0.3362 -0.2508 -0.0250
47169OCT     C194337  11.514  13.273  16.653  0.0216 -0.1575 -0.3010
47169OCT     C294338  11.505  13.139  17.134  0.2515  0.3102 -0.0541
47170OCT     C194339  17.382  13.239  22.724  0.0434 -0.0182  0.1397
47170OCT     C294340  17.450  13.333  22.300  0.0528 -0.1310  0.2104
47171OCT     C194341   3.290  22.833   8.405 -0.1564 -0.3437 -0.0377
47171OCT     C294342   3.590  23.154   8.652 -0.1964 -0.1377  0.0188
47172OCT     C194343   4.858  16.611  15.214  0.1886 -0.3508  0.1492
47172OCT     C294344   4.628  16.178  15.242 -0.2662 -0.0140 -0.1788
47173OCT     C194345   9.729   4.613  15.486  0.0703  0.0293  0.1291
47173OCT     C294346  10.101   4.934  15.498 -0.0516  0.1086  0.0556
47174OCT     C194347   3.323  11.416  19.394 -0.2629 -0.2070 -0.1777
47174OCT     C294348   2.996  11.416  19.064 -0.3857 -0.2157  0.2880
47175OCT     C194349  14.966  22.929  17.273 -0.2017 -0.1759 -0.0535
47175OCT     C294350  14.640  23.171  17.506  0.0341 -0.1341 -0.1430
47176OCT     C194351  18.291   3.762   5.017  0.3906  0.0060 -0.1195
47176OCT     C294352  18.744   3.670   5.058 -0.1156 -0.0166  0.2489
47177OCT     C194353   7.804   7.861  22.247  0.0395 -0.4554  0.2657
47177OCT     C294354   7.790   8.120  21.868  0.1931  0.1181  0.0504
47178OCT     C194355  22.861  18.988   1.178 -0.2797 -0.0083  0.0114
47178OCT     C294356  22.379  19.050   1.183 -0.3809  0.0164 -0.2533
47179OCT     C194357   3.842  20.331  17.962  0.2028  0.0285  0.1715
47179OCT     C294358   4.093  20.053  17.824  0.2397 -0.3492  0.1040
47180OCT     C194359  10.702   1.348  18.773 -0.1324 -0.0607 -0.0024
47180OCT     C294360  11.105   1.360  18.954 -0.2261  0.1668 -0.0628
47181OCT     C194361  12.767  11.695   9.509  0.3959 -0.0640  0.1056
47181OCT     C294362  12.702  11.582   9.955 -0.2108 -0.0081  0.4562
47182OCT     C194363  10.100   5.095   6.682 -0.1352 -0.2284  0.0794
47182OCT     C294364  10.072   4.705   6.380  0.1338 -0.0903 -0.1186
47183OCT     C194365  19.246  12.394  11.216 -0.1367  0.0222 -0.0115
47183OCT     C294366  19.376  12.194  11.620 -0.2313 -0.2194 -0.0595
47184OCT     C194367   4.523  15.612   2.850  0.0799 -0.1292 -0.0922
47184OCT     C294368   4.038  15.533   3.020  0.3193 -0.1572  0.1514
47185OCT     C194369   0.630   5.156   4.186 -0.0659 -0.0455  0.0094
47185OCT     C294370   0.795   4.702   4.311 -0.0350 -0.4191 -0.2742
47186OCT     C194371   4.410   4.944  13.015 -0.0855  0.4355 -0.2023
47186OCT     C294372   4.159   5.032  12.668  0.2062 -0.2450  0.0389
47187OCT     C194373   4.257  20.026  20.421  0.2008  0.0502  0.2669
47187OCT     C294374   3.909  19.924  20.105 -0.0731  0.0740 -0.0281
47188OCT     C194375  23.368   0.381  18.734 -0.0520  0.0722  0.3232
47188OCT     C294376  23.153   0.754  18.886  0.0670 -0.0090 -0.2496
47189OCT     C194377   6.075  12.139  22.779  0.1846 -0.1554 -0.0849
47189OCT     C294378   6.424  11.967  22.490 -0.3934  0.0695  0.2237
47190OCT     C194379  15.373   0.500  13.538  0.2601  0.0476 -0.0274
47190OCT     C294380  15.696   0.315  13.829  0.0776 -0.1148 -0.1982
47191OCT     C194381  12.746  22.536   8.271 -0.0254  0.0097  0.1365
47191OCT     C294382  12.653  22.367   8.688 -0.2348  0.2379 -0.2434
47192OCT     C194383   2.365  18.216  13.655  0.1353 -0.1285 -0.0998
47192OCT     C294384   2.191  17.830  13.801  0.0166 -0.5206  0.1777
47193OCT     C194385  21.503   1.568  15.118 -0.1043 -0.2133 -0.0841
47193OCT     C294386  21.335   1.829  14.751  0.1318 -0.0666 -0.2448
47194OCT     C194387   0.884  16.489   7.308  0.0198 -0.0638 -0.3450
47194OCT     C294388   1.397  16.484   7.318 -0.0107  0.2459  0.0754
47195OCT     C194389   2.676   9.744   7.825  0.2651 -0.0993  0.1386
47195OCT     C294390   2.976   9.389   7.981  0.0882  0.2934 -0.1284
47196OCT     C194391  11.624  11.969   0.779  0.0900 -0.4173 -0.0400
47196OCT     C294392  11.781  11.507   0.936  0.3028 -0.1016 -0.2975
47197OCT     C194393  12.905  19.630  16.521  0.0441  0.0088  0.0934
47197OCT     C294394  13.333  19.778  16.288 -0.0128  0.1238 -0.5435
47198OCT     C194395  14.647   3.355  10.707 -0.3425 -0.0382  0.0789
47198OCT     C294396  14.586   3.788  10.862 -0.3483 -0.1453 -0.1508
47199OCT     C194397  18.202   7.583  18.067 -0.1488  0.2868  0.4755
47199OCT     C294398  18.160   8.039  18.032 -0.1740  0.0748 -0.2772
47200OCT     C194399  18.533  20.495   9.635  0.2166  0.1253  0.2515
47200OCT     C294400  18.507  20.097   9.938 -0.2933  0.0187 -0.3665
47201OCT     C194401   8.778   2.998   6.330 -0.0211  0.0420 -0.1197
47201OCT     C294402   8.433   3.068   6.043 -0.3430  0.0029  0.0138
47202OCT     C194403   9.958   4.565  20.196 -0.0399 -0.4089 -0.2149
47202OCT     C294404  10.145   4.673  20.604  0.0551  0.2885  0.2271
47203OCT     C194405  17.389   9.467   7.642 -0.1895 -0.0738 -0.1067
47203OCT     C294406  17.132   9.712   7.299 -0.2696 -0.0934  0.0598
47204OCT     C194407  13.869  18.385  19.452  0.0131 -0.0493 -0.3291
47204OCT     C294408  13.851  18.676  19.843 -0.1437  0.0995 -0.2663
47205OCT     C194409  14.729   5.289  12.243  0.1997 -0.0707 -0.1335
47205OCT     C294410  14.623   4.859  12.229 -0.4058  0.0381  0.0357
47206OCT     C194411  16.661  20.408  22.145 -0.2032  0.0682 -0.0449
47206OCT     C294412  16.793  20.371  21.688  0.0965  0.4214 -0.0078
47207OCT     C194413   2.744  20.377  13.467 -0.3031 -0.1717  0.1569
47207OCT     C294414   2.620  20.750  13.644 -0.0577 -0.0534 -0.0375
47208OCT     C194415  16.532  12.957  12.406  0.4388  0.1287  0.2055
47208OCT     C294416  16.962  13.002  12.557 -0.2761  0.1363 -0.0649
47209OCT     C194417   9.405  15.390   6.810 -0.1964  0.0650  0.1183
47209OCT     C294418   9.403  15.044   7.146  0.1139  0.1678  0.1460
47210OCT     C194419  23.165  13.840  21.778  0.1271 -0.1523 -0.4314
47210OCT     C294420  22.925  14.175  21.494 -0.1825 -0.2387 -0.3859
47211OCT     C194421  22.632   5.199  10.593 -0.0446 -0.4075  0.1569
47211OCT     C294422  22.802   5.528  10.854 -0.1142  0.1201 -0.1330
47212OCT     C194423   3.275  12.978  20.049 -0.3034  0.0868 -0.3088
47212OCT     C294424   3.254  12.818  20.452  0.0086 -0.5941 -0.4070
47213OCT     C194425  10.566   0.482  18.998  0.1990  0.0125 -0.1153
47213OCT     C294426  10.413   0.918  19.019  0.0280  0.0629  0.2430
47214OCT     C194427  22.352  17.412   4.380 -0.1607 -0.2952  0.2948
47214OCT     C294428  22.081  17.143   4.655  0.1110  0.1332  0.3014
47215OCT     C194429  12.513   5.674  16.670 -0.1640 -0.2037 -0.1975
47215OCT     C294430  12.255   5.594  17.060 -0.0011  0.0366 -0.1056
47216OCT     C194431  17.772  14.202  16.673  0.0651  0.0092  0.2731
47216OCT     C294432  18.029  13.962  16.394 -0.2934  0.4991 -0.0461
47217OCT     C194433   6.311  20.486   1.330 -0.4934 -0.1233 -0.1527
47217OCT     C294434   6.730  20.451   1.484 -0.3677 -0.1877 -0.0377
47218OCT     C194435   0.215  21.814  18.192  0.3241 -0.1208 -0.5320
47218OCT     C294436  23.643  21.460  18.266  0.2769  0.0143 -0.3430
47219OCT     C194437  20.124   6.710  16.506 -0.2929 -0.0136  0.0993
47219OCT     C294438  20.451   6.857  16.209  0.0991 -0.3550  0.1683
47220OCT     C194439   4.771  22.518  11.739  0.0191  0.0477 -0.4039
47220OCT     C294440   5.011  22.184  11.474  0.0369 -0.2129 -0.0593
47221OCT     C194441  19.346  17.910  18.481  0.1968 -0.1233 -0.0182
47221OCT     C294442  19.003  17.587  18.634  0.0872 -0.0612  0.0716
47222OCT     C194443  21.941  14.686  23.306  0.1062 -0.1663 -0.0158
47222OCT     C294444  21.866  14.639  22.824 -0.0091 -0.0834  0.1804
47223OCT     C194445  14.762  22.098  22.183  0.1179 -0.0565 -0.0350
47223OCT     C294446  15.038  22.465  22.103 -0.0841  0.2166  0.0271
47224OCT     C194447   7.073  11.337  21.213 -0.2301 -0.4691  0.1239
47224OCT     C294448   7.460  11.536  21.288 -0.2335 -0.0663  0.6312
47225OCT     C194449  11.124   4.236   8.832  0.0047  0.0592 -0.2064
47225OCT     C294450  10.797   4.415   9.158  0.0929  0.2268  0.0893
47226OCT     C194451   0.828   7.337  16.574  0.1657 -0.2120 -0.0081
47226OCT     C294452   0.435   7.324  16.839 -0.4451  0.4704  0.3574
47227OCT     C194453   0.564  11.301  19.380  0.0062  0.5309  0.0572
47227OCT     C294454   0.767  11.019  19.681 -0.3036 -0.0004 -0.2520
47228OCT     C194455  20.105  13.372  15.961 -0.2128 -0.3599 -0.3247
47228OCT     C294456  19.992  13.265  15.488 -0.1835 -0.0958  0.2477
47229OCT     C194457   7.677  13.141  17.920  0.1798  0.0859 -0.0501
47229OCT     C294458   7.654  13.320  18.333  0.0105 -0.1177  0.2350
47230OCT     C194459  13.227  15.996   0.573  0.1304 -0.1893 -0.2012
47230OCT     C294460  13.609  16.079   0.325 -0.0036  0.3204 -0.3276
47231OCT     C194461  16.214  18.651  11.666 -0.1460  0.3751 -0.1237
47231OCT     C294462  16.438  18.479  11.326  0.0560 -0.1475 -0.2373
47232OCT     C194463   7.506   8.298   5.874  0.0463  0.2175  0.3350
47232OCT     C294464   7.902   8.276   5.670  0.2990 -0.3254  0.2907
47233OCT     C194465  10.914   7.182   7.218 -0.3068 -0.0366 -0.2054
47233OCT     C294466  10.845   7.679   7.135  0.0872  0.0782 -0.2712
47234OCT     C194467  18.024   3.165  23.507  0.1905 -0.0125  0.0627
47234OCT     C294468  17.899   3.515   0.050 -0.1337 -0.0265 -0.2111
47235OCT     C194469  16.470   6.764  19.563 -0.2120 -0.1688 -0.2681
47235OCT     C294470  16.232   7.067  19.857  0.1665 -0.3611 -0.6726
47236OCT     C194471   5.979  19.091  13.285 -0.3722  0.0172 -0.0317
47236OCT     C294472   5.663  18.763  13.311 -0.0961 -0.2627 -0.1137
47237OCT     C194473  19.658   3.110  10.783  0.0002 -0.2076  0.1179
47237OCT     C294474  19.275   3.311  11.004  0.2235  0.0126 -0.4425
47238OCT     C194475  18.811   1.579   9.676  0.1599 -0.1540 -0.0892
47238OCT     C294476  18.407   1.520   9.890 -0.0138 -0.0639  0.0295
47239OCT     C194477  13.889  11.359  14.330  0.0142 -0.2518  0.1962
47239OCT     C294478  13.465  11.371  14.289 -0.1767 -0.2341  0.1095
47240OCT     C194479  21.272  19.768  15.510 -0.4812 -0.3467  0.1365
47240OCT     C294480  21.461  20.151  15.245 -0.0702  0.1777 -0.0122
47241OCT     C194481   4.204   5.288  12.212 -0.1471 -0.1373 -0.0860
47241OCT     C294482   4.275   4.831  12.217 -0.0538  0.1685 -0.1336
47242OCT     C194483  14.989   7.691  23.115  0.0354 -0.1483 -0.1537
47242OCT     C294484  15.342   7.442  23.375 -0.1104 -0.1997  0.1593
47243OCT     C194485   7.421  17.202  12.118 -0.2328 -0.0513  0.2249
47243OCT     C294486   7.560  17.249  11.645 -0.0423  0.3233  0.0413
47244OCT     C194487  15.134  19.793   6.565  0.2422 -0.0160 -0.1291
47244OCT     C294488  14.998  20.235   6.381  0.0602  0.3694  0.0960
47245OCT     C194489   1.547  21.702  23.655 -0.2662  0.1733 -0.0621
47245OCT     C294490   1.523  21.490   0.363 -0.0285  0.1199 -0.0292
47246OCT     C194491  19.341  12.798   6.160 -0.3177 -0.1751 -0.1267
47246OCT     C294492  19.002  13.122   6.078  0.4426  0.1386  0.1674
47247OCT     C194493  20.298  16.249   0.064 -0.0015  0.0408 -0.0216
47247OCT     C294494  20.750  16.222   0.202 -0.0706 -0.1798  0.1440
47248OCT     C194495   7.176   1.881   8.173 -0.1571  0.0716  0.4788
47248OCT     C294496   7.039   1.977   8.552  0.0737  0.1880 -0.4686
47249OCT     C194497   4.560  11.207   0.507 -0.1097 -0.0097  0.1126
47249OCT     C294498   4.235  11.463   0.678  0.2424 -0.3415 -0.3045
47250OCT     C194499  13.857  13.157  14.980  0.0389 -0.1451 -0.1639
47250OCT     C294500  13.702  12.816  14.679  0.0704 -0.1656 -0.1820
47251OCT     C194501  16.358  10.603   9.151 -0.0565 -0.0416  0.2085
47251OCT     C294502  15.961  10.939   9.254 -0.0487 -0.1527  0.1731
47252OCT     C194503   1.072  23.179   4.107  0.3098  0.1484  0.1554
47252OCT     C294504   0.958  23.605   3.865 -0.0317  0.1878  0.0808
47253OCT     C194505  14.393  16.433   0.486  0.0382 -0.3452 -0.0136
47253OCT     C294506  14.760  16.209   0.248  0.0196 -0.0758  0.0188
47254OCT     C194507  16.624   9.913  16.415  0.0737 -0.0621 -0.1129
47254OCT     C294508  16.289   9.647  16.574 -0.0248 -0.1303 -0.1421
47255OCT     C194509   6.957  15.361  21.594  0.1898 -0.2984 -0.1593
47255OCT     C294510   7.422  15.369  21.528 -0.3046  0.5864 -0.1544
47256OCT     C194511   4.084  10.449  22.510 -0.0094 -0.3858 -0.2289
47256OCT     C294512   3.812  10.134  22.242  0.1541 -0.3012 -0.0823
47257OCT     C194513   8.578   6.250  11.966  0.0824  0.2208  0.1517
47257OCT     C294514   8.517   5.961  11.617 -0.2477  0.0402  0.5124
47258OCT     C194515  16.798  16.207   5.151 -0.0943 -0.0145  0.1560
47258OCT     C294516  16.825  15.793   4.831 -0.2941  0.2136 -0.3394
47259OCT     C194517  19.271  22.628   0.388  0.2955  0.0720 -0.3327
47259OCT     C294518  19.547  22.528   0.792  0.1012  0.4524 -0.4263
47260OCT     C194519  14.884   9.018  21.694  0.0059 -0.2743 -0.1827
47260OCT     C294520  14.596   8.654  21.716 -0.0294  0.1992 -0.1776
47261OCT     C194521  19.384   7.326   1.147 -0.1598 -0.0343  0.0064
47261OCT     C294522  19.310   7.402   0.746 -0.0987 -0.2878 -0.0253
47262OCT     C194523  19.922   2.399  14.772 -0.3122  0.0769  0.1557
47262OCT     C294524  19.567   2.149  14.917 -0.1165  0.0510 -0.1718
47263OCT     C194525  22.063  13.318  16.832 -0.2974  0.2091 -0.0481
47263OCT     C294526  22.266  13.690  16.927 -0.0058  0.3482 -0.2284
47264OCT     C194527   6.401   6.504  15.647 -0.2473  0.2208  0.1038
47264OCT     C294528   6.480   6.321  15.266 -0.1313 -0.1407  0.2051
47265OCT     C194529  21.472  21.819  16.233 -0.0785 -0.1502 -0.1678
47265OCT     C294530  21.385  21.474  15.885 -0.2851 -0.0764  0.1823
47266OCT     C194531   8.111  12.297  21.451  0.5570 -0.1160  0.2393
47266OCT     C294532   8.287  11.868  21.267  0.1252 -0.3653  0.3032
47267OCT     C194533  20.855  19.904  15.817 -0.1036 -0.0921 -0.2369
47267OCT     C294534  20.622  19.550  15.686  0.0312 -0.0490  0.0938
47268OCT     C194535  18.806  14.057   8.272 -0.4026  0.1352  0.4517
47268OCT     C294536  18.916  13.693   8.525  0.1597 -0.0270 -0.2615
47269OCT     C194537  10.908   1.007  19.863 -0.4648 -0.1017 -0.0463
47269OCT     C294538  11.209   1.326  19.662 -0.4864 -0.1900 -0.2970
47270OCT     C194539   3.959   7.705   1.188  0.2326  0.1374 -0.2015
47270OCT     C294540   3.891   7.823   1.654 -0.1228 -0.2326  0.1431
47271OCT     C194541   5.811   5.885  18.972  0.1449  0.0827 -0.1581
47271OCT     C294542   5.625   5.507  18.812  0.1260  0.0723  0.3166
47272OCT     C194543  20.580  20.809   3.739  0.0243  0.1175 -0.1095
47272OCT     C294544  20.471  20.622   4.177  0.3004  0.0668  0.2770
47273OCT     C194545  14.795  13.158   6.784  0.1980  0.3067  0.2505
47273OCT     C294546  14.794  13.140   7.277  0.3755 -0.0178 -0.2843
47274OCT     C194547   0.774   0.954   4.051  0.1033  0.4584 -0.2339
47274OCT     C294548   1.199   1.056   3.806  0.1776 -0.1164 -0.1518
47275OCT     C194549   8.485  13.221   7.712  0.0921 -0.2159 -0.1720
47275OCT     C294550   8.792  13.252   7.323  0.1443 -0.4390 -0.3247
47276OCT     C194551  13.295  15.918   1.876 -0.0914  0.3816 -0.1272
47276OCT     C294552  13.546  15.687   2.282 -0.0965 -0.1886 -0.0348
47277OCT     C194553   6.475   7.801   3.152  0.1486 -0.0201  0.1921
47277OCT     C294554   6.438   7.408   3.388  0.0205  0.0485 -0.0112
47278OCT     C194555  15.641   8.063   5.936 -0.0997  0.0952 -0.1279
47278OCT     C294556  15.253   7.869   6.135 -0.1596  0.3287  0.0025
47279OCT     C194557  12.119  16.079  15.215 -0.0624 -0.0528  0.1176
47279OCT     C294558  12.541  16.212  15.039 -0.2520 -0.1787  0.1414
47280OCT     C194559   1.016   9.139  14.830 -0.3182  0.0925 -0.0490
47280OCT     C294560   0.872   8.848  15.191 -0.1511  0.0839 -0.0506
47281OCT     C194561   2.885  16.997  10.921  0.3995  0.1243 -0.0521
47281OCT     C294562   3.297  17.186  11.053  0.1694  0.2644 -0.2770
47282OCT     C194563  16.652   9.348  12.813  0.1293 -0.0628  0.0864
47282OCT     C294564  16.633   9.568  12.402  0.2174  0.1500 -0.1423
47283OCT     C194565  14.822   6.734  23.192  0.3148  0.2526  0.2933
47283OCT     C294566  15.016   6.313  23.041 -0.0489  0.4608 -0.1169
47284OCT     C194567   0.107   1.610  18.184 -0.3918  0.2943 -0.2619
47284OCT     C294568  23.679   1.881  17.901  0.0462  0.0953  0.2225
47285OCT     C194569   6.081  21.732  23.045  0.0489 -0.0419 -0.1228
47285OCT     C294570   6.223  21.825  22.551  0.1439 -0.0496  0.1131
47286OCT     C194571   7.600   9.099  12.184 -0.0449  0.1304  0.2423
47286OCT     C294572   7.314   9.336  12.419 -0.1460 -0.1945 -0.0699
47287OCT     C194573   0.088  15.573   2.303  0.1236  0.1893 -0.2009
47287OCT     C294574  23.523  15.838   2.445  0.2478  0.2748  0.1151
47288OCT     C194575   6.194   3.548  22.731  0.2209  0.3212  0.2949
47288OCT     C294576   5.937   3.172  22.637  0.0474 -0.0008  0.2317
47289OCT     C194577  10.645   2.497   9.826 -0.1341  0.1072  0.2834
47289OCT     C294578  10.546   2.061  10.006  0.0136 -0.0380  0.2759
47290OCT     C194579  16.995  18.046   7.673  0.1597 -0.2590 -0.3268
47290OCT     C294580  17.029  17.827   8.109 -0.0188 -0.1545 -0.0191
47291OCT     C194581   2.185  18.881   4.420  0.0713 -0.5278  0.1239
47291OCT     C294582   2.380  18.944   4.006 -0.1863  0.2308  0.0799
47292OCT     C194583  15.460  15.029   1.172 -0.2974 -0.0583  0.0418
47292OCT     C294584  15.310  15.458   1.256  0.0205  0.0920 -0.0689
47293OCT     C194585  15.668  14.955   9.266 -0.0446 -0.1628 -0.1200
47293OCT     C294586  16.074  14.774   9.405  0.2605 -0.0879  0.0241
47294OCT     C194587  17.942  10.216   6.055  0.0355  0.4506 -0.0190
47294OCT     C294588  18.058  10.060   6.440  0.0481 -0.0206  0.1649
47295OCT     C194589  18.928   2.805  13.720  0.1854  0.0579 -0.1069
47295OCT     C294590  18.517   2.784  14.011  0.2028  0.1905 -0.0726
47296OCT     C194591  17.379   0.743  17.825  0.0072 -0.1971  0.0034
47296OCT     C294592  17.195   0.967  17.484 -0.4467  0.2001 -0.1773
47297OCT     C194593   8.540   2.797  17.283  0.1669  0.0932  0.0732
47297OCT     C294594   8.976   2.699  17.359  0.4684 -0.0946  0.0342
47298OCT     C194595  13.631  19.121   6.315  0.2345 -0.0001 -0.1173
47298OCT     C294596  13.783  19.508   6.133 -0.5202 -0.0877 -0.0469
47299OCT     C194597   9.251  17.610  19.609  0.0999  0.0012  0.0819
47299OCT     C294598   9.015  17.525  19.222 -0.3881  0.2750  0.2055
47300OCT     C194599  14.465   6.258   1.608  0.4460  0.2421 -0.3187
47300OCT     C294600  14.921   6.083   1.459 -0.0961  0.0290  0.0549
47301OCT     C194601  20.788  10.286  16.701 -0.0914 -0.1993 -0.1534
47301OCT     C294602  20.583  10.665  16.781  0.0753  0.1596 -0.0546
47302OCT     C194603  14.810  17.880   7.372  0.0208  0.2780 -0.2755
47302OCT     C294604  14.446  18.051   7.149  0.0043  0.1388  0.0914
47303OCT     C194605  21.076   5.457   0.155 -0.0173 -0.1082  0.1618
47303OCT     C294606  20.809   5.073   0.146 -0.0572  0.3210 -0.0731
47304OCT     C194607   8.821   6.435  17.588  0.0520 -0.0116 -0.2879
47304OCT     C294608   9.057   6.745  17.388 -0.3395  0.2223 -0.1309
47305OCT     C194609  11.056  16.186   1.264  0.1517  0.1450  0.3034
47305OCT     C294610  11.365  16.126   1.648  0.1852 -0.3533  0.0538
47306OCT     C194611  10.945  19.985  13.783 -0.1363 -0.1921  0.1674
47306OCT     C294612  10.980  19.755  13.374  0.1353 -0.1117  0.4363
47307OCT     C194613   3.966   4.778   1.740 -0.2979 -0.0293  0.0714
47307OCT     C294614   3.726   4.453   1.914  0.3945  0.3763  0.2435
47308OCT     C194615  15.479  11.645   9.473 -0.0381 -0.3507  0.1717
47308OCT     C294616  15.115  11.629   9.127 -0.2984 -0.1771 -0.0967
47309OCT     C194617   6.661  15.624  13.580  0.0428  0.2458 -0.0382
47309OCT     C294618   6.259  15.435  13.501 -0.2019 -0.2676 -0.3756
47310OCT     C194619  20.097   8.564  19.282  0.3378  0.1164 -0.2455
47310OCT     C294620  19.917   8.241  18.964  0.1870 -0.0272  0.0025
47311OCT     C194621   6.127  18.740  10.297 -0.2410 -0.0998 -0.1647
47311OCT     C294622   6.221  18.701   9.877 -0.1235  0.3028  0.4053
47312OCT     C194623   3.291  16.093   0.429 -0.0175  0.1471  0.0526
47312OCT     C294624   3.057  16.382   0.203  0.2357  0.3525 -0.0182
47313OCT     C194625   1.839  13.995   0.236 -0.0484  0.0886 -0.2756
47313OCT     C294626   2.005  13.782  23.587  0.0554 -0.2652 -0.1813
47314OCT     C194627   9.026   7.609  23.616 -0.1962  0.2329  0.2062
47314OCT     C294628   8.738   7.304  23.579 -0.1526 -0.0537 -0.3718
47315OCT     C194629  23.182  19.033   2.037 -0.0710  0.3068  0.2442
47315OCT     C294630  23.236  19.155   2.494  0.2701 -0.0203 -0.0151
47316OCT     C194631   8.002  13.628   8.537  0.0125  0.3072  0.1855
47316OCT     C294632   7.817  13.944   8.765 -0.1197 -0.0607 -0.3652
47317OCT     C194633  10.600  21.427   9.381 -0.0543  0.0247 -0.0175
47317OCT     C294634  10.408  21.620   9.722  0.0208 -0.1956  0.0143
47318OCT     C194635   3.173  23.498   1.507 -0.2977 -0.3981 -0.1336
47318OCT     C294636   3.207   0.217   1.661 -0.2142  0.1817  0.4143
47319OCT     C194637  10.015  21.643   4.190  0.1052 -0.0251 -0.5127
47319OCT     C294638   9.523  21.708   4.293 -0.0161 -0.2127 -0.3321
47320OCT     C194639   4.859   6.760  22.067  0.0204 -0.0311  0.0151
47320OCT     C294640   5.019   6.801  22.499 -0.0020  0.3017  0.0100
47321OCT     C194641   7.135  13.728  11.258 -0.1464  0.1587 -0.0681
47321OCT     C294642   6.772  13.529  11.473 -0.2093  0.2031  0.2691
47322OCT     C194643   8.118   7.015  19.673  0.2165  0.1048  0.1306
47322OCT     C294644   7.770   6.974  19.306  0.1298  0.1166 -0.2232
47323OCT     C194645   0.336  15.677   9.520  0.2469 -0.0508 -0.4683
47323OCT     C294646   0.405  15.843   9.911 -0.0281 -0.2727 -0.3933
47324OCT     C194647  14.777   0.457  18.292  0.1544 -0.2444 -0.2753
47324OCT     C294648  14.980   0.424  17.909  0.3604  0.1281 -0.1243
47325OCT     C194649  23.079  10.625  12.353 -0.3583 -0.4179 -0.0030
47325OCT     C294650  22.734  10.736  12.029 -0.2396  0.2557  0.0381
47326OCT     C194651  17.993  19.314   8.587  0.2224  0.0383 -0.2213
47326OCT     C294652  17.971  19.771   8.568  0.2113  0.2753  0.1528
47327OCT     C194653  18.892  19.454  11.089 -0.2601  0.2085 -0.0060
47327OCT     C294654  19.023  19.622  10.672 -0.2555 -0.2731 -0.0259
47328OCT     C194655  22.185   6.081  18.810 -0.0356  0.3666  0.0989
47328OCT     C294656  22.041   5.751  19.127  0.0187 -0.2825  0.1569
47329OCT     C194657  21.413   0.111   9.226  0.2586 -0.1068  0.2855
47329OCT     C294658  21.425   0.585   9.284 -0.1067  0.0854  0.3761
47330OCT     C194659   2.714   6.662   9.871 -0.4448 -0.1944  0.0108
47330OCT     C294660   2.499   6.356   9.647  0.3293 -0.0294  0.0397
47331OCT     C194661   5.457   9.247  20.864 -0.0989  0.0343 -0.0272
47331OCT     C294662   5.321   9.665  20.859  0.1759 -0.2990 -0.0328
47332OCT     C194663   5.044   0.317   2.642 -0.1892  0.0954 -0.1600
47332OCT     C294664   4.691   0.650   2.671  0.0829 -0.1852 -0.0347
47333OCT     C194665   9.107  11.044   5.578 -0.1042 -0.0102  0.0900
47333OCT     C294666   9.236  10.690   5.302 -0.0933  0.6346 -0.0595
47334OCT     C194667   8.965   7.932   4.418  0.3381  0.0659  0.4013
47334OCT     C294668   9.353   7.740   4.338 -0.1859  0.2379  0.1534
47335OCT     C194669  14.086   6.443   9.309  0.0612 -0.0987  0.2864
47335OCT     C294670  13.645   6.626   9.154  0.3125  0.1251 -0.2989
47336OCT     C194671  21.451  18.490  20.013 -0.1549 -0.0950  0.0488
47336OCT     C294672  21.718  18.096  20.252  0.0020 -0.0937  0.0972
47337OCT     C194673  10.883  14.372  14.293 -0.1717  0.0524  0.1361
47337OCT     C294674  11.046  14.718  13.973  0.0329 -0.2228  0.1693
47338OCT     C194675   7.299  14.884  12.409 -0.2394 -0.0007  0.1968
47338OCT     C294676   6.813  15.007  12.353  0.6334  0.0035 -0.1251
47339OCT     C194677   7.526   4.459   7.082 -0.2029 -0.0962  0.0829
47339OCT     C294678   7.258   4.423   7.438  0.0425  0.1077 -0.1805
47340OCT     C194679  18.374  23.006  11.924 -0.1235  0.3885 -0.0806
47340OCT     C294680  18.339  22.574  12.239  0.1035 -0.1076 -0.0711
47341OCT     C194681   7.082  23.578   6.033  0.0970 -0.0363 -0.1764
47341OCT     C294682   7.507  23.722   6.001 -0.1608 -0.0442  0.1193
47342OCT     C194683  12.199  16.351  17.314 -0.0040  0.2267 -0.2603
47342OCT     C294684  11.849  16.421  17.623 -0.1216  0.3842  0.0919
47343OCT     C194685  11.967   3.346  20.289  0.1694 -0.1234  0.1107
47343OCT     C294686  11.557   3.624  20.297  0.4588 -0.0293  0.1070
47344OCT     C194687  13.763  21.549  16.408 -0.0545 -0.2796  0.2914
47344OCT     C294688  14.043  21.911  16.589 -0.1285 -0.0706  0.0718
47345OCT     C194689  18.274  12.062  14.665 -0.0132  0.3115 -0.0841
47345OCT     C294690  17.844  11.840  14.729 -0.1643 -0.0109 -0.3376
47346OCT     C194691  20.288   3.635  15.819 -0.3950  0.1113  0.1836
47346OCT     C294692  19.909   3.342  15.942  0.1612 -0.1699 -0.3436
47347OCT     C194693  11.582  22.297  13.512 -0.1008 -0.3468  0.0731
47347OCT     C294694  11.914  22.198  13.891  0.1880  0.2777  0.1291
47348OCT     C194695  20.462   2.742  19.651  0.1549  0.2517  0.2451
47348OCT     C294696  20.261   2.780  20.061 -0.2289  0.0259  0.0261
47349OCT     C194697  10.186  14.498   6.172 -0.3641 -0.0971 -0.0116
47349OCT     C294698  10.211  14.070   6.404  0.2614 -0.1359  0.0326
47350OCT     C194699  10.533  22.337   5.994  0.1370 -0.1059  0.1973
47350OCT     C294700  10.679  22.607   6.293 -0.0899 -0.0646  0.3272
47351OCT     C194701   9.823  23.494   4.017  0.0978  0.0925  0.0796
47351OCT     C294702   9.836  23.684   3.634 -0.1123  0.2424 -0.1293
47352OCT     C194703   2.753   4.147  12.710  0.2048 -0.1772 -0.1541
47352OCT     C294704   3.002   4.548  12.521 -0.1956  0.4169  0.0679
47353OCT     C194705   6.428  15.929   3.322  0.2065 -0.2080  0.1675
47353OCT     C294706   6.013  16.103   3.496  0.0337 -0.1021 -0.0850
47354OCT     C194707   8.388  10.687  23.146 -0.0376  0.2702  0.4701
47354OCT     C294708   8.138  10.415  22.887 -0.2509 -0.2458  0.4014
47355OCT     C194709  23.734   8.009   8.633 -0.1686 -0.1434 -0.2224
47355OCT     C294710  23.552   7.649   8.403 -0.4859  0.1260 -0.3695
47356OCT     C194711   8.294   7.154  12.737 -0.1314  0.2597 -0.0325
47356OCT     C294712   8.080   7.564  12.765 -0.0119  0.0428  0.1079
47357OCT     C194713   8.487  15.447  19.982 -0.0233 -0.0987  0.2122
47357OCT     C294714   8.312  15.012  20.101 -0.1217 -0.1233  0.0941
47358OCT     C194715  22.024   1.102   8.587  0.1048 -0.0710 -0.3318
47358OCT     C294716  22.165   1.157   8.165 -0.0948 -0.1636 -0.3759
47359OCT     C194717  15.694   5.202   8.169 -0.2070 -0.1429 -0.1923
47359OCT     C294718  15.801   5.681   8.168 -0.0865 -0.0249 -0.0154
47360OCT     C194719  12.913  10.092   2.601  0.1034 -0.1371  0.0747
47360OCT     C294720  12.810   9.714   2.768  0.4250 -0.1343  0.1638
47361OCT     C194721  22.557   3.868   3.898 -0.5326  0.4096  0.3148
47361OCT     C294722  22.836   3.672   3.544 -0.0121  0.1709  0.0642
47362OCT     C194723   4.685  23.519   6.784  0.3447  0.1556 -0.0072
47362OCT     C294724   4.695   0.217   6.704 -0.1060 -0.1098 -0.0804
47363OCT     C194725  10.066   6.857   3.100  0.1234  0.1719 -0.5483
47363OCT     C294726  10.392   6.954   3.463  0.0392  0.2248  0.2359
47364OCT     C194727  11.058   6.071  17.312  0.1687 -0.1424 -0.3268
47364OCT     C294728  10.744   5.796  17.524  0.2251 -0.0910 -0.1471
47365OCT     C194729  18.731  18.624   3.579 -0.2772  0.0069  0.2288
47365OCT     C294730  18.714  18.257   3.351  0.0308  0.0139 -0.1243
47366OCT     C194731   9.174   4.180  18.282 -0.0393 -0.0238 -0.3016
47366OCT     C294732   9.318   4.047  18.726 -0.1037  0.3244 -0.2779
47367OCT     C194733   5.896  13.421  19.289  0.2088 -0.3282  0.1779
47367OCT     C294734   6.009  13.000  19.468 -0.1201  0.0631  0.0084
47368OCT     C194735   9.238  22.535   3.371 -0.2085  0.3453 -0.1269
47368OCT     C294736   9.546  22.185   3.518 -0.0634 -0.3301  0.2697
47369OCT     C194737  21.818   7.478   8.888  0.0012  0.0505 -0.0648
47369OCT     C294738  22.261   7.439   8.783 -0.0747  0.0628 -0.2500
47370OCT     C194739   4.611  12.746   8.084 -0.0450 -0.2125  0.0230
47370OCT     C294740   4.455  12.813   7.627  0.1944  0.1863 -0.0859
47371OCT     C194741   9.189  19.717  10.509  0.4377 -0.0607  0.2663
47371OCT     C294742   9.664  19.719  10.375 -0.1103 -0.5161 -0.3937
47372OCT     C194743  16.358  11.053   8.925 -0.0903 -0.0326  0.1244
47372OCT     C294744  16.018  10.732   8.784 -0.1719 -0.3021  0.1682
47373OCT     C194745  12.661  16.964  10.013 -0.0171 -0.0448  0.0139
47373OCT     C294746  12.416  17.224  10.265 -0.1364  0.2560  0.1587
47374OCT     C194747  14.505   9.271   9.692  0.3407 -0.0611 -0.5892
47374OCT     C294748  14.799   9.005   9.427  0.2282 -0.1910  0.2429
47375OCT     C194749  22.672   0.308   5.093 -0.2066 -0.5502 -0.0855
47375OCT     C294750  22.466   0.321   5.470 -0.1658 -0.1291 -0.1927
47376OCT     C194751   9.247  14.168  18.224  0.4721 -0.0278  0.1862
47376OCT     C294752   9.560  14.298  17.850  0.1852 -0.1327 -0.4495
47377OCT     C194753  15.889   6.624   3.087 -0.0827 -0.0419 -0.0265
47377OCT     C294754  15.974   7.100   2.909  0.1361 -0.1340  0.1595
47378OCT     C194755  13.256   2.594  15.172 -0.1169 -0.2551 -0.3554
47378OCT     C294756  13.532   2.743  15.529  0.1791  0.5188  0.0373
47379OCT     C194757  18.384   0.214  14.922  0.0681 -0.0206  0.2702
47379OCT     C294758  18.667   0.088  14.533 -0.2004 -0.0906 -0.1618
47380OCT     C194759  10.862   8.193  20.949  0.1645 -0.3114 -0.2689
47380OCT     C294760  10.873   7.788  21.076 -0.2929 -0.1271 -0.2917
47381OCT     C194761  16.670  12.357   9.487  0.1840  0.3631 -0.3113
47381OCT     C294762  17.068  12.372   9.696  0.0576 -0.0246  0.0661
47382OCT     C194763   5.994   6.054   5.919  0.2153  0.0364  0.0996
47382OCT     C294764   6.375   5.863   5.644 -0.1163 -0.2094  0.1182
47383OCT     C194765  22.166  14.803  14.674 -0.0603 -0.2347  0.0720
47383OCT     C294766  22.157  14.443  15.018  0.0700 -0.1259 -0.2213
47384OCT     C194767  19.172  15.126  22.082 -0.1032  0.3702  0.0624
47384OCT     C294768  18.970  15.577  21.989 -0.1940 -0.1674  0.2624
47385OCT     C194769  18.251   7.730  17.609 -0.0209  0.1529 -0.3884
47385OCT     C294770  18.311   7.842  17.184 -0.1201  0.3601  0.1260
47386OCT     C194771   4.528  22.599  21.670 -0.3889  0.1406  0.1676
47386OCT     C294772   4.152  22.606  21.385 -0.0622  0.0554  0.1024
47387OCT     C194773  14.729   0.770   9.166  0.2842 -0.1855 -0.1048
47387OCT     C294774  14.334   0.582   9.115 -0.0137 -0.0258 -0.0199
47388OCT     C194775  12.558   6.467   0.130  0.3942 -0.2999 -0.0102
47388OCT     C294776  12.964   6.724   0.196 -0.1489  0.1024 -0.0390
47389OCT     C194777  22.897   4.107  18.935 -0.2918  0.1366 -0.4314
47389OCT     C294778  22.973   4.537  19.213  0.4060  0.2481 -0.1511
47390OCT     C194779  18.371  14.799  16.787 -0.0159  0.3334  0.1274
47390OCT     C294780  18.681  14.911  17.091 -0.1970  0.3406 -0.3187
47391OCT     C194781  20.225  18.091   5.093  0.0280  0.1399 -0.1043
47391OCT     C294782  20.471  17.940   5.388 -0.0059  0.0029 -0.1240
47392OCT     C194783  12.360   9.945   8.331 -0.2242  0.1771  0.0276
47392OCT     C294784  11.847  10.021   8.350  0.0106  0.5255  0.1614
47393OCT     C194785  18.250   3.954   1.029  0.0780 -0.2465  0.0149
47393OCT     C294786  18.045   3.555   0.998 -0.0767  0.0559  0.0040
47394OCT     C194787   0.210   6.981   6.802  0.0331 -0.2760 -0.0157
47394OCT     C294788   0.647   7.122   6.787  0.2148  0.0800  0.0411
47395OCT     C194789   6.441  11.994   7.366 -0.0252 -0.1261 -0.1389
47395OCT     C294790   6.802  11.960   7.653 -0.0057  0.1891  0.0810
47396OCT     C194791   3.434  15.843  13.119  0.0875 -0.1520  0.0202
47396OCT     C294792   3.748  15.933  13.480  0.0988  0.2474  0.1797
47397OCT     C194793   0.432  21.685  13.872 -0.1438  0.0770 -0.3037
47397OCT     C294794   0.746  21.387  14.115 -0.0545  0.1471  0.1144
47398OCT     C194795   9.084  16.942   1.161 -0.1881 -0.0218 -0.1832
47398OCT     C294796   8.938  16.856   0.730 -0.0047  0.5483 -0.1893
47399OCT     C194797   5.410   4.361  22.059  0.0352 -0.0055 -0.4311
47399OCT     C294798   5.494   3.904  22.094 -0.3690  0.0100 -0.0126
47400OCT     C194799  14.384  20.823  21.872  0.2086 -0.0418  0.0061
47400OCT     C294800  13.937  20.708  21.977 -0.1159 -0.0139  0.0879
47401OCT     C194801  10.207  21.454   9.105  0.1785 -0.2595 -0.0148
47401OCT     C294802  10.241  21.369   8.648 -0.2046 -0.1261 -0.2844
47402OCT     C194803  21.224  18.030  11.965 -0.1572 -0.1042  0.2774
47402OCT     C294804  21.618  18.236  11.934  0.3344  0.1442 -0.1626
47403OCT     C194805   2.134  16.622   4.821  0.2286  0.1374 -0.2244
47403OCT     C294806   2.111  16.617   4.392 -0.0759  0.1632  0.0212
47404OCT     C194807  20.449  20.673   7.812  0.3329 -0.0592 -0.2111
47404OCT     C294808  20.484  20.461   7.432 -0.0174 -0.3585  0.1614
47405OCT     C194809  21.179   0.924   0.154  0.3039  0.0663 -0.0633
47405OCT     C294810  20.871   0.790   0.471 -0.1896  0.1745 -0.3070
47406OCT     C194811  15.760  18.769   8.894  0.3840  0.1885 -0.0641
47406OCT     C294812  15.761  18.718   8.408 -0.1548  0.0838  0.1127
47407OCT     C194813  16.055  16.202   9.044 -0.1676 -0.2550 -0.0447
47407OCT     C294814  16.220  16.438   8.622  0.1534  0.0921  0.3633
47408OCT     C194815   0.908  23.028  15.808  0.2514 -0.1135 -0.0884
47408OCT     C294816   0.768  23.016  15.403  0.0117  0.1817  0.2983
47409OCT     C194817  14.632  19.141   3.252  0.3583  0.0021 -0.2926
47409OCT     C294818  15.034  18.876   3.313  0.2606 -0.0704  0.3619
47410OCT     C194819   6.591  22.933   4.725 -0.0715  0.0245 -0.1375
47410OCT     C294820   6.764  22.962   4.316  0.0132 -0.3780 -0.3270
47411OCT     C194821  13.467  12.892  10.510  0.2629  0.2825 -0.0881
47411OCT     C294822  13.572  13.312  10.411  0.2128 -0.4410 -0.4381
47412OCT     C194823  20.296   5.037  15.269  0.2640  0.0184 -0.2918
47412OCT     C294824  20.625   5.419  15.204 -0.0738  0.1513 -0.1698
47413OCT     C194825  12.656  10.030  12.238  0.4331 -0.3239 -0.1898
47413OCT     C294826  13.101   9.877  12.278  0.0217  0.3618 -0.0114
47414OCT     C194827   0.943  21.773   8.783 -0.2165 -0.1770 -0.3587
47414OCT     C294828   0.888  21.678   9.251  0.2755  0.0912 -0.1386
47415OCT     C194829  13.375   4.873   6.003 -0.3244 -0.2646  0.2793
47415OCT     C294830  13.767   4.811   6.243  0.3105  0.0470  0.1668
47416OCT     C194831  11.282  14.076   9.134  0.2659  0.2112 -0.5674
47416OCT     C294832  11.170  13.674   9.256  0.0601 -0.0107 -0.1490
47417OCT     C194833  22.112   9.799   9.944  0.0088  0.2067 -0.1078
47417OCT     C294834  22.303   9.866   9.508 -0.0728 -0.0285  0.0117
47418OCT     C194835   1.743   7.110  22.793  0.2254  0.4558 -0.0802
47418OCT     C294836   1.493   6.926  22.398 -0.3453 -0.1847 -0.3648
47419OCT     C194837  17.866   1.198  15.939  0.1141  0.3002  0.2024
47419OCT     C294838  17.475   0.954  15.951  0.1430  0.0666 -0.1605
47420OCT     C194839  18.868   8.038   1.441  0.0285 -0.0295 -0.0599
47420OCT     C294840  19.215   8.342   1.597 -0.0885  0.0570 -0.1672
47421OCT     C194841   4.950  20.217  17.098 -0.0022  0.2778  0.1679
47421OCT     C294842   4.717  19.834  17.267 -0.1026  0.2530 -0.1931
47422OCT     C194843   8.479  23.026  18.708  0.1741 -0.2020  0.3386
47422OCT     C294844   8.900  22.890  18.623  0.0896  0.3987 -0.0193
47423OCT     C194845  13.705   4.985  13.925 -0.1284 -0.1913 -0.0568
47423OCT     C294846  13.362   4.841  14.121  0.0696 -0.1382  0.1267
47424OCT     C194847   9.470   5.107   3.105 -0.0894  0.2672 -0.0811
47424OCT     C294848   9.558   5.553   3.176  0.2332 -0.3911  0.2895
47425OCT     C194849   3.953  18.903  18.378  0.1557 -0.2127 -0.0521
47425OCT     C294850   3.888  18.470  18.302 -0.1531  0.1341  0.0569
47426OCT     C194851  23.524   2.231  22.582  0.2334  0.0451 -0.1029
47426OCT     C294852  23.435   1.754  22.670 -0.3182  0.2839  0.3505
47427OCT     C194853  16.518  13.023  19.518 -0.0888  0.1743  0.0535
47427OCT     C294854  16.913  12.777  19.471  0.3894  0.1872 -0.0169
47428OCT     C194855   6.963   5.399  10.289 -0.4058  0.2347  0.1043
47428OCT     C294856   6.876   4.933  10.274 -0.3150  0.1486 -0.0900
47429OCT     C194857   2.478   2.073  14.661  0.3860  0.2493 -0.1931
47429OCT     C294858   2.409   2.034  15.096 -0.0970  0.0289  0.0026
47430OCT     C194859  18.929  23.334  14.365  0.2057 -0.5017 -0.0924
47430OCT     C294860  18.568  23.319  14.608  0.0287 -0.0520 -0.1083
47431OCT     C194861  10.056   9.685   0.182  0.0221 -0.1913 -0.1861
47431OCT     C294862  10.311   9.371  23.634  0.1085 -0.1752  0.1654
47432OCT     C194863   3.425   7.159   7.835 -0.0554  0.4418  0.1844
47432OCT     C294864   3.749   7.307   8.138  0.1959 -0.0759  0.1591
47433OCT     C194865  20.825   5.619  19.323  0.0023 -0.2747 -0.0986
47433OCT     C294866  20.728   5.321  19.678 -0.1876 -0.2355 -0.1725
47434OCT     C194867   8.412  14.560   2.506  0.1452 -0.1429  0.1449
47434OCT     C294868   8.671  14.779   2.160 -0.0952 -0.0638  0.0729
47435OCT     C194869   3.484  14.352  19.403  0.1944  0.1018 -0.1461
47435OCT     C294870   3.337  14.101  19.026  0.3387 -0.1693  0.1554
47436OCT     C194871  19.691   8.818   6.339  0.3916  0.2655  0.2641
47436OCT     C294872  20.094   8.660   6.530 -0.0540 -0.1585 -0.0972
47437OCT     C194873  17.655  18.860  23.455  0.1247 -0.2845 -0.0552
47437OCT     C294874  17.369  19.141  23.133 -0.1118  0.1753  0.1118
47438OCT     C194875  12.353  13.927  15.750  0.2931  0.3196  0.0749
47438OCT     C294876  12.796  13.847  15.644  0.1513 -0.0558 -0.0138
47439OCT     C194877  12.988   8.838  14.075 -0.1527 -0.0312  0.3507
47439OCT     C294878  13.342   9.164  14.118 -0.1396  0.0013  0.3128
47440OCT     C194879  22.148  16.312  17.885 -0.3257 -0.3367  0.0664
47440OCT     C294880  22.062  16.251  17.423 -0.3623 -0.2916  0.1519
47441OCT     C194881  11.569   7.921  12.501  0.2359 -0.0987  0.1953
47441OCT     C294882  11.923   8.172  12.614  0.1299  0.0866 -0.3834
47442OCT     C194883  20.512  10.900   8.518  0.6147 -0.0428 -0.0847
47442OCT     C294884  20.674  10.827   8.115 -0.0446  0.4752  0.0063
47443OCT     C194885  20.933  11.877   3.758  0.1152  0.2685 -0.0486
47443OCT     C294886  21.241  12.107   3.986 -0.1662 -0.1433 -0.2748
47444OCT     C194887  18.431   7.236  16.898  0.2668 -0.2397 -0.2158
47444OCT     C294888  18.977   7.290  16.901 -0.0885  0.1813 -0.0501
47445OCT     C194889   6.392  18.571   3.221  0.0687  0.1313  0.1945
47445OCT     C294890   6.647  18.288   2.964 -0.0161 -0.1811 -0.0544
47446OCT     C194891  16.584   5.218  21.860 -0.1904 -0.0064  0.0324
47446OCT     C294892  16.964   4.944  21.942  0.2822 -0.0284  0.2192
47447OCT     C194893  10.126  19.991  17.051  0.5203 -0.1107  0.1478
47447OCT     C294894  10.276  19.910  17.527 -0.1610 -0.1862  0.2646
47448OCT     C194895  16.967  10.215  23.359  0.4649  0.0311  0.0954
47448OCT     C294896  16.785  10.279  22.943  0.1237  0.0166 -0.0809
47449OCT     C194897   5.009   6.637  18.431 -0.3027  0.3199 -0.0027
47449OCT     C294898   4.799   6.466  18.803 -0.1205 -0.0096 -0.1928
47450OCT     C194899  14.376   3.433  22.956 -0.2906 -0.1659 -0.1347
47450OCT     C294900  14.685   3.169  22.773 -0.1700  0.2801  0.7574
47451OCT     C194901  19.040   8.681  11.807  0.1070  0.1318  0.3500
47451OCT     C294902  18.684   8.901  11.666  0.1780  0.1158  0.0569
47452OCT     C194903   8.141  22.578   0.377 -0.0227 -0.2421  0.1109
47452OCT     C294904   8.158  22.885   0.777  0.1663 -0.2728  0.0312
47453OCT     C194905   4.894  16.657  12.285 -0.1496  0.5879 -0.1938
47453OCT     C294906   4.803  17.023  12.551 -0.1439  0.1960  0.4057
47454OCT     C194907   4.431   7.360   8.408  0.1777 -0.2024 -0.1518
47454OCT     C294908   4.451   7.036   8.061 -0.3102 -0.1362 -0.1855
47455OCT     C194909  17.868  15.521  11.043  0.2902  0.3670 -0.0688
47455OCT     C294910  18.165  15.692  10.683  0.4313  0.0692 -0.0400
47456OCT     C194911  22.253  17.529  22.000 -0.0608 -0.0974  0.2120
47456OCT     C294912  22.367  17.298  21.673  0.3925  0.0493 -0.0442
47457OCT     C194913  14.957   8.715  11.610 -0.2250  0.2892  0.1250
47457OCT     C294914  15.397   8.897  11.453 -0.0670 -0.0175 -0.2828
47458OCT     C194915   7.420   6.561  16.932 -0.0148  0.0648  0.1174
47458OCT     C294916   7.216   6.278  16.668  0.0836  0.1824 -0.1122
47459OCT     C194917  17.785   3.970   7.184 -0.0868  0.0196 -0.2199
47459OCT     C294918  17.712   3.786   6.777  0.0214 -0.3211 -0.1459
47460OCT     C194919  23.421  17.104  21.877 -0.1377 -0.0243 -0.1797
47460OCT     C294920  23.612  17.051  22.310  0.0102  0.0896  0.2863
47461OCT     C194921  15.601  12.570  17.279 -0.0061 -0.1148  0.1845
47461OCT     C294922  16.002  12.812  17.211  0.1506  0.2980  0.0112
47462OCT     C194923  13.907   6.957  17.617  0.0491  0.1551 -0.0624
47462OCT     C294924  14.031   6.486  17.600 -0.0963 -0.2947 -0.1830
47463OCT     C194925  23.442  13.168   9.942  0.1679 -0.0514 -0.1129
47463OCT     C294926  23.062  13.114   9.606 -0.3013  0.2249  0.1623
47464OCT     C194927   6.968  10.576  10.451 -0.0064  0.1174  0.2798
47464OCT     C294928   7.003  10.551  10.918 -0.0914  0.0379 -0.3163
47465OCT     C194929  14.051   1.404  12.918 -0.2430 -0.0701  0.0197
47465OCT     C294930  13.971   0.974  12.924  0.0483  0.0280 -0.4172
47466OCT     C194931  12.754  10.199   6.708  0.0646 -0.0516  0.0094
47466OCT     C294932  12.360  10.360   6.873  0.1733  0.1755 -0.1048
47467OCT     C194933  21.509  11.033  21.673  0.3408  0.1931  0.1022
47467OCT     C294934  21.600  11.352  21.373 -0.2236 -0.1248 -0.0311
47468OCT     C194935  20.697  23.635  20.952  0.3298  0.1370  0.3714
47468OCT     C294936  20.484  23.225  21.106  0.2654 -0.1466 -0.1591
47469OCT     C194937  17.837   8.824  14.293 -0.1848 -0.0671  0.0662
47469OCT     C294938  18.274   8.716  14.076 -0.2225  0.1167  0.1664
47470OCT     C194939   9.331  19.495  17.459  0.1413 -0.2760  0.2499
47470OCT     C294940   9.386  19.393  16.971  0.0386  0.2479 -0.2420
47471OCT     C194941  22.899  18.259  19.511 -0.1597 -0.1719 -0.0584
47471OCT     C294942  23.161  17.911  19.519  0.0055 -0.0026 -0.1236
47472OCT     C194943  22.626  19.620   1.588 -0.0296  0.4168  0.2086
47472OCT     C294944  23.008  19.630   1.239 -0.0333  0.1659  0.0304
47473OCT     C194945   6.878  10.807  22.573  0.1812 -0.1332 -0.0600
47473OCT     C294946   6.674  11.213  22.543  0.2625 -0.1631  0.1912
47474OCT     C194947  22.110  22.751   7.097 -0.1190  0.0008 -0.0673
47474OCT     C294948  21.757  22.873   6.869  0.2633 -0.0971 -0.0702
47475OCT     C194949   2.590  16.666   1.576 -0.1364 -0.0866 -0.1087
47475OCT     C294950   3.042  16.493   1.432 -0.3490 -0.2737 -0.0522
47476OCT     C194951  23.597   5.322  19.091 -0.1228 -0.0774  0.0790
47476OCT     C294952   0.257   5.087  19.174 -0.0418  0.3058  0.2544
47477OCT     C194953  22.291   4.132  19.955 -0.1788  0.2190  0.2659
47477OCT     C294954  22.102   3.903  19.606 -0.1038 -0.3297 -0.2960
47478OCT     C194955  11.694  21.256   4.167  0.3329  0.2464 -0.2517
47478OCT     C294956  11.860  20.860   4.047 -0.0454  0.0587  0.1511
47479OCT     C194957   1.801  21.562   4.156  0.3758 -0.1024  0.1037
47479OCT     C294958   2.193  21.626   4.056  0.1459  0.1233 -0.3154
47480OCT     C194959  18.509   2.404   4.028  0.2688  0.0187  0.4217
47480OCT     C294960  18.697   2.432   3.641  0.0026 -0.0054  0.1784
47481OCT     C194961   8.618  20.791  22.873 -0.1648 -0.3720 -0.3579
47481OCT     C294962   8.475  20.451  23.127  0.4105  0.2519 -0.2144
47482OCT     C194963   7.273  10.267  11.274 -0.1790 -0.0209 -0.0972
47482OCT     C294964   7.435  10.643  11.066  0.0351  0.0943  0.3889
47483OCT     C194965  16.780  18.110   0.514  0.4425  0.2000  0.2222
47483OCT     C294966  16.735  18.311   0.938  0.0594 -0.2658 -0.0709
47484OCT     C194967  20.280  18.955  20.175  0.2224 -0.1689  0.3418
47484OCT     C294968  20.197  18.658  20.561 -0.0073  0.2721 -0.0610
47485OCT     C194969   1.084   1.890  19.907 -0.0971  0.1276  0.0585
47485OCT     C294970   0.987   2.322  19.753 -0.1390 -0.1501 -0.0486
47486OCT     C194971  15.254  19.340   5.702  0.2880 -0.1273  0.0647
47486OCT     C294972  15.434  18.930   5.652  0.3526 -0.2251  0.4097
47487OCT     C194973   5.109  22.757  19.600 -0.1743  0.0389  0.2371
47487OCT     C294974   5.261  23.241  19.443  0.0058  0.1951 -0.4318
47488OCT     C194975   7.950   5.527  20.354  0.5005  0.0346  0.0044
47488OCT     C294976   7.963   5.435  20.783  0.2031  0.1137 -0.1167
47489OCT     C194977  12.121   3.454   7.930 -0.1272 -0.2837 -0.2207
47489OCT     C294978  12.193   3.004   7.838  0.0118  0.1770 -0.4710
47490OCT     C194979  15.091   0.295   1.359 -0.1826 -0.1257  0.0962
47490OCT     C294980  15.426   0.471   1.700 -0.2452  0.1496 -0.2028
47491OCT     C194981   6.085  15.086   4.171  0.2722 -0.4723 -0.1877
47491OCT     C294982   5.791  15.221   4.436 -0.3167  0.0429 -0.1056
47492OCT     C194983   0.602   0.936  22.974 -0.0180  0.0325  0.2557
47492OCT     C294984   0.736   1.292  23.262  0.1272 -0.2782  0.4470
47493OCT     C194985   0.479  16.879  11.763 -0.1824 -0.0850 -0.0709
47493OCT     C294986   0.694  16.467  11.666  0.2166  0.0703  0.2247
47494OCT     C194987  14.313  23.164   3.953  0.1805  0.2054 -0.2237
47494OCT     C294988  13.854  23.178   3.995 -0.0457  0.3859  0.1005
47495OCT     C194989   9.294  23.331  10.168  0.0215 -0.1144 -0.0939
47495OCT     C294990   8.988  23.583   9.946 -0.0027  0.2682  0.3831
47496OCT     C194991  23.526   5.333   5.950  0.0913 -0.1164  0.0285
47496OCT     C294992  23.612   5.683   6.240  0.0351  0.0614  0.1274
47497OCT     C194993  10.392  12.496   4.607  0.4071 -0.4171 -0.3119
47497OCT     C294994  10.532  12.850   4.285 -0.0419  0.0774  0.0550
47498OCT     C194995  16.804   0.397   7.465 -0.0777 -0.2130 -0.1852
47498OCT     C294996  16.789   0.343   7.909  0.2034 -0.0141  0.2220
47499OCT     C194997  13.459  16.702  16.299  0.1998 -0.0184  0.0418
47499OCT     C294998  13.405  16.251  16.157 -0.0616 -0.0060  0.1629
47500OCT     C194999   6.430  20.552   6.320 -0.2591 -0.2139 -0.0084
47500OCT     C295000   6.854  20.699   6.109 -0.1143 -0.1297 -0.0709
47501OCT     C195001   1.117   8.171  10.607 -0.2701 -0.1752 -0.2553
47501OCT     C295002   1.554   8.309  10.680 -0.0813  0.0105  0.0231
47502OCT     C195003   1.127   8.335  18.304  0.1344  0.1262 -0.0036
47502OCT     C295004   0.749   8.497  18.104 -0.1823  0.4006 -0.0251
47503OCT     C195005   5.068   5.304   5.349 -0.0104 -0.3098  0.3282
47503OCT     C295006   4.825   4.984   5.595 -0.3042  0.2986 -0.1200
47504OCT     C195007  22.306  18.126  22.237 -0.0511  0.2730  0.2234
47504OCT     C295008  21.913  18.185  21.992 -0.2977 -0.3070  0.3924
47505OCT     C195009   1.765   0.149   1.075  0.0130 -0.0691  0.0639
47505OCT     C295010   1.433  23.667   1.336  0.1415  0.0786  0.0294
47506OCT     C195011  15.665  15.655  15.795  0.2559 -0.1027 -0.1225
47506OCT     C295012  15.409  15.882  16.117 -0.3543 -0.0611 -0.3267
47507OCT     C195013   0.449   9.075   7.454  0.1390  0.0921  0.1025
47507OCT     C295014   0.693   8.833   7.778  0.1729  0.1546 -0.0176
47508OCT     C195015   7.431  19.271   9.994  0.2032  0.3698  0.2371
47508OCT     C295016   7.279  19.221   9.504 -0.2153 -0.2489 -0.0633
47509OCT     C195017  10.945   0.743   7.535  0.1476  0.1362 -0.0320
47509OCT     C295018  10.767   1.161   7.613 -0.1455  0.2053 -0.1337
47510OCT     C195019   6.220  12.433  18.592 -0.0936  0.0731 -0.0816
47510OCT     C295020   6.236  12.045  18.304 -0.3033  0.2620 -0.1469
47511OCT     C195021  15.769   2.091   2.112 -0.0345  0.4820  0.1923
47511OCT     C295022  15.982   2.153   2.525  0.1348  0.2556  0.0254
47512OCT     C195023   7.530  11.160   1.356 -0.1300 -0.0088  0.0693
47512OCT     C295024   7.520  11.623   1.190 -0.1196 -0.1677  0.1519
47513OCT     C195025  14.471  20.535  18.928  0.1232 -0.4105  0.0420
47513OCT     C295026  14.247  20.882  19.186 -0.0708 -0.0481  0.1440
47514OCT     C195027  12.091  12.903   0.758  0.0252 -0.2514  0.3259
47514OCT     C295028  12.391  12.557   0.887 -0.1760 -0.0136  0.1118
47515OCT     C195029  19.912  17.628   1.216  0.0147 -0.2340  0.2568
47515OCT     C295030  19.908  17.185   1.279  0.3619 -0.0958  0.1440
47516OCT     C195031   6.151   0.418  13.565 -0.1932 -0.4960 -0.0938
47516OCT     C295032   6.309   0.776  13.817 -0.0970  0.2456 -0.2913
47517OCT     C195033   1.801   5.473   1.013  0.3434 -0.0401 -0.0598
47517OCT     C295034   1.524   5.739   1.257 -0.3344 -0.0046 -0.0184
47518OCT     C195035   7.753   7.331  15.768 -0.2859  0.2258 -0.1294
47518OCT     C295036   7.286   7.349  15.729 -0.0922  0.0411  0.1498
47519OCT     C195037   8.278   6.393   4.772 -0.1469  0.0213 -0.0047
47519OCT     C295038   8.655   6.675   5.026  0.0220  0.3258  0.2029
47520OCT     C195039   3.661   0.945  15.714  0.4198  0.1387 -0.2775
47520OCT     C295040   3.870   1.247  15.479 -0.2099 -0.0151  0.2951
47521OCT     C195041   9.823   6.005   1.968 -0.0455  0.2002  0.1606
47521OCT     C295042   9.446   6.241   1.878 -0.1353 -0.1479  0.2543
47522OCT     C195043  13.295   1.221  10.410 -0.0978 -0.0076 -0.3371
47522OCT     C295044  13.641   0.888  10.430  0.1020  0.0100 -0.0026
47523OCT     C195045   4.158  23.722   9.035  0.2108 -0.4477  0.3158
47523OCT     C295046   3.994  23.448   9.350  0.2629  0.0232 -0.1778
47524OCT     C195047   0.988  23.519  18.605 -0.1591  0.4607 -0.0430
47524OCT     C295048   1.283  23.663  18.284 -0.1922 -0.1783  0.0542
47525OCT     C195049   2.773   4.903  13.383  0.1222 -0.0994 -0.0755
47525OCT     C295050   2.498   4.584  13.530  0.1073 -0.5374 -0.0699
47526OCT     C195051   8.570  13.464   5.531 -0.1322 -0.1815  0.2181
47526OCT     C295052   8.143  13.634   5.392  0.0431  0.0124  0.0369
47527OCT     C195053   2.779   6.254   4.921 -0.1729  0.1298  0.3084
47527OCT     C295054   2.861   5.989   4.570  0.2762  0.0362 -0.0299
47528OCT     C195055   2.020   9.430   9.387 -0.0698  0.0138  0.0829
47528OCT     C295056   2.134   9.321   8.926  0.0307  0.0695 -0.1342
47529OCT     C195057  22.384   1.847   4.820  0.0971  0.0146  0.1439
47529OCT     C295058  22.432   2.222   4.945 -0.1229  0.1324 -0.0315
47530OCT     C195059   7.574  14.603   5.496  0.2648  0.1249 -0.1185
47530OCT     C295060   7.856  14.983   5.627  0.1863  0.4185  0.1609
47531OCT     C195061   3.592  19.170   5.831 -0.0102 -0.0467  0.1850
47531OCT     C295062   3.306  19.529   5.995  0.0458  0.2666  0.0460
47532OCT     C195063  11.421   4.729   7.429  0.3693 -0.2083 -0.0091
47532OCT     C295064  11.693   5.039   7.697 -0.3893  0.0053 -0.1751
47533OCT     C195065   1.037  21.161  18.132  0.0547  0.6682 -0.5572
47533OCT     C295066   0.847  21.397  18.437  0.1966 -0.0464 -0.0200
47534OCT     C195067   8.758   0.548   7.838  0.1087  0.0696  0.2594
47534OCT     C295068   8.577   0.961   7.938 -0.0465  0.2257  0.2400
47535OCT     C195069   3.797  14.931   5.509  0.0933  0.1102 -0.2880
47535OCT     C295070   3.691  15.349   5.281 -0.2026  0.2635  0.2163
47536OCT     C195071   4.461  11.282  20.040 -0.0098  0.1243 -0.2329
47536OCT     C295072   4.509  11.732  19.978  0.0950  0.2734 -0.0747
47537OCT     C195073   9.564  11.508  16.733 -0.0883  0.0234  0.0438
47537OCT     C295074   9.929  11.460  17.092 -0.4225 -0.2460 -0.0645
47538OCT     C195075  16.868  23.603  12.906  0.0442  0.2122 -0.0713
47538OCT     C295076  16.889   0.157  13.222 -0.1616  0.3541 -0.2952
47539OCT     C195077   8.680  10.291   1.881  0.1557  0.0017  0.0632
47539OCT     C295078   8.657  10.179   1.396  0.1686  0.1202 -0.1822
47540OCT     C195079  20.288   3.628   5.623 -0.1736 -0.2509  0.1677
47540OCT     C295080  20.209   4.099   5.619  0.2386  0.2572  0.0762
47541OCT     C195081   4.939  14.777  14.967  0.2505  0.0372  0.0116
47541OCT     C295082   5.044  15.090  15.260 -0.3615 -0.2405  0.1525
47542OCT     C195083   9.841   5.193   2.620  0.0776  0.2028 -0.2097
47542OCT     C295084  10.110   5.139   2.263  0.0294 -0.1936  0.2573
47543OCT     C195085  12.930  15.428  15.655 -0.1298 -0.0763 -0.0211
47543OCT     C295086  13.303  15.143  15.524 -0.1112  0.1790 -0.2717
47544OCT     C195087  10.878   9.184   4.543 -0.2105 -0.1169 -0.1197
47544OCT     C295088  10.824   9.231   4.056  0.2789 -0.1064  0.2251
47545OCT     C195089  12.490   7.269  10.658 -0.0606 -0.0795  0.0896
47545OCT     C295090  12.812   6.937  10.615  0.1260 -0.0981 -0.1330
47546OCT     C195091   8.058  15.451   5.568 -0.0842 -0.1076  0.2509
47546OCT     C295092   8.221  15.616   5.192 -0.2531 -0.2727 -0.1440
47547OCT     C195093  19.491   7.201   9.934 -0.1451 -0.1599  0.1076
47547OCT     C295094  19.333   7.530   9.662  0.1159 -0.2428  0.0192
47548OCT     C195095   0.192   9.657   5.051 -0.3642  0.1128 -0.1101
47548OCT     C295096   0.531   9.619   4.702  0.2841  0.3961  0.2427
47549OCT     C195097   3.849   7.601  23.700 -0.0589  0.1413  0.2259
47549OCT     C295098   3.886   7.946  23.403  0.2340  0.1231 -0.2902
47550OCT     C195099  14.318  10.649  10.411  0.1775  0.0179  0.1019
47550OCT     C295100  13.949  10.806  10.179  0.1243 -0.0010  0.0019
47551OCT     C195101  18.882   4.472  12.327  0.2194  0.0412 -0.3836
47551OCT     C295102  18.956   4.815  12.047  0.1578  0.1907 -0.1459
47552OCT     C195103   0.224   7.517   6.706  0.1949 -0.0999 -0.1744
47552OCT     C295104   0.098   7.209   6.329  0.2431  0.2989  0.2015
47553OCT     C195105   3.379   8.294  16.677 -0.2629 -0.4787 -0.0868
47553OCT     C295106   3.441   7.868  16.819 -0.0048 -0.0050 -0.1816
47554OCT     C195107   7.056   5.718   6.493  0.1587 -0.3190  0.2327
47554OCT     C295108   7.173   5.298   6.704  0.2328 -0.0897 -0.0836
47555OCT     C195109  14.242  19.982  19.887 -0.1825  0.5679  0.2570
47555OCT     C295110  14.019  20.361  19.759 -0.0642 -0.0335 -0.0066
47556OCT     C195111  16.581   9.704   7.257 -0.3204  0.0543  0.2661
47556OCT     C295112  16.569  10.123   6.995 -0.0098  0.0760 -0.1158
47557OCT     C195113  21.439  18.645  16.304  0.1641  0.0868 -0.1441
47557OCT     C295114  21.453  18.502  15.821  0.0098 -0.1810  0.2099
47558OCT     C195115  23.741  12.414  21.608  0.1911  0.0832  0.4172
47558OCT     C295116   0.393  12.406  21.808  0.0096 -0.1640  0.4413
47559OCT     C195117   0.385  16.458  14.084  0.0590  0.0045  0.1086
47559OCT     C295118   0.042  16.443  14.378  0.0942 -0.0488  0.1298
47560OCT     C195119  11.801   4.752   3.366  0.3951 -0.0905  0.2561
47560OCT     C295120  11.497   4.413   3.313 -0.4906  0.0623  0.0096
47561OCT     C195121  11.596  14.049  18.581 -0.0567 -0.0067  0.2327
47561OCT     C295122  11.155  14.135  18.497 -0.0861  0.2087 -0.2177
47562OCT     C195123   2.132   1.453  22.827 -0.2612  0.0099  0.1880
47562OCT     C295124   2.162   1.427  23.303 -0.3316 -0.0491  0.0754
47563OCT     C195125  23.268  11.515  22.770 -0.0023 -0.0736  0.0727
47563OCT     C295126  23.306  11.777  22.439  0.0876  0.2946 -0.1380
47564OCT     C195127  21.317  12.708  17.650  0.3784 -0.1121  0.4795
47564OCT     C295128  21.404  13.048  17.418 -0.0415  0.2556  0.0477
47565OCT     C195129   1.864  21.837  13.787  0.3505 -0.4233  0.3047
47565OCT     C295130   2.221  21.905  13.469  0.5067 -0.3755 -0.1498
47566OCT     C195131  10.126  10.958   0.218  0.0726 -0.3403  0.1043
47566OCT     C295132  10.559  11.018   0.149 -0.0906 -0.0517  0.0103
47567OCT     C195133   1.893   6.618   0.911 -0.1974 -0.1995 -0.0944
47567OCT     C295134   1.751   6.305   0.531 -0.3098 -0.2129 -0.0907
47568OCT     C195135  10.999   4.845  22.816 -0.2118  0.1625  0.0901
47568OCT     C295136  10.775   4.941  23.185  0.1391 -0.0145 -0.0556
47569OCT     C195137   9.224  12.101   0.823 -0.1961  0.0693  0.0721
47569OCT     C295138   8.884  12.256   1.025  0.0332  0.0715 -0.3534
47570OCT     C195139   3.114   2.615  22.192  0.2670  0.0691  0.1358
47570OCT     C295140   2.750   2.513  22.524  0.0473  0.1877 -0.1371
47571OCT     C195141   1.951  15.847  15.006 -0.0028 -0.5096 -0.5214
47571OCT     C295142   1.543  15.855  14.772  0.0405  0.2528 -0.1823
47572OCT     C195143  11.493  14.002  16.708 -0.0719  0.1176  0.3002
47572OCT     C295144  11.651  14.046  16.215  0.1800  0.1248 -0.1867
47573OCT     C195145  14.129   2.857  13.057  0.1620  0.3427  0.2128
47573OCT     C295146  13.641   2.825  12.976 -0.0554 -0.1466 -0.0692
47574OCT     C195147  10.343   3.890  19.622  0.0612  0.2562 -0.0291
47574OCT     C295148  10.588   3.533  19.841 -0.2411  0.1049  0.1558
47575OCT     C195149   8.044   8.590  14.432 -0.1901  0.4076 -0.2010
47575OCT     C295150   7.924   8.989  14.684  0.3266 -0.0621 -0.1148
47576OCT     C195151  14.298  11.806  18.118  0.1207 -0.1381  0.4491
47576OCT     C295152  14.011  12.152  18.281 -0.1432  0.2721 -0.3756
47577OCT     C195153  13.419  10.453   5.251 -0.0175 -0.5172  0.1973
47577OCT     C295154  13.052  10.607   5.439  0.0668  0.2018  0.0715
47578OCT     C195155  10.330  19.993   6.105  0.1030  0.0197 -0.0105
47578OCT     C295156  10.299  20.101   5.655  0.2728 -0.0582  0.4420
47579OCT     C195157  20.238  15.222  20.262  0.3662  0.0860 -0.1463
47579OCT     C295158  19.968  15.209  19.820  0.0941  0.0807 -0.2906
47580OCT     C195159  12.285   9.226  16.880  0.3386  0.2668 -0.0960
47580OCT     C295160  12.629   9.113  16.653 -0.0015 -0.1377 -0.3376
47581OCT     C195161   7.657  23.647  19.634 -0.0092  0.1049  0.0631
47581OCT     C295162   8.013   0.083  19.858 -0.0100  0.3325 -0.0728
47582OCT     C195163  10.814  12.220  19.452 -0.1760  0.2430  0.2250
47582OCT     C295164  10.686  12.255  19.891 -0.0642 -0.3863 -0.2744
47583OCT     C195165  15.410  12.893   6.129  0.1264 -0.0088  0.3512
47583OCT     C295166  15.653  12.815   5.736  0.2077 -0.0856  0.5780
47584OCT     C195167   7.942   9.198  18.006  0.1611  0.1248 -0.3022
47584OCT     C295168   8.138   8.829  18.179  0.1409  0.1247  0.4612
47585OCT     C195169   5.138   6.810  23.576 -0.2897 -0.0241 -0.3318
47585OCT     C295170   5.543   6.857   0.122  0.0154 -0.0603  0.1937
47586OCT     C195171   5.938   0.049  11.083 -0.3095  0.1340 -0.0346
47586OCT     C295172   6.019  23.326  11.203 -0.1521 -0.1996  0.0481
47587OCT     C195173   3.148   5.605  23.172 -0.2003  0.1497  0.3569
47587OCT     C295174   3.225   5.536  22.765  0.0157 -0.1477  0.2714
47588OCT     C195175   0.320   8.965   3.739  0.0854  0.3672 -0.0683
47588OCT     C295176   0.270   8.534   3.675  0.1257  0.0871 -0.2962
47589OCT     C195177  11.453  23.419  19.654 -0.2082  0.0290 -0.3032
47589OCT     C295178  11.002  23.496  19.482 -0.2765 -0.0222  0.1457
47590OCT     C195179  16.287   5.630   6.030 -0.0077 -0.0839  0.0216
47590OCT     C295180  16.459   5.881   6.378 -0.2800  0.1648  0.0831
47591OCT     C195181  21.934  19.055  18.480  0.0183  0.0782 -0.1660
47591OCT     C295182  21.979  18.631  18.306 -0.0359  0.2254 -0.0280
47592OCT     C195183  22.521   4.722   8.837  0.2147  0.4613  0.2581
47592OCT     C295184  22.846   4.710   8.506  0.0468 -0.1387  0.0128
47593OCT     C195185  19.284  16.252   1.075 -0.1347 -0.1410 -0.0618
47593OCT     C295186  19.513  15.819   1.168 -0.1233  0.2711 -0.0455
47594OCT     C195187   7.008   9.820   3.446 -0.3230 -0.1917 -0.2721
47594OCT     C295188   6.617   9.600   3.268  0.2745 -0.2647 -0.3040
47595OCT     C195189  12.265   1.226  22.376 -0.1237  0.0416 -0.0036
47595OCT     C295190  12.559   1.334  21.979  0.1631 -0.3750  0.1193
47596OCT     C195191   7.620  12.223   7.794 -0.1670  0.0456 -0.3436
47596OCT     C295192   7.928  12.503   7.619 -0.0576 -0.3471 -0.3317
47597OCT     C195193   9.352  16.199   6.803 -0.0301  0.3531 -0.0024
47597OCT     C295194   9.227  16.144   6.322  0.2360  0.0214 -0.0831
47598OCT     C195195  10.193   4.194  20.492  0.2792 -0.2451 -0.1829
47598OCT     C295196  10.393   4.183  20.925 -0.0502  0.2988 -0.0307
47599OCT     C195197  22.857   7.687   7.822  0.1486  0.1297 -0.1253
47599OCT     C295198  23.107   7.349   8.081  0.1807  0.1393 -0.1256
47600OCT     C195199  16.103   6.063   1.190  0.0349 -0.0256  0.1504
47600OCT     C295200  15.873   5.894   0.869 -0.0579 -0.1922 -0.2507
47601OCT     C195201  12.817  23.557   9.801 -0.2967  0.0255 -0.0456
47601OCT     C295202  12.902  23.498  10.267  0.1221  0.0848  0.1511
47602OCT     C195203   9.493   2.512  17.265  0.2348 -0.1388 -0.2378
47602OCT     C295204   9.428   2.930  17.035 -0.0422 -0.0852  0.2506
47603OCT     C195205   4.632  14.615  23.233  0.2277 -0.1791  0.0687
47603OCT     C295206   4.892  14.428  22.831  0.0970 -0.0880  0.2823
47604OCT     C195207  13.608   6.276   2.745  0.2284  0.3129  0.2650
47604OCT     C295208  13.786   5.875   3.012 -0.2988 -0.1518 -0.0021
47605OCT     C195209   8.976  18.774  14.881  0.2556 -0.2907 -0.4009
47605OCT     C295210   9.249  18.384  14.930  0.0036  0.3631 -0.0888
47606OCT     C195211  23.733  10.682  21.086  0.2429 -0.0631  0.1065
47606OCT     C295212   0.307  10.589  21.459  0.1239 -0.4774  0.1978
47607OCT     C195213  10.983   3.523   3.207 -0.2272 -0.0396 -0.5641
47607OCT     C295214  10.654   3.431   2.886 -0.0900 -0.1129  0.4083
47608OCT     C195215  23.639  14.294   6.726 -0.2235  0.1017  0.0810
47608OCT     C295216   0.225  14.208   7.029  0.1524 -0.0761 -0.4484
47609OCT     C195217  20.385  17.560  16.324  0.3701  0.1011 -0.0653
47609OCT     C295218  20.522  18.018  16.234  0.0509  0.6059 -0.2154
47610OCT     C195219   1.849   1.711   7.298  0.3690  0.0137 -0.2026
47610OCT     C295220   1.363   1.632   7.356  0.1344  0.0577 -0.4262
47611OCT     C195221  22.724   9.021   5.597 -0.2250 -0.1002  0.2192
47611OCT     C295222  22.284   8.992   5.702 -0.1169 -0.1243  0.1464
47612OCT     C195223  11.625  13.627  17.011  0.1426  0.0541  0.1747
47612OCT     C295224  12.036  13.665  17.238  0.1714 -0.0542 -0.3756
47613OCT     C195225  18.196   8.817  23.257  0.2450 -0.2612  0.3680
47613OCT     C295226  18.033   9.155  22.986  0.0803 -0.1818 -0.3202
47614OCT     C195227  18.869  14.674   4.530  0.2925 -0.0922  0.2988
47614OCT     C295228  18.797  15.010   4.228 -0.0848  0.0200 -0.0384
47615OCT     C195229   2.603  13.399   4.696  0.0087  0.4552 -0.2170
47615OCT     C295230   2.197  13.550   4.664  0.2410  0.0889  0.0240
47616OCT     C195231   3.330  16.865   0.314  0.0794 -0.1257  0.2141
47616OCT     C295232   3.573  16.554   0.551  0.1931  0.0198 -0.1044
47617OCT     C195233   0.641   7.731   1.546  0.0403  0.1624 -0.3136
47617OCT     C295234   0.584   8.186   1.459  0.2345 -0.2136  0.1802
47618OCT     C195235  17.540   6.710   9.511  0.0707  0.0044 -0.2315
47618OCT     C295236  17.150   6.632   9.746 -0.0170 -0.1433  0.4224
47619OCT     C195237  16.198   3.427   3.143  0.1148 -0.0034  0.3268
47619OCT     C295238  16.157   3.398   3.579  0.3521 -0.1016 -0.2063
47620OCT     C195239   2.810  19.187  10.322 -0.0044 -0.1654  0.0869
47620OCT     C295240   2.578  19.028   9.993  0.1010  0.1318 -0.1071
47621OCT     C195241  20.053  15.132  18.755 -0.4031 -0.0323 -0.0007
47621OCT     C295242  19.972  15.320  18.302 -0.0825  0.1106 -0.1862
47622OCT     C195243  12.428   0.207   4.005  0.0475 -0.0915  0.1865
47622OCT     C295244  12.265  23.710   4.367 -0.3364 -0.0116 -0.0481
47623OCT     C195245  21.475  10.690   2.984  0.2440 -0.0744 -0.0205
47623OCT     C295246  21.198  10.979   3.226  0.0690 -0.2085  0.0753
47624OCT     C195247  13.292   0.915  13.773  0.3636 -0.2227 -0.1407
47624OCT     C295248  13.747   1.041  13.832  0.0033 -0.1968 -0.2034
47625OCT     C195249  20.315  22.366   6.149 -0.2526  0.0782 -0.3861
47625OCT     C295250  20.329  22.313   6.613 -0.0089  0.2158  0.0866
47626OCT     C195251   5.211  16.299   2.959 -0.0426 -0.1649 -0.1965
47626OCT     C295252   5.225  16.489   2.563  0.0229  0.2401  0.2321
47627OCT     C195253   2.031   7.412   0.777 -0.0674  0.2478  0.3288
47627OCT     C295254   2.223   7.766   0.588 -0.2494 -0.1271  0.1473
47628OCT     C195255   7.397  12.244   3.833  0.0853 -0.4676  0.3475
47628OCT     C295256   7.148  11.883   3.744 -0.1478 -0.0131  0.2154
47629OCT     C195257   4.584   9.016   2.130  0.2888 -0.0339 -0.0056
47629OCT     C295258   4.308   8.729   2.324 -0.3488  0.0215  0.0104
47630OCT     C195259   5.521  19.383  13.339 -0.0176  0.1574  0.1362
47630OCT     C295260   5.475  19.618  12.928 -0.0846  0.2013 -0.0177
47631OCT     C195261   8.420  16.913   4.389 -0.1028 -0.3229  0.2279
47631OCT     C295262   8.159  16.854   4.716  0.1567  0.0005  0.1110
47632OCT     C195263  19.893  11.994   1.790 -0.5878  0.0115 -0.2779
47632OCT     C295264  20.090  12.412   1.661 -0.1713 -0.2791  0.0692
47633OCT     C195265  21.175   2.899  19.013  0.2110 -0.4507 -0.1552
47633OCT     C295266  21.335   2.955  18.616  0.0393 -0.6085  0.0403
47634OCT     C195267   0.299  10.505  21.965  0.0838 -0.2451 -0.3211
47634OCT     C295268   0.162  10.116  22.156  0.1503 -0.0237 -0.0746
47635OCT     C195269   5.714  15.975  14.284 -0.1738 -0.0219  0.2733
47635OCT     C295270   5.342  15.827  14.618 -0.1800 -0.1661 -0.0457
47636OCT     C195271   2.047  13.476  14.076 -0.1339  0.0653 -0.0657
47636OCT     C295272   2.428  13.808  14.070 -0.3025  0.2032 -0.1223
47637OCT     C195273   2.072  10.912   4.273  0.1254  0.1365 -0.3526
47637OCT     C295274   2.419  10.606   4.348 -0.0151  0.0329  0.1070
47638OCT     C195275   2.831  14.782   7.076 -0.1654  0.2319 -0.3167
47638OCT     C295276   3.307  14.686   7.134 -0.2208  0.3545  0.2063
47639OCT     C195277  19.451  21.437  17.756 -0.1888  0.3938 -0.2570
47639OCT     C295278  19.081  21.664  17.833  0.2210 -0.1239  0.0938
47640OCT     C195279  14.044  14.089   1.619 -0.0892 -0.1938  0.0821
47640OCT     C295280  13.835  14.529   1.778 -0.0641 -0.3088  0.3340
47641OCT     C195281  10.270   2.117   2.851  0.1453 -0.2925 -0.2437
47641OCT     C295282  10.645   1.884   3.009 -0.1872  0.1307 -0.1428
47642OCT     C195283  11.608  18.082  18.459 -0.2158  0.3411 -0.0813
47642OCT     C295284  11.259  17.940  18.720  0.2214  0.0843  0.1111
47643OCT     C195285  21.625  11.406  12.591  0.1023  0.0612  0.3150
47643OCT     C295286  21.252  11.138  12.484 -0.0708  0.0709  0.0822
47644OCT     C195287   6.783   3.689   0.941 -0.0167 -0.2415  0.0316
47644OCT     C295288   6.753   4.186   0.984 -0.0965 -0.0594 -0.2797
47645OCT     C195289   3.684   2.083   8.625  0.0786 -0.2198 -0.1434
47645OCT     C295290   3.956   2.101   8.993  0.1483  0.1573 -0.1156
47646OCT     C195291   8.050   2.671   8.091 -0.2966 -0.1445  0.0387
47646OCT     C295292   8.048   2.300   8.323 -0.1245  0.0969 -0.3595
47647OCT     C195293  23.538  14.243  14.310  0.3466  0.0088 -0.0240
47647OCT     C295294  23.644  14.716  14.379 -0.2038  0.3594 -0.1806
47648OCT     C195295   4.443   7.494  13.855 -0.2582 -0.0615  0.1351
47648OCT     C295296   4.796   7.241  14.108  0.2728  0.0706  0.0509
47649OCT     C195297  17.489   4.417  13.076 -0.1400 -0.0775 -0.2329
47649OCT     C295298  17.667   4.001  13.168  0.5051  0.2362  0.0623
47650OCT     C195299   6.440  17.644  23.537 -0.1095  0.0796  0.0303
47650OCT     C295300   6.118  17.917   0.090  0.0134  0.4584 -0.1352
47651OCT     C195301  10.140  23.069  10.369 -0.1125 -0.2224  0.2372
47651OCT     C295302   9.655  22.946  10.374  0.1375 -0.0997 -0.0317
47652OCT     C195303  15.772  18.315   2.546  0.1943 -0.0085 -0.0848
47652OCT     C295304  15.836  18.744   2.693 -0.2831 -0.0017  0.0680
47653OCT     C195305   2.248  19.742   5.044 -0.0289 -0.2866  0.0962
47653OCT     C295306   2.233  20.198   4.861 -0.1142 -0.1804 -0.0119
47654OCT     C195307  20.959  14.733  12.227 -0.2952 -0.0522  0.0520
47654OCT     C295308  20.667  14.432  12.384  0.0848 -0.0637 -0.0117
47655OCT     C195309  12.657  23.483  17.452  0.2000  0.0207  0.0019
47655OCT     C295310  12.403  23.221  17.113  0.0751  0.0868  0.2318
47656OCT     C195311  14.789  14.494   6.242 -0.6176  0.2477 -0.0364
47656OCT     C295312  15.089  14.549   6.586 -0.1186 -0.0780 -0.0535
47657OCT     C195313  12.285   4.231  15.374  0.0195  0.2669  0.2435
47657OCT     C295314  12.184   4.265  15.864 -0.0574  0.0025  0.3534
47658OCT     C195315   8.988  20.930  11.907 -0.1054  0.1615 -0.0649
47658OCT     C295316   8.631  20.757  12.040  0.4323 -0.2097 -0.3954
47659OCT     C195317  13.065  18.020   3.167 -0.0844  0.1848  0.5042
47659OCT     C295318  12.797  17.685   3.308 -0.2320  0.0977 -0.0797
47660OCT     C195319   1.370  22.959  13.526  0.1146  0.2809  0.1655
47660OCT     C295320   1.661  23.309  13.408 -0.3705  0.3636  0.0753
47661OCT     C195321  17.360   3.402  13.886  0.0226 -0.4139 -0.1204
47661OCT     C295322  17.654   3.063  13.986  0.0788  0.3022 -0.3075
47662OCT     C195323  22.686  12.150  23.296  0.2242  0.3176  0.0718
47662OCT     C295324  22.593  11.869  23.621  0.0450 -0.1670  0.1772
47663OCT     C195325   9.125  19.338  21.492  0.1906  0.1509  0.2434
47663OCT     C295326   9.125  19.418  20.999 -0.5172  0.3163 -0.1742
47664OCT     C195327   5.782  11.013  21.837 -0.1633 -0.1024 -0.4278
47664OCT     C295328   5.622  11.458  21.869 -0.1390  0.1501 -0.1336
47665OCT     C195329  13.144   4.617  15.330  0.1110 -0.0537 -0.0065
47665OCT     C295330  12.767   4.432  15.246 -0.0474  0.1552 -0.2571
47666OCT     C195331   1.448  12.235  15.365 -0.3668 -0.0855  0.0147
47666OCT     C295332   1.814  12.096  15.105  0.0007  0.1754  0.1089
47667OCT     C195333  11.299  10.692   2.977  0.0424 -0.1019 -0.0179
47667OCT     C295334  10.872  10.593   3.164 -0.1735 -0.0967  0.1563
47668OCT     C195335  16.057  15.638   4.391 -0.3151 -0.1836  0.2594
47668OCT     C295336  16.282  15.732   4.017 -0.0224 -0.0595  0.1436
47669OCT     C195337  16.463  15.399   0.388 -0.1241  0.2781  0.2153
47669OCT     C295338  16.342  14.928   0.429  0.3950 -0.0263  0.0649
47670OCT     C195339   5.518   3.259  22.256 -0.1734  0.0379 -0.1756
47670OCT     C295340   5.107   3.182  21.931 -0.4697 -0.3300 -0.0905
47671OCT     C195341   4.860   6.645   1.151  0.2016  0.1533 -0.4225
47671OCT     C295342   5.077   6.757   1.577 -0.1854 -0.0529  0.1591
47672OCT     C195343  19.439   6.757  21.512 -0.3308 -0.3685  0.1838
47672OCT     C295344  19.500   6.757  21.996 -0.5492 -0.0008  0.2444
47673OCT     C195345  22.731  16.597   1.178  0.2326 -0.1399 -0.1873
47673OCT     C295346  23.029  16.282   1.056 -0.1974  0.1176 -0.0876
47674OCT     C195347   1.885  16.722  16.086  0.3397  0.1505  0.0407
47674OCT     C295348   1.525  16.935  16.320 -0.1640 -0.2810 -0.0369
47675OCT     C195349  16.357   1.688  18.452  0.1001 -0.0813 -0.3222
47675OCT     C295350  16.370   1.268  18.297  0.1247  0.1965 -0.1529
47676OCT     C195351  12.486  23.486  11.979  0.1268 -0.0737  0.0237
47676OCT     C295352  12.530  23.112  12.184  0.0579 -0.2345  0.2695
47677OCT     C195353   7.273  23.076   0.608  0.0481 -0.2001  0.3125
47677OCT     C295354   7.287  23.162   0.166  0.0932 -0.1400  0.2583
47678OCT     C195355  19.392   0.760  14.837  0.0565  0.1947 -0.1922
47678OCT     C295356  19.078   0.332  14.772  0.2392  0.1212 -0.1939
47679OCT     C195357   3.819   0.065  19.120 -0.0119  0.2272 -0.1578
47679OCT     C295358   3.380   0.193  19.038  0.1882  0.0660 -0.0041
47680OCT     C195359  16.820   5.625  19.570 -0.4119  0.0932 -0.0889
47680OCT     C295360  16.998   6.012  19.366 -0.4064  0.0944 -0.0254
47681OCT     C195361  11.602  20.209  15.298  0.0517  0.1799  0.4811
47681OCT     C295362  11.458  20.631  15.402 -0.1881  0.0666  0.3447
47682OCT     C195363  18.461   0.135  19.200 -0.5049  0.0237 -0.1121
47682OCT     C295364  18.166   0.238  19.479 -0.0678  0.2759  0.0659
47683OCT     C195365  20.538  22.976   5.790 -0.0303  0.0773  0.3024
47683OCT     C295366  20.661  23.116   5.376  0.2153 -0.4059 -0.0898
47684OCT     C195367   5.834  11.838  16.522  0.2585 -0.3709 -0.1159
47684OCT     C295368   5.994  11.567  16.863  0.0603 -0.1596  0.0134
47685OCT     C195369  18.005  15.331   2.116 -0.2493 -0.3404  0.3025
47685OCT     C295370  18.283  15.650   1.881 -0.1629 -0.0680 -0.2096
47686OCT     C195371   9.154   0.912  21.046  0.2366 -0.0483  0.1188
47686OCT     C295372   9.616   0.864  21.108  0.0417 -0.2502 -0.0574
47687OCT     C195373  22.000   2.998  13.139  0.2266  0.1428  0.0101
47687OCT     C295374  22.105   3.390  12.904 -0.1946  0.0665  0.1329
47688OCT     C195375   2.585  11.041   4.064  0.0817  0.2773  0.0231
47688OCT     C295376   2.696  11.394   3.816  0.0221 -0.0590 -0.0726
47689OCT     C195377  20.680  16.405  22.423  0.2584 -0.2632  0.1904
47689OCT     C295378  20.495  16.040  22.575  0.1309 -0.2711  0.1021
47690OCT     C195379  14.269   7.522  18.664  0.2928  0.2991 -0.1085
47690OCT     C295380  14.731   7.534  18.553  0.0517  0.2747  0.0745
47691OCT     C195381  20.145  10.746   1.299  0.1384  0.1423 -0.0572
47691OCT     C295382  19.781  11.016   1.390  0.3870 -0.0668  0.0190
47692OCT     C195383   8.676  16.953   9.359 -0.0569 -0.1942  0.3589
47692OCT     C295384   9.036  16.827   9.549 -0.2066 -0.2414 -0.2882
47693OCT     C195385  15.486  18.481  15.305  0.0476 -0.1171  0.1793
47693OCT     C295386  15.207  18.264  14.944 -0.3688  0.0876  0.1444
47694OCT     C195387  17.958   0.050  13.672 -0.5716 -0.5633  0.0722
47694OCT     C295388  17.767  23.501  13.463  0.0317  0.2668 -0.0039
47695OCT     C195389   3.673   2.045  15.839  0.0394  0.1667  0.1654
47695OCT     C295390   3.633   1.567  15.773  0.1879 -0.0067 -0.0735
47696OCT     C195391  14.855   3.174   1.928  0.2012  0.1916  0.1787
47696OCT     C295392  14.945   3.280   1.462  0.0101 -0.1531  0.2633
47697OCT     C195393   1.857   8.740   0.303 -0.2263  0.0196 -0.1430
47697OCT     C295394   2.290   8.578   0.078 -0.0510  0.0651 -0.2923
47698OCT     C195395  19.177  16.954  11.809  0.0144 -0.1615  0.3628
47698OCT     C295396  18.850  17.054  12.108  0.1038  0.3352  0.1242
47699OCT     C195397  13.951  19.807  22.335 -0.0681 -0.0685 -0.0090
47699OCT     C295398  13.697  19.590  22.030  0.1761 -0.0142 -0.4171
47700OCT     C195399   1.414  13.150  14.648 -0.4112 -0.2430  0.3093
47700OCT     C295400   1.872  13.164  14.480 -0.0685  0.2328 -0.0905
47701OCT     C195401  18.985   2.311  12.222 -0.0556  0.1482 -0.1044
47701OCT     C295402  19.380   2.297  12.566  0.3778  0.3437  0.0675
47702OCT     C195403   1.671  10.474  14.627  0.2698  0.1155 -0.1993
47702OCT     C295404   2.115  10.367  14.678  0.0528  0.0465  0.3791
47703OCT     C195405  23.540   7.997  21.881 -0.0053 -0.2492  0.1174
47703OCT     C295406   0.302   7.923  21.806 -0.0364 -0.2507  0.4390
47704OCT     C195407  22.533   1.632   0.300 -0.2163 -0.0985  0.0469
47704OCT     C295408  22.133   1.839   0.080 -0.1279  0.1008 -0.1338
47705OCT     C195409  23.438  22.898  22.749  0.0469  0.0681  0.1300
47705OCT     C295410  23.512  23.125  22.335  0.0305 -0.0188 -0.1675
47706OCT     C195411  13.137   8.240   3.723 -0.1686  0.0350  0.1314
47706OCT     C295412  13.037   7.768   3.819 -0.4355  0.2398 -0.3161
47707OCT     C195413  10.046   3.237   2.000  0.3355 -0.3931  0.2130
47707OCT     C295414   9.739   3.613   1.956  0.2243  0.2086  0.2683
47708OCT     C195415  19.589  22.624  22.771 -0.3182  0.1638  0.2972
47708OCT     C295416  20.006  22.468  22.768 -0.1805  0.0976 -0.3955
47709OCT     C195417  22.783   6.866  23.501  0.1484  0.2594 -0.1252
47709OCT     C295418  22.359   7.070  23.532 -0.0724 -0.2012  0.4580
47710OCT     C195419  20.170  16.636   4.921  0.3460 -0.2179 -0.0921
47710OCT     C295420  20.431  16.891   5.242  0.2080 -0.2036 -0.0820
47711OCT     C195421  20.739   4.082  13.515  0.2293  0.0421  0.0901
47711OCT     C295422  20.833   4.142  14.000  0.0821 -0.2901  0.3218
47712OCT     C195423  14.059  20.408  10.572  0.0968 -0.2908  0.3783
47712OCT     C295424  14.217  20.779  10.782 -0.0770  0.0301 -0.0777
47713OCT     C195425   3.262  17.372  15.170 -0.0146 -0.1834 -0.0975
47713OCT     C295426   3.688  17.504  15.159  0.3076  0.1411 -0.1585
47714OCT     C195427  23.026   4.112   5.392  0.0629  0.1572  0.2331
47714OCT     C295428  23.216   4.540   5.456  0.2148 -0.0284  0.2276
47715OCT     C195429  15.881  11.943  22.043 -0.2727 -0.2025  0.3606
47715OCT     C295430  15.860  11.551  21.765 -0.1851  0.3193 -0.0743
47716OCT     C195431   1.982   2.832  13.879 -0.2155  0.1481  0.3178
47716OCT     C295432   2.385   2.592  13.944 -0.1642 -0.1031 -0.0225
47717OCT     C195433  14.138  15.219  13.807 -0.3329 -0.2554  0.0235
47717OCT     C295434  14.265  15.697  13.804  0.1020  0.2902  0.0580
47718OCT     C195435   2.089   6.923  21.924  0.0351  0.1110 -0.1211
47718OCT     C295436   1.918   7.346  22.034 -0.3709  0.0597 -0.2222
47719OCT     C195437  17.785  10.229  14.157 -0.0725  0.0238  0.0704
47719OCT     C295438  17.391  10.019  14.032 -0.4069  0.1936 -0.1746
47720OCT     C195439  15.970  12.043   4.004 -0.2521  0.0909 -0.1113
47720OCT     C295440  16.334  12.334   4.154 -0.1553 -0.0414  0.2159
47721OCT     C195441  20.355   4.805  23.062  0.1528 -0.1910  0.0926
47721OCT     C295442  19.871   4.799  23.084  0.0197 -0.0135 -0.0008
47722OCT     C195443   7.017  17.564   3.168  0.0698 -0.2649  0.1562
47722OCT     C295444   7.236  17.167   3.100 -0.3639 -0.0650  0.1041
47723OCT     C195445   9.113  13.994  13.054 -0.3314 -0.2673 -0.2929
47723OCT     C295446   9.005  14.024  13.483 -0.1591  0.0479  0.2148
47724OCT     C195447  20.073   4.565  18.770 -0.2980 -0.1267  0.1796
47724OCT     C295448  20.000   4.646  18.317  0.2412  0.1087 -0.0900
47725OCT     C195449   1.570  16.609   2.862  0.3474  0.0133  0.0722
47725OCT     C295450   1.581  16.327   2.456 -0.3076  0.3531 -0.1619
47726OCT     C195451   4.575  23.577  14.980  0.2185 -0.1827 -0.0296
47726OCT     C295452   4.780   0.269  15.134 -0.1127  0.2144  0.0699
47727OCT     C195453   2.087   5.581   3.046  0.0902  0.5204  0.0940
47727OCT     C295454   1.812   6.029   3.115  0.2664  0.0654  0.0055
47728OCT     C195455   8.217  16.115  23.252 -0.0477 -0.4169 -0.3827
47728OCT     C295456   8.359  15.772  22.978  0.1021 -0.1156 -0.2416
47729OCT     C195457  13.535  15.231  22.527  0.2230 -0.0691  0.1800
47729OCT     C295458  13.156  15.378  22.230  0.0553 -0.0781 -0.0776
47730OCT     C195459  17.102   9.522   6.412  0.1164 -0.0428  0.0092
47730OCT     C295460  16.913   9.664   6.827 -0.0031 -0.0950  0.4785
47731OCT     C195461  12.650  11.945   2.240  0.2516 -0.0490  0.1750
47731OCT     C295462  12.216  12.001   2.297  0.1033  0.1617 -0.2113
47732OCT     C195463  15.771   1.410   2.626  0.0809 -0.2006 -0.4132
47732OCT     C295464  16.255   1.436   2.734 -0.0366 -0.1502 -0.0609
47733OCT     C195465   1.503  14.475  20.058  0.3391 -0.0205  0.0095
47733OCT     C295466   1.527  14.166  19.666  0.3956 -0.0335  0.1964
47734OCT     C195467  17.404   1.615  14.980  0.1678  0.2999  0.1635
47734OCT     C295468  16.995   1.378  15.178  0.1019 -0.2188 -0.1302
47735OCT     C195469   8.080   5.703  18.122  0.2354  0.1237  0.2173
47735OCT     C295470   8.079   5.612  17.680  0.0617  0.0457  0.0610
47736OCT     C195471  23.370  14.401   7.815  0.2305  0.0158 -0.2358
47736OCT     C295472   0.031  14.198   8.018  0.0575 -0.0536  0.1580
47737OCT     C195473   3.538  16.433   7.753 -0.1964  0.4872  0.1610
47737OCT     C295474   3.558  16.374   8.219  0.0455 -0.0051 -0.0325
47738OCT     C195475   5.974   5.293   3.219  0.1691  0.2566 -0.0827
47738OCT     C295476   6.236   4.968   3.072  0.0182 -0.1982  0.0089
47739OCT     C195477  10.261  23.648   9.167  0.3303 -0.2640  0.0739
47739OCT     C295478  10.045   0.292   9.195 -0.1287  0.0343  0.3114
47740OCT     C195479  20.549  12.183  16.183  0.1315  0.0843  0.2417
47740OCT     C295480  20.450  12.423  16.590 -0.3379 -0.0598 -0.1449
47741OCT     C195481  20.336  14.264   9.668 -0.0221  0.1627 -0.0200
47741OCT     C295482  20.147  13.915   9.815 -0.2367  0.0464 -0.0791
47742OCT     C195483  15.307   8.937  10.195  0.3052 -0.0193 -0.0196
47742OCT     C295484  15.097   9.050   9.817 -0.0288  0.0466 -0.2928
47743OCT     C195485  15.082   9.923   3.329 -0.0343 -0.1130  0.1092
47743OCT     C295486  15.092  10.226   3.662  0.0258 -0.0642  0.0139
47744OCT     C195487  17.476   9.622   3.083  0.1137 -0.3889  0.0697
47744OCT     C295488  17.656   9.879   3.389 -0.2855  0.0773  0.1300
47745OCT     C195489   8.948  22.123  10.900  0.0270 -0.1567  0.1057
47745OCT     C295490   9.203  22.373  11.162  0.0460  0.3014 -0.2340
47746OCT     C195491   9.857  11.534   4.524  0.4398 -0.0727 -0.0808
47746OCT     C295492  10.181  11.138   4.466 -0.1806 -0.0894 -0.0748
47747OCT     C195493  16.095  21.228  13.544  0.0077  0.3694  0.1119
47747OCT     C295494  15.645  21.403  13.474 -0.0163  0.2967 -0.1037
47748OCT     C195495  14.267   8.008   6.097 -0.0999  0.1679  0.3012
47748OCT     C295496  14.750   7.967   6.255 -0.0763  0.3961 -0.0762
47749OCT     C195497   3.973   7.574   5.480  0.0555 -0.1643  0.1623
47749OCT     C295498   4.218   7.465   5.097  0.1195 -0.1271  0.3447
47750OCT     C195499  16.315  19.502   8.759  0.1022 -0.1565 -0.2343
47750OCT     C295500  15.888  19.230   8.684 -0.0619 -0.0081  0.0068
47751OCT     C195501  20.896  12.001   6.188  0.2522 -0.1066 -0.0589
47751OCT     C295502  20.667  11.862   5.806  0.3302 -0.2196 -0.3353
47752OCT     C195503  21.270   8.808  19.434  0.0232  0.2756 -0.0129
47752OCT     C295504  20.899   8.997  19.525 -0.2164  0.5069  0.1934
47753OCT     C195505   8.073  12.165  12.030  0.0354 -0.1226  0.1410
47753OCT     C295506   7.649  12.347  12.187 -0.1183 -0.1082 -0.1995
47754OCT     C195507   4.754  20.167  12.731 -0.3701 -0.2065  0.2317
47754OCT     C295508   5.138  19.961  12.974  0.2622  0.1268  0.2870
47755OCT     C195509   6.717  15.151   8.004  0.2499  0.3109  0.2117
47755OCT     C295510   6.421  15.555   8.014 -0.2090 -0.2389  0.0137
47756OCT     C195511   8.187  17.970   4.593  0.1386  0.0309 -0.2706
47756OCT     C295512   7.828  18.309   4.781 -0.1894  0.1801  0.0799
47757OCT     C195513  14.366   7.291   6.269 -0.1176  0.2318  0.5536
47757OCT     C295514  14.049   6.989   5.978  0.0113  0.2539  0.0029
47758OCT     C195515  20.057  20.700  10.621 -0.2032 -0.0058  0.2183
47758OCT     C295516  19.791  20.465  10.311 -0.0080  0.2386 -0.3231
47759OCT     C195517  11.925  23.373  17.173 -0.2853  0.1900  0.1095
47759OCT     C295518  11.731  22.911  17.224 -0.1928  0.4447 -0.1883
47760OCT     C195519   7.916  16.449  14.349 -0.1928 -0.0869 -0.1993
47760OCT     C295520   8.186  16.889  14.293 -0.1159 -0.0757  0.0423
47761OCT     C195521   1.821  20.643   7.493  0.3535 -0.2122 -0.1438
47761OCT     C295522   1.974  20.464   7.076 -0.2073  0.0659  0.1136
47762OCT     C195523  11.149  22.082   7.302 -0.1249  0.2188 -0.0553
47762OCT     C295524  11.470  22.225   7.634  0.2719 -0.0479  0.1724
47763OCT     C195525  22.460  11.955  21.391  0.4008  0.1446  0.0864
47763OCT     C295526  22.567  11.672  21.732  0.1436 -0.2078  0.0268
47764OCT     C195527   8.731   1.223   4.471  0.3589  0.3154  0.3792
47764OCT     C295528   8.953   1.199   4.077  0.1431  0.1125  0.0438
47765OCT     C195529  14.899  14.593  16.347 -0.1176  0.0603 -0.0536
47765OCT     C295530  14.883  14.086  16.379  0.1150 -0.0050 -0.0757
47766OCT     C195531  13.085  18.602  17.174 -0.0310  0.0083  0.1493
47766OCT     C295532  13.360  18.914  17.061  0.0711 -0.2277 -0.0429
47767OCT     C195533  12.297  22.054  10.837  0.0375  0.0855  0.1409
47767OCT     C295534  12.466  22.020  11.340  0.2167 -0.0051 -0.2572
47768OCT     C195535   1.623   8.419  17.588 -0.2841  0.4299 -0.1784
47768OCT     C295536   1.910   8.635  17.774 -0.0049  0.0650 -0.0683
47769OCT     C195537  14.520   2.896   3.881  0.4594  0.2548 -0.2113
47769OCT     C295538  14.437   2.499   3.626 -0.1503 -0.1879 -0.1023
47770OCT     C195539   2.737   0.908   7.097 -0.0627 -0.0024  0.0462
47770OCT     C295540   2.523   0.999   7.511  0.0304  0.2709 -0.0249
47771OCT     C195541   5.570   0.544  14.958 -0.4518 -0.2343  0.1655
47771OCT     C295542   5.835   0.411  15.342  0.0032  0.0997  0.0389
47772OCT     C195543  21.366   4.620  16.979 -0.1209 -0.2267  0.2797
47772OCT     C295544  21.402   5.051  17.096  0.3004 -0.0079  0.0635
47773OCT     C195545  20.953   0.219  22.421  0.1744 -0.2163  0.0494
47773OCT     C295546  20.736   0.108  22.052  0.2270  0.3534 -0.0210
47774OCT     C195547  13.248   3.981  12.755  0.1816  0.3030  0.1292
47774OCT     C295548  13.526   3.657  12.763 -0.2746  0.1580 -0.1963
47775OCT     C195549  11.661  16.868   4.292  0.2943 -0.0987 -0.0037
47775OCT     C295550  11.420  17.256   4.327 -0.0800 -0.3020  0.0339
47776OCT     C195551  12.936  22.653  14.770 -0.1151  0.3416 -0.1985
47776OCT     C295552  12.931  22.217  14.886 -0.0751 -0.1857 -0.4553
47777OCT     C195553  14.212  18.247   3.005 -0.2262 -0.3616 -0.2738
47777OCT     C295554  14.518  18.010   2.855  0.2030 -0.0793  0.1246
47778OCT     C195555  22.141   2.656  23.238 -0.1383  0.2062  0.1021
47778OCT     C295556  22.225   3.075  23.342 -0.1407 -0.0488 -0.0861
47779OCT     C195557  12.932   5.532   6.156  0.0587  0.1239  0.0668
47779OCT     C295558  12.808   5.999   6.162  0.4738 -0.0809  0.1074
47780OCT     C195559   6.264   7.267  20.398 -0.1627 -0.0845 -0.2569
47780OCT     C295560   6.598   7.161  20.652  0.1260 -0.3543 -0.0197
47781OCT     C195561   4.221  10.354  10.955  0.0157 -0.1132 -0.2934
47781OCT     C295562   4.465  10.652  11.277 -0.0175 -0.1802  0.1757
47782OCT     C195563  23.289   6.059  17.349 -0.4015  0.2415 -0.1319
47782OCT     C295564  22.959   5.733  17.367 -0.2269 -0.0147 -0.1524
47783OCT     C195565  10.356   7.966  20.205 -0.0783  0.1385  0.2415
47783OCT     C295566  10.537   7.997  19.749  0.2037 -0.3643  0.1995
47784OCT     C195567  14.375   8.183   1.502 -0.2176 -0.1257  0.0088
47784OCT     C295568  14.009   8.359   1.311 -0.0277  0.0337  0.2574
47785OCT     C195569  21.699  15.693   8.369 -0.6226  0.3162  0.1658
47785OCT     C295570  21.849  15.299   8.245  0.2177 -0.1443 -0.2332
47786OCT     C195571   2.981  14.036  13.099 -0.5860 -0.2135  0.4091
47786OCT     C295572   3.095  13.766  12.751 -0.2719 -0.3165 -0.1899
47787OCT     C195573   4.730  14.963   2.482 -0.1982 -0.3386  0.3764
47787OCT     C295574   4.629  14.518   2.440  0.2277 -0.0909  0.0246
47788OCT     C195575   0.032   0.040  18.957  0.0319 -0.1157 -0.1421
47788OCT     C295576  23.420  23.544  18.827 -0.0152 -0.0460 -0.0458
47789OCT     C195577   0.300  16.359  12.481  0.0243  0.1013 -0.1609
47789OCT     C295578   0.604  16.261  12.838 -0.1251 -0.4540 -0.3261
47790OCT     C195579  18.763  15.887  10.982  0.1854 -0.0742  0.0531
47790OCT     C295580  18.437  16.195  10.786  0.0715  0.1263 -0.2052
47791OCT     C195581  20.925  16.539  13.458  0.4021 -0.4045  0.0865
47791OCT     C295582  21.293  16.343  13.683  0.0298 -0.3069 -0.2035
47792OCT     C195583  14.391   8.815   4.971  0.0827  0.2723 -0.1198
47792OCT     C295584  14.041   8.981   4.733  0.3970 -0.0138 -0.0164
47793OCT     C195585   3.245  11.441  12.956 -0.0207 -0.3644  0.0139
47793OCT     C295586   3.004  11.330  13.380 -0.0273  0.1544  0.3287
47794OCT     C195587   8.006  16.356  15.115  0.1023 -0.1246 -0.0811
47794OCT     C295588   7.721  16.253  14.750 -0.1017 -0.1252  0.1468
47795OCT     C195589  22.252   5.872  16.104  0.1434  0.0752  0.2887
47795OCT     C295590  21.813   6.007  16.303  0.1892  0.2468 -0.3907
47796OCT     C195591   9.022   6.446   9.582  0.2773 -0.1660  0.2283
47796OCT     C295592   8.701   6.349   9.841  0.0569 -0.4385 -0.1933
47797OCT     C195593  17.522   2.297  19.262  0.0229  0.1749  0.2203
47797OCT     C295594  17.380   1.841  19.256 -0.0475 -0.0851  0.1359
47798OCT     C195595  23.222  22.111   3.779  0.0989 -0.1914  0.2784
47798OCT     C295596  23.546  22.448   3.892  0.0490  0.2577 -0.2567
47799OCT     C195597   2.176   4.817   8.531  0.0162  0.0340 -0.0335
47799OCT     C295598   1.784   4.879   8.727 -0.3746 -0.1406  0.2472
47800OCT     C195599   3.750   4.157  16.604  0.2820  0.0228 -0.1391
47800OCT     C295600   3.659   3.740  16.411  0.0826  0.1887 -0.3193
47801OCT     C195601   7.510  17.880  11.653 -0.1785  0.1531  0.0570
47801OCT     C295602   7.385  18.331  11.585 -0.2370  0.1224 -0.2846
47802OCT     C195603   9.776   6.153   1.414 -0.2316  0.1064  0.0666
47802OCT     C295604  10.216   5.933   1.267 -0.2532 -0.0662 -0.2154
47803OCT     C195605  10.435  13.542   5.899 -0.0171  0.2645  0.1996
47803OCT     C295606   9.977  13.522   5.929  0.2708  0.1975 -0.1734
47804OCT     C195607  21.021   8.525  10.267  0.0093 -0.1673  0.0177
47804OCT     C295608  21.278   8.671   9.904  0.2822  0.0202 -0.1347
47805OCT     C195609  12.970   3.130  10.504 -0.4288  0.0351  0.5487
47805OCT     C295610  13.027   3.578  10.320 -0.0315 -0.0565  0.0393
47806OCT     C195611   7.127  18.987   3.860  0.1172  0.0449 -0.2226
47806OCT     C295612   7.283  18.562   4.095  0.0677 -0.2568 -0.2218
47807OCT     C195613   6.200  22.043  15.108  0.2481  0.3056 -0.1450
47807OCT     C295614   6.129  22.261  15.542 -0.1895 -0.2071 -0.0531
47808OCT     C195615   4.953  22.268   8.197 -0.0652  0.1009  0.0016
47808OCT     C295616   4.812  21.960   7.885  0.1826  0.2225  0.1489
47809OCT     C195617  20.203  17.338  16.755 -0.0939  0.3618 -0.2191
47809OCT     C295618  20.186  17.160  17.161  0.3749  0.0500 -0.0711
47810OCT     C195619  18.624  23.235   7.860 -0.1811  0.0096 -0.1415
47810OCT     C295620  18.715  22.775   7.788  0.0589 -0.1036  0.2501
47811OCT     C195621   4.949  15.411  14.424  0.3753  0.0047  0.1216
47811OCT     C295622   4.972  14.987  14.529  0.0608  0.3588  0.0786
47812OCT     C195623   8.652   3.873   9.679  0.1889 -0.0962 -0.2922
47812OCT     C295624   8.596   3.513   9.430  0.1570  0.1076  0.0943
47813OCT     C195625  12.837   0.546  15.594 -0.2446  0.1986 -0.1815
47813OCT     C295626  12.863   1.038  15.760  0.2422  0.0768  0.5562
47814OCT     C195627   7.951   0.066  19.167 -0.1017 -0.1823  0.0942
47814OCT     C295628   7.464   0.030  19.153 -0.0194 -0.0344 -0.0303
47815OCT     C195629   7.280  20.802   9.371  0.0442 -0.0042  0.2461
47815OCT     C295630   7.152  21.022   8.986  0.0661  0.1539 -0.1042
47816OCT     C195631  13.134   7.145  15.864 -0.0893  0.1403 -0.1150
47816OCT     C295632  12.949   7.568  15.771  0.1827 -0.1121 -0.1171
47817OCT     C195633   9.051  13.187   6.857 -0.1399 -0.0806 -0.1985
47817OCT     C295634   9.308  13.432   7.160 -0.0479 -0.1641  0.1741
47818OCT     C195635   9.031  19.027   6.302  0.1467 -0.1140 -0.0913
47818OCT     C295636   9.139  18.590   6.401  0.1111  0.0423 -0.2809
47819OCT     C195637  16.288   3.516   1.878 -0.1150  0.5128 -0.1532
47819OCT     C295638  16.610   3.900   1.942 -0.0627 -0.0577  0.2837
47820OCT     C195639   2.560  23.016  23.599 -0.1470 -0.3754  0.1715
47820OCT     C295640   2.350  22.623  23.498  0.1439 -0.0290  0.2373
47821OCT     C195641  21.624  21.470  20.517 -0.2591 -0.1089  0.2031
47821OCT     C295642  21.626  21.216  20.948  0.4647  0.2106  0.0441
47822OCT     C195643  17.870  15.267   9.308 -0.2393 -0.0783  0.0592
47822OCT     C295644  18.090  15.239   9.769 -0.0074  0.1827 -0.1812
47823OCT     C195645   0.754   0.213   6.151 -0.0878 -0.1415 -0.1228
47823OCT     C295646   0.460  23.681   6.376 -0.3263 -0.3408  0.0418
47824OCT     C195647  23.206   1.424   4.218  0.0899 -0.6311  0.3360
47824OCT     C295648  22.990   1.708   3.897 -0.4204  0.3047 -0.0519
47825OCT     C195649  19.898   9.492   5.011  0.3469  0.1501  0.1344
47825OCT     C295650  19.769   9.800   5.328  0.2545 -0.2535 -0.0831
47826OCT     C195651   6.869   0.596  20.604  0.1032  0.0637  0.2861
47826OCT     C295652   6.692   0.676  20.161 -0.0602  0.3174  0.2214
47827OCT     C195653   9.512  15.878  17.551 -0.0533  0.2326  0.1789
47827OCT     C295654   9.604  15.495  17.245  0.3294 -0.0909 -0.2159
47828OCT     C195655   0.616  17.443  10.080  0.1003 -0.1132 -0.2140
47828OCT     C295656   0.620  17.356   9.661 -0.0545  0.0768  0.1019
47829OCT     C195657  16.554  16.478  18.044  0.2331 -0.1540 -0.0839
47829OCT     C295658  16.929  16.646  17.786  0.2389  0.1467 -0.2570
47830OCT     C195659  17.848   4.840  19.114  0.0146 -0.0520 -0.0024
47830OCT     C295660  17.825   5.128  19.512  0.1021  0.0634 -0.3108
47831OCT     C195661   3.433  19.450  16.770  0.4037  0.2361  0.2245
47831OCT     C295662   3.268  19.120  17.040 -0.0131 -0.0844  0.0311
47832OCT     C195663  10.242   1.051  16.691  0.5039 -0.1715 -0.0312
47832OCT     C295664  10.288   1.490  16.748  0.2285 -0.3830  0.1812
47833OCT     C195665   0.221   3.360  20.954 -0.0665  0.2213 -0.0238
47833OCT     C295666   0.572   3.341  21.272  0.1576 -0.2531  0.1529
47834OCT     C195667  22.746   4.011   4.982  0.0983  0.0053 -0.1725
47834OCT     C295668  22.983   4.420   4.861  0.2609 -0.0300  0.0520
47835OCT     C195669   0.199  10.085  16.274  0.0304 -0.1608 -0.0283
47835OCT     C295670  23.641  10.139  16.578 -0.2378 -0.3757 -0.1387
47836OCT     C195671   7.484   5.277  16.058 -0.0611  0.2982 -0.3179
47836OCT     C295672   7.064   5.304  16.214  0.0146 -0.2098 -0.2787
47837OCT     C195673   2.194  11.474   4.694  0.0053 -0.1137  0.1862
47837OCT     C295674   1.992  11.049   4.757 -0.0130  0.2291  0.1884
47838OCT     C195675  17.853   5.709  16.269 -0.2385 -0.0907  0.0469
47838OCT     C295676  18.190   5.958  16.046  0.1584 -0.0563  0.0253
47839OCT     C195677  14.762  19.834  22.263  0.0270 -0.1537 -0.2417
47839OCT     C295678  15.047  20.175  22.375 -0.0417  0.3298  0.1917
47840OCT     C195679  23.206  22.973  16.225  0.0198 -0.2631  0.4563
47840OCT     C295680  23.255  22.790  15.784 -0.0143  0.1305 -0.1289
47841OCT     C195681   8.698  22.397   1.801 -0.0489 -0.0074  0.0248
47841OCT     C295682   8.950  22.734   2.017  0.2293  0.0292  0.3266
47842OCT     C195683  23.264  19.843  11.579 -0.0614 -0.0109 -0.0491
47842OCT     C295684  23.310  20.145  11.220 -0.1311 -0.2392  0.1938
47843OCT     C195685  13.891  20.493   8.427 -0.1756 -0.2051  0.3255
47843OCT     C295686  13.881  20.041   8.311  0.0650  0.0304  0.1110
47844OCT     C195687  12.547   3.946  14.324 -0.1483  0.1343 -0.1364
47844OCT     C295688  12.347   4.209  14.697  0.5247 -0.0085  0.0551
47845OCT     C195689  14.182  22.359   1.582 -0.1117  0.3482  0.0503
47845OCT     C295690  14.397  22.460   1.962  0.0442  0.1950 -0.1152
47846OCT     C195691   2.307  16.667  17.965 -0.2704 -0.1111 -0.1464
47846OCT     C295692   2.320  16.234  18.108  0.0388  0.1260  0.1207
47847OCT     C195693   7.725   1.729   5.186  0.1495 -0.1124 -0.2446
47847OCT     C295694   7.997   1.685   4.821 -0.0242  0.3702  0.1120
47848OCT     C195695  14.887  13.628   5.507 -0.1694 -0.0477 -0.1736
47848OCT     C295696  15.200  13.411   5.272 -0.6105 -0.3310 -0.0538
47849OCT     C195697  10.182   2.517  17.721 -0.1328  0.0505  0.1713
47849OCT     C295698  10.080   2.645  18.190  0.1453  0.3630 -0.0311
47850OCT     C195699  23.503  12.512  22.447 -0.1558 -0.3207  0.1508
47850OCT     C295700  23.355  12.963  22.516  0.0885 -0.2079 -0.2161
47851OCT     C195701  13.697  14.771   5.611  0.0157  0.0314  0.0065
47851OCT     C295702  14.145  14.859   5.646  0.1542 -0.2867  0.3514
47852OCT     C195703   5.794  16.630   3.655  0.2361 -0.4019  0.1617
47852OCT     C295704   5.530  16.228   3.768  0.2028  0.2781  0.1196
47853OCT     C195705   8.817   1.858   0.723  0.4260  0.2790  0.1378
47853OCT     C295706   8.534   2.254   0.647  0.0483  0.1739 -0.1303
47854OCT     C195707  18.314  18.658   5.260  0.3139 -0.0747 -0.3850
47854OCT     C295708  17.900  18.642   5.054 -0.1471 -0.0920 -0.1024
47855OCT     C195709   2.900  15.360  11.028 -0.1640 -0.1459  0.1269
47855OCT     C295710   2.967  15.727  11.323  0.0911 -0.1630 -0.2868
47856OCT     C195711  20.509  14.565  10.816  0.4170  0.4104  0.2473
47856OCT     C295712  20.138  14.675  11.040  0.0696  0.1789  0.2834
47857OCT     C195713  15.754   5.194   4.628  0.0548 -0.1333  0.5528
47857OCT     C295714  16.039   5.111   5.043 -0.0967  0.1030  0.1865
47858OCT     C195715   2.110  10.297   2.336  0.1172  0.1102 -0.0188
47858OCT     C295716   2.188  10.107   2.751  0.2673 -0.0208 -0.1361
47859OCT     C195717   1.552   3.718  18.906 -0.2983 -0.1378 -0.1303
47859OCT     C295718   1.202   3.517  19.145  0.2859 -0.1557 -0.1303
47860OCT     C195719   4.854  13.613  11.515  0.0483  0.0804  0.2082
47860OCT     C295720   4.937  13.602  11.981 -0.1823 -0.0467  0.1478
47861OCT     C195721   1.848  19.731  22.524 -0.3557  0.0111 -0.2624
47861OCT     C295722   1.648  19.344  22.371  0.0663 -0.0271 -0.0319
47862OCT     C195723  13.353   5.518  20.168  0.0937  0.4490  0.2698
47862OCT     C295724  13.375   5.204  19.838  0.0660  0.2667 -0.3035
47863OCT     C195725   3.114  14.285  16.313 -0.2838  0.2319  0.2422
47863OCT     C295726   3.545  14.098  16.381  0.2055 -0.3125  0.1189
47864OCT     C195727  10.496  23.002   2.592  0.3047  0.2653 -0.1990
47864OCT     C295728  10.898  22.950   2.858  0.1890  0.0522 -0.1019
47865OCT     C195729  15.153  12.857   7.077  0.1824  0.0490  0.0610
47865OCT     C295730  15.401  12.915   7.461  0.1019  0.5018  0.0040
47866OCT     C195731   9.343   4.825   4.835  0.1210 -0.1540  0.5468
47866OCT     C295732   9.127   4.483   4.580  0.4046  0.2029 -0.0290
47867OCT     C195733   6.107  15.722  20.342 -0.0054 -0.1649 -0.1035
47867OCT     C295734   6.182  16.091  20.061 -0.0193 -0.0661  0.2490
47868OCT     C195735   1.178  19.553  14.064 -0.1017  0.3173 -0.0837
47868OCT     C295736   1.273  20.005  13.952 -0.0122  0.1831  0.4567
47869OCT     C195737   0.787  20.163   5.778  0.3282  0.2774  0.1271
47869OCT     C295738   0.820  19.858   5.378 -0.0729 -0.0236 -0.2055
47870OCT     C195739  15.774   0.300  12.080 -0.0569 -0.0470 -0.3457
47870OCT     C295740  15.712   0.187  11.601  0.2100 -0.4101  0.3648
47871OCT     C195741   4.797   0.069   4.680  0.0247  0.0325  0.2264
47871OCT     C295742   4.788   0.344   5.029  0.0571 -0.0739 -0.1668
47872OCT     C195743   3.715  11.750  12.253  0.3050 -0.1844  0.0791
47872OCT     C295744   4.105  11.646  12.444  0.1322 -0.2846 -0.1122
47873OCT     C195745   8.643   0.249   7.272 -0.1085  0.3138 -0.1081
47873OCT     C295746   8.281  23.669   7.243  0.2487  0.3738 -0.2862
47874OCT     C195747  14.013   6.996  12.241  0.2084  0.1238  0.0358
47874OCT     C295748  13.831   7.110  12.654 -0.2827  0.2565  0.2340
47875OCT     C195749   3.625  19.690  21.134  0.0576  0.3492 -0.1035
47875OCT     C295750   3.178  19.757  20.982  0.3746 -0.1294  0.1390
47876OCT     C195751  13.380  18.209   2.090  0.0362 -0.1656 -0.2676
47876OCT     C295752  13.385  17.939   1.702  0.1652 -0.2461 -0.0887
47877OCT     C195753   9.076   5.572  13.084 -0.2670 -0.2249  0.1730
47877OCT     C295754   9.246   5.857  13.406  0.4503  0.2712 -0.0945
47878OCT     C195755  19.919  23.141   3.035 -0.0259  0.0610  0.0429
47878OCT     C295756  20.115  23.103   2.596 -0.0141  0.4285 -0.1476
47879OCT     C195757  13.732  17.904  19.692  0.2598 -0.1127  0.4709
47879OCT     C295758  13.820  17.832  19.266 -0.0902  0.3027 -0.0455
47880OCT     C195759  15.031   2.858   4.281 -0.0347 -0.0284 -0.2336
47880OCT     C295760  15.237   2.452   4.197  0.5668 -0.0431  0.1852
47881OCT     C195761  17.567  10.345  22.459  0.1146 -0.3649 -0.0746
47881OCT     C295762  17.349  10.652  22.189 -0.1857  0.0031  0.1908
47882OCT     C195763   5.618  22.437   9.418 -0.1183  0.1409  0.2065
47882OCT     C295764   5.340  22.732   9.189 -0.0444  0.0154 -0.1469
47883OCT     C195765   6.847   7.519  13.342 -0.2935 -0.0087 -0.0451
47883OCT     C295766   6.555   7.814  13.089  0.1726  0.0947 -0.0577
47884OCT     C195767   4.698  13.145  15.813 -0.0659  0.4702  0.2328
47884OCT     C295768   5.041  13.259  16.161  0.4134 -0.2587 -0.4381
47885OCT     C195769   2.539  12.212  20.054 -0.2409  0.0736  0.0424
47885OCT     C295770   2.431  12.101  19.620  0.2616  0.0853 -0.2916
47886OCT     C195771  13.961   3.582  18.897  0.0154 -0.1146  0.2243
47886OCT     C295772  13.796   3.889  18.571  0.0865 -0.0211 -0.1147
47887OCT     C195773  10.559  15.712   7.399 -0.0214 -0.2397 -0.0024
47887OCT     C295774  10.691  15.813   7.846 -0.2432  0.1890 -0.2775
47888OCT     C195775  23.585  10.507   5.611 -0.3364  0.0239 -0.4655
47888OCT     C295776  23.680  10.015   5.530  0.2459  0.0063 -0.0803
47889OCT     C195777   7.469   1.757   6.695  0.1101  0.2553  0.1187
47889OCT     C295778   7.719   2.185   6.792 -0.0545  0.4334 -0.0810
47890OCT     C195779  20.542   9.093   1.232  0.2048 -0.0259 -0.3369
47890OCT     C295780  20.890   8.828   1.388  0.0748 -0.2360 -0.0399
47891OCT     C195781  16.105   0.036  21.976 -0.1627 -0.1878  0.2636
47891OCT     C295782  15.985  23.652  21.583  0.0774 -0.0497  0.0206
47892OCT     C195783  10.053   0.048  15.482 -0.1273 -0.2524  0.1048
47892OCT     C295784   9.697   0.241  15.306 -0.1818 -0.1810  0.1652
47893OCT     C195785   0.926   4.113  17.814 -0.0816 -0.1495 -0.0103
47893OCT     C295786   1.060   3.700  18.011 -0.1956  0.2986  0.2609
47894OCT     C195787  11.178   2.865  17.851 -0.6799 -0.1355  0.1610
47894OCT     C295788  11.102   3.257  17.595 -0.0135  0.1353  0.1833
47895OCT     C195789  15.343   6.095   8.887 -0.1658 -0.1437  0.1822
47895OCT     C295790  15.377   6.393   9.269  0.0638  0.3111  0.0477
47896OCT     C195791  20.124   6.152  21.436  0.0530 -0.3033  0.2053
47896OCT     C295792  19.768   5.900  21.753 -0.0067  0.1924  0.1595
47897OCT     C195793   7.246  11.620   9.446 -0.0674  0.3208  0.0973
47897OCT     C295794   7.443  12.092   9.430 -0.0286  0.1686  0.2937
47898OCT     C195795   7.881   7.968   8.940  0.0493 -0.0935 -0.0075
47898OCT     C295796   7.867   7.549   8.991 -0.0142  0.1533  0.3200
47899OCT     C195797  13.987  23.263   7.820 -0.0959 -0.2748  0.0830
47899OCT     C295798  13.952   0.017   7.856  0.0914 -0.0103  0.2349
47900OCT     C195799   5.006  12.850   7.225  0.1000  0.1487 -0.2375
47900OCT     C295800   5.462  12.830   7.326  0.2513 -0.3048 -0.1155
47901OCT     C195801   0.970   9.358  20.470  0.0692  0.0906 -0.1265
47901OCT     C295802   0.729   9.094  20.797  0.1008 -0.5118 -0.0464
47902OCT     C195803   2.116   8.515  15.705 -0.0411  0.1554 -0.2573
47902OCT     C295804   1.895   8.907  15.524 -0.0197 -0.1997 -0.0745
47903OCT     C195805   5.196   5.473  23.727  0.2009  0.1282 -0.3027
47903OCT     C295806   5.622   5.612  23.547 -0.3879 -0.2681 -0.0359
47904OCT     C195807   7.198   9.596  19.893 -0.3120  0.0341 -0.0739
47904OCT     C295808   7.159   9.533  20.297 -0.1768 -0.0262  0.1464
47905OCT     C195809   0.445  11.170  16.866  0.1577  0.0585  0.1495
47905OCT     C295810   0.693  11.558  16.764 -0.1229 -0.2585 -0.3810
47906OCT     C195811  11.918   4.760  16.087 -0.2237  0.0135 -0.0900
47906OCT     C295812  11.493   4.646  16.017  0.0217  0.5742  0.2648
47907OCT     C195813  16.821  10.384  11.016  0.0118  0.1376 -0.1265
47907OCT     C295814  16.781  10.845  11.048  0.0860 -0.1518  0.0622
47908OCT     C195815  12.432   5.500   8.705  0.3871 -0.0506 -0.3549
47908OCT     C295816  12.224   5.520   8.251 -0.0860 -0.2567  0.3299
47909OCT     C195817  23.087  14.890   9.490 -0.0825  0.1508 -0.1148
47909OCT     C295818  23.015  14.599   9.896  0.1436 -0.1661 -0.0507
47910OCT     C195819  20.227   0.946   0.130 -0.0796 -0.4946 -0.0125
47910OCT     C295820  20.231   0.932  23.437 -0.0830  0.2435  0.0241
47911OCT     C195821   3.151  21.751   3.418  0.0108 -0.0968 -0.2927
47911OCT     C295822   3.609  21.697   3.480  0.0222  0.2406 -0.3654
47912OCT     C195823   2.313   0.835  18.771  0.3812 -0.0332  0.1265
47912OCT     C295824   2.536   1.168  18.949 -0.0467 -0.0437  0.0263
47913OCT     C195825  16.053   2.817  17.943 -0.1781 -0.0756  0.2958
47913OCT     C295826  16.360   2.616  18.196  0.1818  0.0810 -0.2621
47914OCT     C195827  11.627  21.542   6.808 -0.0842  0.3932  0.1285
47914OCT     C295828  11.481  21.722   7.205 -0.2529  0.0307 -0.0183
47915OCT     C195829  20.109  22.180  20.073  0.1112 -0.0679  0.1111
47915OCT     C295830  20.490  22.158  19.792  0.0264 -0.2869  0.3252
47916OCT     C195831   1.499   0.574  22.898  0.2248 -0.2154 -0.2696
47916OCT     C295832   1.456   0.380  23.296  0.0033  0.1334  0.1229
47917OCT     C195833  17.773  22.537   3.995 -0.0308  0.0772  0.2034
47917OCT     C295834  18.012  22.672   3.632 -0.1636  0.0642  0.1902
47918OCT     C195835   6.615   2.493   4.521 -0.3058 -0.0432  0.0600
47918OCT     C295836   6.236   2.418   4.288 -0.1381  0.3742 -0.5372
47919OCT     C195837  22.878   7.313  23.168 -0.0562  0.3370  0.0052
47919OCT     C295838  22.581   7.585  23.400 -0.1861 -0.4141  0.0753
47920OCT     C195839  17.629  11.574  21.771 -0.2975 -0.0895 -0.0433
47920OCT     C295840  17.570  11.422  22.248  0.5226 -0.2308  0.1703
47921OCT     C195841   2.516  11.176  14.312  0.0433 -0.1311 -0.0543
47921OCT     C295842   2.820  11.171  14.643 -0.1636  0.0578 -0.1352
47922OCT     C195843  15.861  22.672   9.915 -0.0412 -0.2329  0.0017
47922OCT     C295844  16.131  23.008  10.168 -0.1796  0.0616 -0.1657
47923OCT     C195845  22.579   8.298  18.183  0.1919 -0.2434 -0.0328
47923OCT     C295846  22.690   8.626  17.880 -0.4484  0.4559 -0.2836
47924OCT     C195847   1.309  22.379  14.353  0.3439  0.1836  0.0650
47924OCT     C295848   1.482  22.653  14.723 -0.1241 -0.1265  0.0735
47925OCT     C195849  10.254  21.497   8.163 -0.2357  0.0134  0.0053
47925OCT     C295850   9.942  21.289   7.922  0.2504  0.0542 -0.3386
47926OCT     C195851   6.327  11.581  13.206 -0.0190  0.2124  0.3992
47926OCT     C295852   6.270  11.979  13.200  0.0492 -0.0262  0.1691
47927OCT     C195853  16.337   3.944  10.562 -0.1289  0.1364  0.4149
47927OCT     C295854  15.918   3.844  10.577 -0.2372 -0.2049 -0.3683
47928OCT     C195855  23.635   4.729  17.764  0.1910 -0.1773  0.0002
47928OCT     C295856   0.093   4.494  17.370  0.1633 -0.0650 -0.2919
47929OCT     C195857  15.938  15.897  12.595  0.0138  0.2448  0.1455
47929OCT     C295858  16.396  15.780  12.771  0.0289  0.0462  0.1059
47930OCT     C195859  13.467  17.477  10.070 -0.4654 -0.1156  0.1413
47930OCT     C295860  13.351  17.697   9.671 -0.0969  0.1162 -0.0421
47931OCT     C195861  12.577  14.082   2.209  0.2433 -0.0071 -0.0545
47931OCT     C295862  12.274  14.453   2.194 -0.2334  0.0526 -0.3839
47932OCT     C195863   7.666  22.632   0.508  0.0265  0.0041  0.0715
47932OCT     C295864   7.740  22.648   0.954 -0.0115 -0.2227  0.3271
47933OCT     C195865   3.491   3.688  14.872  0.1579  0.1476  0.1534
47933OCT     C295866   3.266   4.116  14.951  0.1260  0.2747 -0.2096
47934OCT     C195867  16.634   5.762   2.654 -0.2980 -0.1805  0.0401
47934OCT     C295868  16.668   5.492   2.299 -0.2240  0.2838 -0.2707
47935OCT     C195869   4.123   3.556  15.536 -0.3798 -0.2947 -0.0723
47935OCT     C295870   3.869   3.138  15.605 -0.0696 -0.1210  0.0080
47936OCT     C195871   5.937   2.813   8.733  0.1723  0.1441 -0.0455
47936OCT     C295872   6.053   2.884   9.226  0.0475  0.1718  0.2340
47937OCT     C195873  19.025   8.718  19.803 -0.1099  0.0804  0.1097
47937OCT     C295874  18.711   8.847  19.575 -0.3696 -0.2599  0.6838
47938OCT     C195875   8.973  12.593  19.744 -0.1429  0.0756 -0.1788
47938OCT     C295876   8.951  12.902  19.349 -0.2793  0.0741 -0.0633
47939OCT     C195877  20.633  21.778   4.555  0.1057  0.1463  0.1385
47939OCT     C295878  20.251  21.611   4.386 -0.0646 -0.1443  0.0621
47940OCT     C195879  11.016   4.415   0.868 -0.0339 -0.3520  0.0285
47940OCT     C295880  11.338   4.638   1.181  0.3206 -0.0185 -0.2067
47941OCT     C195881  21.186  11.150   4.482  0.0989 -0.1759 -0.1675
47941OCT     C295882  21.557  10.896   4.276 -0.0028  0.0766  0.0587
47942OCT     C195883   4.752  21.996   3.676  0.2331  0.0035  0.1474
47942OCT     C295884   5.208  21.931   3.724 -0.1142  0.2107 -0.0359
47943OCT     C195885  16.194   6.974  18.139 -0.0473 -0.0379  0.2105
47943OCT     C295886  15.769   7.016  17.875 -0.0208 -0.2129  0.3388
47944OCT     C195887  17.991   5.431  18.264  0.2105 -0.2638 -0.3881
47944OCT     C295888  17.521   5.399  18.365  0.3749 -0.1106  0.2337
47945OCT     C195889  13.045  18.149  22.097  0.0321  0.1630  0.2381
47945OCT     C295890  12.864  18.116  21.608  0.2144 -0.0664  0.1423
47946OCT     C195891  16.760  10.343   0.195 -0.1204 -0.0130 -0.0967
47946OCT     C295892  16.313  10.387   0.099 -0.1855  0.2248  0.2175
47947OCT     C195893   1.357  15.603  23.338 -0.3638 -0.4552  0.3735
47947OCT     C295894   1.628  15.389  23.630 -0.0265 -0.0228 -0.1140
47948OCT     C195895  20.770  17.186  16.274  0.4825  0.2934 -0.1459
47948OCT     C295896  20.344  17.085  16.219 -0.1269  0.0035  0.1014
47949OCT     C195897  14.302  20.917  18.688 -0.1485 -0.2189  0.1328
47949OCT     C295898  14.457  21.174  18.346  0.0299  0.1593  0.1187
47950OCT     C195899   7.231   4.668   6.705  0.2744 -0.2493 -0.1240
47950OCT     C295900   7.594   4.971   6.730  0.2166  0.2089 -0.3540
47951OCT     C195901  17.169  19.742  19.171  0.0761 -0.1231  0.0709
47951OCT     C295902  16.975  19.718  19.600  0.0810  0.3562 -0.0211
47952OCT     C195903  16.865  16.093  13.042 -0.0161  0.0456  0.3691
47952OCT     C295904  17.240  16.211  12.787  0.1148  0.2645  0.1975
47953OCT     C195905   3.332   7.208  18.905  0.2904 -0.1357 -0.0655
47953OCT     C295906   3.475   7.621  19.034 -0.0902  0.2921  0.1510
47954OCT     C195907  17.635  13.171  23.593  0.1147  0.0819  0.1991
47954OCT     C295908  17.606  13.207   0.324 -0.3330  0.3457 -0.1794
47955OCT     C195909  12.466  20.218  15.800  0.2804 -0.1628  0.2497
47955OCT     C295910  12.274  20.136  16.229 -0.0794  0.2097 -0.1017
47956OCT     C195911  11.466  12.064  16.651 -0.2134 -0.1766  0.2059
47956OCT     C295912  11.086  12.060  16.860 -0.1782 -0.2487 -0.1786
47957OCT     C195913  12.319  13.425   0.686 -0.0845  0.1163 -0.1658
47957OCT     C295914  12.342  13.067   0.385 -0.3000 -0.2132  0.1992
47958OCT     C195915  20.346   4.143   3.773  0.0219 -0.4640  0.0896
47958OCT     C295916  20.672   4.346   3.523  0.5384 -0.0478 -0.3502
47959OCT     C195917  21.959   6.969  19.257  0.2792  0.1251  0.0219
47959OCT     C295918  22.382   7.159  19.275  0.0536  0.3010  0.1047
47960OCT     C195919  16.197  11.519   2.264  0.2974 -0.0869  0.2581
47960OCT     C295920  15.929  11.323   1.931  0.0033 -0.4914  0.0578
47961OCT     C195921  22.326  11.066   9.137 -0.1397  0.1138 -0.0058
47961OCT     C295922  22.817  11.184   9.034  0.3665 -0.0565  0.0498
47962OCT     C195923   5.207  12.533   1.772  0.0465 -0.1159  0.1300
47962OCT     C295924   5.454  12.208   2.016  0.0120  0.0051  0.0750
47963OCT     C195925  19.290  15.852   5.965  0.4152  0.1887 -0.2314
47963OCT     C295926  18.845  15.760   5.964 -0.0100 -0.2439 -0.1056
47964OCT     C195927   7.124   4.573  19.237  0.0466  0.1112  0.0801
47964OCT     C295928   7.337   4.294  18.933  0.1189  0.0452 -0.2512
47965OCT     C195929   6.294  17.412  17.467 -0.0378  0.0082  0.1066
47965OCT     C295930   6.782  17.465  17.522  0.2438 -0.1153  0.1005
47966OCT     C195931   1.460  22.532   6.903  0.1063 -0.2411  0.0742
47966OCT     C295932   1.901  22.528   6.716 -0.3786  0.0753 -0.3990
47967OCT     C195933   7.052  13.202   6.114  0.2869 -0.3642  0.1799
47967OCT     C295934   7.251  13.612   6.001 -0.2020 -0.0776 -0.0446
47968OCT     C195935   4.129   9.840  15.681  0.0448  0.0805 -0.1284
47968OCT     C295936   4.558   9.744  15.802 -0.0920 -0.3185 -0.2215
47969OCT     C195937  22.905  17.805  13.242 -0.1777  0.0358  0.1043
47969OCT     C295938  23.364  18.006  13.279 -0.0679  0.1997 -0.1857
47970OCT     C195939   7.086  15.758  23.484 -0.2006  0.1077 -0.1378
47970OCT     C295940   6.724  15.665  23.297 -0.0445  0.0253 -0.1126
47971OCT     C195941  12.738  16.583   8.586  0.1816  0.1424  0.0488
47971OCT     C295942  12.753  16.699   9.032  0.1542  0.2361 -0.1860
47972OCT     C195943  14.115   0.479  11.023 -0.4454 -0.3652  0.3674
47972OCT     C295944  13.924   0.875  11.027  0.2611  0.1277  0.0324
47973OCT     C195945   9.961  21.999   3.779  0.0481  0.0205  0.2710
47973OCT     C295946  10.108  22.254   3.430  0.1327 -0.1073  0.3644
47974OCT     C195947  13.555   5.137   9.162  0.3872  0.0353 -0.1139
47974OCT     C295948  13.513   4.803   9.475  0.3344 -0.1559  0.2661
47975OCT     C195949  11.225   8.582   0.476  0.0287 -0.2219 -0.1589
47975OCT     C295950  10.887   8.815   0.318  0.0553 -0.1404 -0.1024
47976OCT     C195951  13.254  22.132  14.198 -0.0355 -0.1748  0.1473
47976OCT     C295952  12.823  22.069  14.389 -0.0344 -0.0778 -0.2741
47977OCT     C195953  19.153   9.811  16.323 -0.3639 -0.1365 -0.2163
47977OCT     C295954  19.540  10.016  16.453 -0.1076 -0.2504 -0.4110
47978OCT     C195955   4.763  22.617   8.612 -0.1472  0.2917  0.2029
47978OCT     C295956   4.506  22.215   8.373 -0.1721 -0.0158  0.0550
47979OCT     C195957   5.165  15.277  19.147 -0.1632  0.2848  0.0858
47979OCT     C295958   5.552  15.373  18.944  0.1093 -0.3141  0.1601
47980OCT     C195959   1.119  16.340   1.766 -0.2660 -0.3159 -0.0983
47980OCT     C295960   0.767  16.134   1.507  0.2162 -0.1749  0.0095
47981OCT     C195961  19.161  22.499   3.105  0.3303  0.0772 -0.1563
47981OCT     C295962  19.189  22.477   2.618  0.3413  0.3167  0.0608
47982OCT     C195963  10.277   4.751  16.161  0.2411 -0.0609 -0.1085
47982OCT     C295964   9.892   4.829  15.969  0.3597  0.0018 -0.0951
47983OCT     C195965  21.099  14.415   1.849 -0.2388  0.0568  0.3249
47983OCT     C295966  21.433  14.274   2.071  0.0906  0.0727 -0.1673
47984OCT     C195967  19.370  21.879   2.442  0.0588  0.0293  0.1137
47984OCT     C295968  19.310  21.638   2.006  0.0050  0.1540 -0.1014
47985OCT     C195969   0.680  13.249  10.445 -0.0337  0.1106  0.2171
47985OCT     C295970   0.995  13.324  10.792  0.3489  0.2198 -0.0385
47986OCT     C195971  11.978   7.284   4.585 -0.1041 -0.0891 -0.0754
47986OCT     C295972  12.179   7.554   4.252 -0.1922  0.1001 -0.0693
47987OCT     C195973  16.283   5.887  11.816  0.2217  0.3139 -0.2829
47987OCT     C295974  15.862   5.947  11.942 -0.1451  0.1813  0.0629
47988OCT     C195975   0.939  12.385   1.732 -0.1263  0.3779  0.0007
47988OCT     C295976   1.392  12.219   1.934  0.3048  0.3104  0.2036
47989OCT     C195977   0.680   3.266  13.001  0.2073 -0.2772  0.3020
47989OCT     C295978   0.991   3.286  13.322 -0.1158 -0.0356 -0.3823
47990OCT     C195979  11.897  21.266   3.110  0.1839  0.0921  0.0743
47990OCT     C295980  11.797  20.893   2.793 -0.0977  0.3828  0.4292
47991OCT     C195981  18.150  22.067   9.607 -0.0897  0.1186 -0.4057
47991OCT     C295982  18.046  22.323   9.970  0.5378 -0.1223 -0.0890
47992OCT     C195983   9.601   5.845   9.124  0.1776  0.2581 -0.3023
47992OCT     C295984   9.501   6.218   8.865 -0.0408 -0.0652  0.0693
47993OCT     C195985  15.268   8.213  18.270  0.0307  0.2038 -0.3683
47993OCT     C295986  15.404   8.318  17.844 -0.1987 -0.1182  0.1593
47994OCT     C195987  16.696   4.265   4.575  0.1621 -0.0307  0.1112
47994OCT     C295988  16.930   4.232   4.121 -0.3489 -0.0712  0.0738
47995OCT     C195989  16.936   8.629  11.583  0.2463  0.2509  0.1840
47995OCT     C295990  17.149   8.975  11.818 -0.0955 -0.2696 -0.3368
47996OCT     C195991  16.484  13.350  21.629 -0.1327  0.4287  0.0254
47996OCT     C295992  16.406  13.731  21.936  0.0145 -0.0289 -0.3020
47997OCT     C195993  12.525  10.044   9.922  0.1921  0.1922 -0.2727
47997OCT     C295994  12.402  10.478   9.762  0.1954 -0.0409  0.0419
47998OCT     C195995   0.210  18.260   2.064  0.1217  0.1004 -0.1657
47998OCT     C295996   0.060  18.451   1.646  0.0039 -0.2704  0.1186
47999OCT     C195997  15.631   3.247  17.859  0.2887  0.1487  0.2289
47999OCT     C295998  15.628   2.863  17.598 -0.4503  0.3531 -0.4339
48000OCT     C195999  11.654  20.600   0.576 -0.1025  0.0523 -0.1653
48000OCT     C296000  12.058  20.436   0.299 -0.2892 -0.0563  0.1423
48001OCT     C196001  12.261  15.529  22.044  0.2069  0.1026 -0.0322
48001OCT     C296002  12.131  15.875  21.662  0.1047  0.1952  0.2064
48002OCT     C196003   4.638  16.535  22.836  0.1238 -0.4119 -0.0855
48002OCT     C296004   4.792  16.583  23.265  0.3092 -0.2458  0.3323
48003OCT     C196005  19.993   1.378  22.784 -0.0490 -0.1088  0.0176
48003OCT     C296006  19.845   1.341  23.217 -0.2460  0.0584  0.2923
48004OCT     C196007  12.361  20.850   2.788  0.1108 -0.0515 -0.1113
48004OCT     C296008  12.147  20.440   2.665  0.2071 -0.1530  0.1452
48005OCT     C196009   1.018   2.876  21.329 -0.1260  0.1823  0.2837
48005OCT     C296010   1.405   3.007  21.160 -0.0561 -0.0059  0.0629
48006OCT     C196011  19.779  17.498   6.545 -0.1847  0.0405 -0.2398
48006OCT     C296012  19.786  17.077   6.401 -0.3697  0.1208  0.1647
48007OCT     C196013   2.152  12.476   6.917 -0.1561 -0.0665 -0.0111
48007OCT     C296014   2.291  12.928   6.845  0.1489 -0.0067  0.3382
48008OCT     C196015  23.685  21.709   0.735  0.0286  0.1048 -0.1169
48008OCT     C296016   0.147  21.423   0.421 -0.1844  0.0723  0.0489
48009OCT     C196017  20.051   6.306   5.676 -0.0975 -0.5115 -0.2080
48009OCT     C296018  19.769   5.946   5.528  0.0989 -0.0268  0.0284
48010OCT     C196019   5.070   0.462   0.412  0.1479 -0.0898 -0.1645
48010OCT     C296020   5.416   0.759   0.398  0.0035  0.0778 -0.1861
48011OCT     C196021  16.783   8.675  18.653  0.2811  0.3049 -0.3541
48011OCT     C296022  16.507   8.790  18.278  0.0490 -0.0733 -0.1884
48012OCT     C196023   1.745  18.992  16.465 -0.3649 -0.1648 -0.1855
48012OCT     C296024   1.696  19.320  16.087 -0.1222 -0.1416 -0.1063
48013OCT     C196025  23.137   7.543  16.468 -0.0268  0.1953 -0.1582
48013OCT     C296026  23.221   7.870  16.167  0.0131  0.1640  0.0547
48014OCT     C196027  10.577   5.042  19.693 -0.1403 -0.2069 -0.0250
48014OCT     C296028  10.727   4.793  19.321 -0.4231 -0.1777  0.1188
48015OCT     C196029  23.673  13.855  13.946  0.0510  0.1629  0.1130
48015OCT     C296030  23.491  13.712  13.491 -0.2697 -0.2685 -0.2838
48016OCT     C196031  17.955   8.357  10.454  0.2795  0.0071 -0.0635
48016OCT     C296032  17.741   8.450  10.087  0.1273  0.0354 -0.2740
48017OCT     C196033  15.761   2.586  19.026 -0.1950  0.1033  0.0990
48017OCT     C296034  15.366   2.401  18.909  0.0295 -0.1151  0.2318
48018OCT     C196035   8.975  23.086   4.485 -0.1442  0.0914  0.0648
48018OCT     C296036   8.641  22.733   4.448 -0.3211  0.0899 -0.4003
48019OCT     C196037   8.502  22.430  16.344  0.1768 -0.4090 -0.0146
48019OCT     C296038   8.357  22.697  15.966  0.0041  0.2074  0.1372
48020OCT     C196039   2.762   1.670  18.992 -0.2714 -0.3578 -0.1539
48020OCT     C296040   2.306   1.596  18.772 -0.1171 -0.1355 -0.2784
48021OCT     C196041  14.003  21.242   9.784 -0.1754 -0.3589  0.1950
48021OCT     C296042  13.594  21.391   9.568  0.0977  0.2166 -0.0662
48022OCT     C196043  17.479  17.510   1.095  0.4487 -0.1029  0.0146
48022OCT     C296044  17.420  17.915   0.934 -0.1377 -0.2219 -0.0199
48023OCT     C196045   5.561  12.144   3.501 -0.3691 -0.2118  0.1334
48023OCT     C296046   5.180  12.243   3.288  0.0278  0.1845  0.1637
48024OCT     C196047  13.675  15.959  13.788 -0.1621 -0.1615 -0.3240
48024OCT     C296048  13.847  15.534  13.988 -0.2373 -0.3789  0.2126
48025OCT     C196049  14.665  12.400   3.464  0.2187 -0.2110 -0.0607
48025OCT     C296050  14.737  12.389   2.961  0.0167  0.2251 -0.2506
48026OCT     C196051   6.393   8.332   7.999  0.2077 -0.1198 -0.0038
48026OCT     C296052   6.118   8.483   7.632  0.2421 -0.1174  0.1252
48027OCT     C196053  10.608  11.082  21.754  0.0219  0.0532  0.0206
48027OCT     C296054  10.710  11.143  21.314 -0.1187 -0.0246 -0.0063
48028OCT     C196055  11.430   4.783   4.649  0.1306 -0.0080  0.3505
48028OCT     C296056  11.408   4.619   4.215 -0.2680 -0.3317  0.0203
48029OCT     C196057   0.228  12.428  18.348  0.1980  0.3403  0.3410
48029OCT     C296058   0.360  11.980  18.276 -0.0201 -0.1138 -0.0430
48030OCT     C196059   1.233  11.481  17.830  0.4673  0.1815  0.1336
48030OCT     C296060   1.311  11.026  18.076  0.0530 -0.5151 -0.2211
48031OCT     C196061  10.684  15.420  12.975  0.1917  0.2987  0.0061
48031OCT     C296062  10.513  15.452  13.412 -0.0481 -0.1395  0.0058
48032OCT     C196063  23.247  21.904  14.255 -0.0927  0.0341  0.1514
48032OCT     C296064  23.635  21.676  14.144  0.2486  0.0800  0.0599
48033OCT     C196065  12.424   9.246  19.078 -0.1159  0.3595 -0.3949
48033OCT     C296066  12.670   8.952  19.383  0.3458 -0.4323 -0.2934
48034OCT     C196067  17.480   8.564   6.374  0.0168 -0.3481  0.1802
48034OCT     C296068  17.836   8.457   6.038 -0.4829  0.0231 -0.0119
48035OCT     C196069  11.909   2.855   1.821  0.0886  0.2128 -0.4296
48035OCT     C296070  12.052   2.508   1.527 -0.0418  0.1204  0.0684
48036OCT     C196071  10.362   6.597  16.229  0.0186  0.0641  0.0693
48036OCT     C296072  10.561   6.523  16.659  0.1145  0.0221  0.1520
48037OCT     C196073   8.769  22.853   6.108  0.0401 -0.2378  0.2993
48037OCT     C296074   9.086  22.723   6.390 -0.0405 -0.1370 -0.1531
48038OCT     C196075   4.499   5.090   0.410  0.3941  0.3471 -0.0248
48038OCT     C296076   4.669   5.369   0.722  0.1369 -0.2190  0.4496
48039OCT     C196077   5.626  17.160  17.742  0.0564 -0.0959  0.2163
48039OCT     C296078   5.954  17.027  18.021  0.2754  0.2200 -0.1087
48040OCT     C196079   5.398  13.735   9.374  0.1325  0.0752  0.0029
48040OCT     C296080   5.780  13.553   9.233  0.3176  0.2256 -0.0258
48041OCT     C196081  17.899  15.563   3.563 -0.0207  0.0250  0.0842
48041OCT     C296082  17.980  15.456   3.969  0.0853 -0.0971 -0.0435
48042OCT     C196083   3.556  22.016   9.293  0.5025 -0.0569  0.0030
48042OCT     C296084   3.098  21.915   9.174  0.2528 -0.3277  0.0945
48043OCT     C196085  18.131   1.668   5.772  0.0719  0.0580 -0.0458
48043OCT     C296086  18.520   1.740   5.956 -0.0697 -0.3978  0.0202
48044OCT     C196087  21.626  13.656   2.962 -0.0993 -0.0784  0.0582
48044OCT     C296088  21.328  13.430   2.720 -0.0409 -0.3681 -0.3694
48045OCT     C196089  11.498  14.696  11.470  0.0595 -0.4258  0.1773
48045OCT     C296090  11.685  15.168  11.538 -0.5264  0.0251  0.0977
48046OCT     C196091  21.047  14.018   0.636  0.0632 -0.2272 -0.0850
48046OCT     C296092  20.599  14.214   0.760  0.0209  0.0296  0.0230
48047OCT     C196093   1.067   0.698  18.043  0.1812 -0.0439 -0.0798
48047OCT     C296094   0.768   0.859  18.364  0.3630  0.0633 -0.0362
48048OCT     C196095   2.244  11.813   9.739  0.3608 -0.0365 -0.3199
48048OCT     C296096   2.218  11.378   9.884  0.0004  0.0232 -0.0494
48049OCT     C196097  15.352  14.145  22.418 -0.5000 -0.2023  0.0577
48049OCT     C296098  15.360  14.607  22.489 -0.2219 -0.0331  0.2404
48050OCT     C196099   8.234  23.198   0.310 -0.1697  0.2023  0.1804
48050OCT     C296100   8.285  23.365   0.745  0.0085 -0.0528  0.2554
48051OCT     C196101  15.302   2.074  17.323 -0.0674  0.2021  0.1085
48051OCT     C296102  15.668   2.390  17.431  0.1340 -0.3153 -0.3367
48052OCT     C196103  20.410  22.033  23.577 -0.2280  0.0348  0.0653
48052OCT     C296104  20.758  22.259   0.114  0.0536 -0.0108  0.0123
48053OCT     C196105   8.500  22.757   8.290 -0.1756  0.0905  0.0878
48053OCT     C296106   8.232  22.425   8.476  0.0914 -0.1574 -0.1490
48054OCT     C196107  20.271  21.580   9.000  0.0222  0.3014  0.1327
48054OCT     C296108  20.265  21.812   8.554  0.0817  0.3315  0.0879
48055OCT     C196109  16.965  22.374  22.422 -0.0415 -0.1343 -0.1394
48055OCT     C296110  16.556  22.408  22.591  0.1221 -0.0497 -0.4521
48056OCT     C196111  12.060   9.686  18.219  0.1376 -0.0748  0.1505
48056OCT     C296112  11.691   9.518  18.499 -0.0741 -0.2752 -0.1041
48057OCT     C196113   6.233  19.811   0.137 -0.1468  0.0942 -0.0523
48057OCT     C296114   6.151  20.250   0.175  0.0391 -0.2057  0.1407
48058OCT     C196115   8.475   8.548   8.408 -0.2476  0.1166  0.2193
48058OCT     C296116   8.721   8.159   8.492  0.1604 -0.1872 -0.1477
48059OCT     C196117   4.058  21.024   6.382  0.3834  0.0189 -0.0692
48059OCT     C296118   4.269  20.658   6.181 -0.3399  0.1174 -0.0903
48060OCT     C196119   8.299   6.097  15.931 -0.0532  0.0417 -0.0346
48060OCT     C296120   8.442   5.666  15.838 -0.0813 -0.2107 -0.2858
48061OCT     C196121  13.279  21.834   3.855  0.1049 -0.3338 -0.2120
48061OCT     C296122  12.877  22.119   3.761 -0.0230  0.0368  0.0053
48062OCT     C196123  18.913  22.620   9.585  0.0511  0.3227 -0.1000
48062OCT     C296124  18.415  22.538   9.568 -0.2601  0.0539  0.2090
48063OCT     C196125  22.937  20.236  10.803 -0.0383  0.0847  0.1082
48063OCT     C296126  22.712  20.276  10.416 -0.1180 -0.0276 -0.1558
48064OCT     C196127   4.916  23.056   7.649  0.0706 -0.0882  0.1977
48064OCT     C296128   4.912  22.783   8.017 -0.0357  0.0805 -0.2178
48065OCT     C196129  13.448   8.939   6.961  0.0304  0.1203 -0.0816
48065OCT     C296130  13.094   8.881   6.663  0.0127 -0.0671 -0.2643
48066OCT     C196131   5.876  22.008  19.136 -0.0917  0.3459 -0.1324
48066OCT     C296132   6.151  21.964  19.534  0.0701  0.1015 -0.2036
48067OCT     C196133  18.986   5.904   3.911  0.1937  0.0674 -0.0702
48067OCT     C296134  18.646   5.633   4.006  0.3325 -0.2900 -0.0429
48068OCT     C196135  13.827  19.780  20.754 -0.0227 -0.1728 -0.3067
48068OCT     C296136  13.536  19.423  20.728  0.1628 -0.2407  0.0607
48069OCT     C196137  11.939  10.426  17.633 -0.7125 -0.3211 -0.2194
48069OCT     C296138  11.834  10.720  17.237 -0.0715  0.1201 -0.0507
48070OCT     C196139  10.598   6.455   9.672 -0.3391  0.0138  0.1309
48070OCT     C296140  11.066   6.549   9.650 -0.2326 -0.0507  0.1060
48071OCT     C196141   6.374  18.032  10.852  0.0500  0.1219 -0.1512
48071OCT     C296142   6.814  17.848  10.978  0.0297  0.0595 -0.2942
48072OCT     C196143  18.140  18.296   3.429  0.0516 -0.1303 -0.5272
48072OCT     C296144  18.312  18.315   3.868  0.0700 -0.1261 -0.0543
48073OCT     C196145  14.344  23.722   5.009 -0.0254  0.0113 -0.3729
48073OCT     C296146  14.672   0.334   5.260  0.1673 -0.0334  0.0415
48074OCT     C196147   2.605   7.350  17.317  0.0630 -0.4096  0.0082
48074OCT     C296148   3.026   7.432  17.513 -0.3493 -0.0364  0.1802
48075OCT     C196149  12.877  11.808   2.689  0.0010 -0.1791 -0.2617
48075OCT     C296150  13.190  12.090   2.696  0.2532  0.2144  0.3544
48076OCT     C196151   0.705   1.003  21.915 -0.1280  0.3196 -0.2089
48076OCT     C296152   0.602   0.618  21.746 -0.1293  0.3355  0.2169
48077OCT     C196153  20.275  11.881  11.582  0.0074 -0.1859  0.2768
48077OCT     C296154  19.995  11.548  11.716  0.2210 -0.1040 -0.0996
48078OCT     C196155  14.635  17.664   6.820 -0.4776  0.0264  0.1592
48078OCT     C296156  14.398  17.557   7.185  0.0822 -0.2283  0.1554
48079OCT     C196157  13.405   3.217  11.251 -0.1586 -0.0235  0.2420
48079OCT     C296158  13.007   3.083  11.471  0.2346  0.2062 -0.1945
48080OCT     C196159  23.587   0.945  19.872  0.1668  0.1599 -0.1242
48080OCT     C296160  23.727   0.552  20.095  0.4088  0.0693 -0.3306
48081OCT     C196161   0.837  21.840  13.219 -0.4679 -0.0133  0.1029
48081OCT     C296162   0.673  22.276  13.268  0.1764 -0.0498  0.4372
48082OCT     C196163   4.006  17.030  18.178  0.1032 -0.3407 -0.0762
48082OCT     C296164   4.494  17.181  18.198  0.0861  0.0752  0.2933
48083OCT     C196165   9.990   3.798   6.259 -0.1618  0.1113 -0.0217
48083OCT     C296166  10.302   3.805   6.562  0.1630 -0.4200 -0.1339
48084OCT     C196167   1.716  12.922   6.192  0.1455 -0.2504  0.0107
48084OCT     C296168   1.488  13.039   5.838  0.1527  0.2284 -0.2226
48085OCT     C196169   2.489   1.936  18.454 -0.4350 -0.0358  0.1828
48085OCT     C296170   2.912   1.875  18.223  0.1803  0.0417 -0.2252
48086OCT     C196171   6.083  13.009   0.063  0.3617 -0.3029 -0.0906
48086OCT     C296172   6.339  13.386   0.221  0.0340  0.3636  0.1641
48087OCT     C196173  21.927  14.277  22.482  0.0598 -0.4846 -0.1223
48087OCT     C296174  22.145  13.900  22.573  0.1217  0.0790  0.4473
48088OCT     C196175  17.150  19.846   5.891 -0.2892  0.3576  0.1508
48088OCT     C296176  17.541  19.980   5.677  0.1939  0.0220  0.0232
48089OCT     C196177   9.592  17.269  22.857  0.1701  0.5382 -0.1034
48089OCT     C296178   9.634  17.621  22.529  0.0715 -0.3724 -0.2505
48090OCT     C196179   5.896   7.873  10.893  0.1732  0.0963 -0.0236
48090OCT     C296180   5.472   7.915  10.649 -0.3397 -0.1006 -0.0503
48091OCT     C196181  20.980  18.748   2.189  0.1509  0.1822 -0.0032
48091OCT     C296182  20.566  19.009   2.373 -0.0196  0.1606  0.4252
48092OCT     C196183  11.209  12.661   9.414 -0.1694 -0.0441  0.1591
48092OCT     C296184  10.947  13.106   9.408 -0.0260  0.2467  0.1132
48093OCT     C196185  19.609  12.136   2.424 -0.1334  0.0657 -0.1789
48093OCT     C296186  19.572  12.465   2.081 -0.1202  0.0120  0.0174
48094OCT     C196187  22.870  12.100  19.940 -0.2660 -0.0490 -0.3533
48094OCT     C296188  22.528  12.028  20.151  0.0919 -0.2650  0.0020
48095OCT     C196189  10.966  16.293  13.997 -0.0057 -0.0998  0.0085
48095OCT     C296190  11.235  16.513  14.366  0.2828  0.4107  0.3753
48096OCT     C196191  20.783   6.637   9.289 -0.2705  0.0366  0.1435
48096OCT     C296192  20.565   6.969   9.564  0.1106  0.0874 -0.2592
48097OCT     C196193   9.923  17.343  21.160 -0.0557 -0.2654 -0.0954
48097OCT     C296194  10.268  17.306  20.872 -0.3800 -0.2066  0.1904
48098OCT     C196195  19.117  18.027  17.047 -0.2911  0.1850  0.1799
48098OCT     C296196  19.050  17.976  17.559  0.0248 -0.3411  0.1462
48099OCT     C196197   6.529  10.045  12.550 -0.0103  0.1379 -0.0984
48099OCT     C296198   6.331   9.622  12.541 -0.0995 -0.0183  0.1222
48100OCT     C196199   3.557  14.524  13.383  0.1592  0.1318  0.3537
48100OCT     C296200   3.147  14.835  13.471 -0.1544 -0.0751 -0.2865
48101OCT     C196201  11.564   4.987  20.554  0.2335 -0.3369  0.1715
48101OCT     C296202  11.967   5.210  20.410 -0.0637  0.0749  0.2019
48102OCT     C196203  18.616  10.177  19.985 -0.4986  0.6443 -0.2013
48102OCT     C296204  18.929  10.425  19.763 -0.1972 -0.3333  0.2166
48103OCT     C196205   6.995   1.243  15.084  0.0358 -0.0535 -0.2099
48103OCT     C296206   6.613   0.983  14.969  0.3478  0.2954 -0.3161
48104OCT     C196207   6.817   3.342  12.502  0.0527 -0.0911  0.0585
48104OCT     C296208   6.884   3.624  12.853  0.1025  0.0944 -0.0841
48105OCT     C196209  10.819  12.260  13.149 -0.6742 -0.0645 -0.2459
48105OCT     C296210  10.458  11.987  13.300  0.3919  0.0893  0.2148
48106OCT     C196211  13.666  11.765   1.899 -0.1409  0.1840 -0.2758
48106OCT     C296212  14.070  11.941   1.834 -0.1920  0.2029  0.1226
48107OCT     C196213   5.012   7.298   9.321  0.1134  0.1814 -0.1275
48107OCT     C296214   4.818   7.336   8.886  0.1383  0.1564 -0.2929
48108OCT     C196215   9.207   7.064  12.836  0.1280 -0.0539 -0.0686
48108OCT     C296216   9.286   7.510  12.639 -0.1666  0.1819 -0.0045
48109OCT     C196217  16.119   3.966   9.532  0.3219 -0.1599  0.0061
48109OCT     C296218  16.008   4.310   9.207 -0.0679 -0.3915  0.3704
48110OCT     C196219  12.989   8.729   8.944 -0.0005  0.0835 -0.0074
48110OCT     C296220  13.114   8.931   9.357  0.1790  0.0143  0.0996
48111OCT     C196221   2.873  16.226  19.772 -0.4127  0.0390  0.1618
48111OCT     C296222   3.224  16.095  20.015 -0.1566  0.0498  0.5022
48112OCT     C196223   0.723  20.771   8.710 -0.3437  0.1750  0.1202
48112OCT     C296224   0.841  20.808   8.270 -0.2276 -0.4053  0.4275
48113OCT     C196225   1.031  17.615   5.951 -0.2815  0.2015 -0.2347
48113OCT     C296226   0.903  17.301   6.312  0.0478  0.2339  0.1287
48114OCT     C196227  22.739   5.784  20.819  0.2477  0.1941  0.2965
48114OCT     C296228  22.840   5.343  20.782  0.0403  0.0486 -0.1904
48115OCT     C196229   8.003  17.807  14.070  0.2059  0.0826  0.0260
48115OCT     C296230   7.977  17.996  13.626 -0.3312  0.1098  0.1217
48116OCT     C196231   8.182  16.409  13.957  0.0682  0.1149 -0.1407
48116OCT     C296232   8.612  16.418  13.843  0.1034 -0.1847  0.0161
48117OCT     C196233  19.178  13.122  15.430 -0.0166 -0.0511  0.0042
48117OCT     C296234  19.512  12.914  15.216 -0.0571 -0.2454 -0.1496
48118OCT     C196235  14.830   3.094   6.832 -0.0683 -0.2538 -0.0029
48118OCT     C296236  15.078   2.951   7.173 -0.1639 -0.1639 -0.0081
48119OCT     C196237  15.135  15.663   3.403  0.3249  0.0357  0.1395
48119OCT     C296238  15.471  15.402   3.579 -0.2425  0.1203 -0.1263
48120OCT     C196239  18.836  20.812  16.765 -0.3065 -0.0620 -0.1293
48120OCT     C296240  18.798  20.560  17.064  0.0195  0.0759  0.1688
48121OCT     C196241   0.997   4.428   5.661  0.1858 -0.1443  0.2306
48121OCT     C296242   1.337   4.714   5.593  0.1533  0.0640  0.3054
48122OCT     C196243   7.745   9.368   9.866 -0.1045 -0.0044 -0.3785
48122OCT     C296244   7.553   9.204   9.455 -0.0278  0.5241  0.0548
48123OCT     C196245  16.382  15.610   5.714  0.0779  0.0971 -0.2505
48123OCT     C296246  15.917  15.609   5.609  0.0951  0.1173  0.1924
48124OCT     C196247  20.243  17.123   8.212 -0.2577 -0.0142  0.0367
48124OCT     C296248  20.629  16.959   7.919  0.0695  0.0690 -0.2681
48125OCT     C196249   8.744   2.911   9.959  0.1179 -0.0729  0.1525
48125OCT     C296250   8.282   2.893  10.075  0.0835 -0.1371  0.0914
48126OCT     C196251  19.983  13.537  23.139 -0.2563  0.1356  0.1258
48126OCT     C296252  20.054  13.727  22.747 -0.0982 -0.1404  0.1458
48127OCT     C196253   7.644   2.296   4.344  0.0694  0.3293 -0.1730
48127OCT     C296254   7.628   1.925   4.602 -0.1935  0.1229  0.1231
48128OCT     C196255  20.413   6.732  20.630 -0.1031 -0.1595  0.0055
48128OCT     C296256  20.138   7.051  20.495 -0.3760 -0.1572  0.0049
48129OCT     C196257   7.091   0.173  14.207 -0.0678  0.3298  0.2310
48129OCT     C296258   7.378  23.654  14.440 -0.0562 -0.0265  0.1588
48130OCT     C196259  20.970  12.341   8.120  0.0203  0.0818 -0.0008
48130OCT     C296260  21.276  12.375   8.475 -0.3189 -0.1041 -0.3140
48131OCT     C196261  19.142  13.590  20.457  0.1796 -0.3674  0.1559
48131OCT     C296262  19.141  13.343  20.045  0.2222 -0.0080  0.1791
48132OCT     C196263  23.119   8.329  16.930 -0.4268 -0.0089 -0.0381
48132OCT     C296264  22.807   8.282  17.258 -0.0960 -0.1930  0.0895
48133OCT     C196265   1.746   0.975  22.244 -0.0499  0.0505  0.0482
48133OCT     C296266   2.156   1.180  22.348 -0.2715 -0.0459  0.0579
48134OCT     C196267   6.393  17.475  13.097  0.2079 -0.0215  0.1786
48134OCT     C296268   6.574  17.855  12.830  0.3211  0.1624  0.3207
48135OCT     C196269  21.463   8.240  23.100  0.0087  0.2655  0.1285
48135OCT     C296270  21.591   7.813  23.007  0.1996 -0.2519 -0.1126
48136OCT     C196271  20.112   3.459   5.180 -0.0420  0.0088 -0.0784
48136OCT     C296272  20.440   3.770   5.141  0.0198  0.0809  0.1005
48137OCT     C196273  21.961  13.464  22.328  0.2079  0.0257  0.2338
48137OCT     C296274  21.701  13.773  22.471 -0.2616 -0.0788 -0.1948
48138OCT     C196275  22.395  17.058  16.509 -0.2825  0.1229 -0.1621
48138OCT     C296276  22.274  16.728  16.808  0.1436  0.1241 -0.4053
48139OCT     C196277  15.649   6.172  16.082 -0.1077  0.4618 -0.2840
48139OCT     C296278  15.898   5.866  16.303  0.1748 -0.1094 -0.1496
48140OCT     C196279  20.925   0.922  10.224  0.3227  0.1104 -0.1549
48140OCT     C296280  21.287   1.160  10.102  0.1569  0.2361  0.1531
48141OCT     C196281   0.482  21.930   9.650 -0.1480  0.1102  0.4365
48141OCT     C296282   0.169  22.242   9.422  0.0318 -0.1048  0.2046
48142OCT     C196283  13.699  13.109   4.264 -0.1201 -0.1233  0.1628
48142OCT     C296284  13.926  13.160   4.686 -0.1270 -0.0983 -0.0756
48143OCT     C196285   9.221  15.074  14.361  0.1061  0.2845 -0.2647
48143OCT     C296286   8.993  15.397  14.137 -0.0331  0.1347 -0.2827
48144OCT     C196287  16.715  22.478  16.791  0.1328  0.0634  0.0844
48144OCT     C296288  17.034  22.874  16.798  0.0387  0.0294  0.0114
48145OCT     C196289  14.311   5.706   0.230  0.1114 -0.1251  0.2042
48145OCT     C296290  14.103   6.009   0.539 -0.1955 -0.2102  0.0143
48146OCT     C196291   2.440  17.328  23.154  0.0520 -0.5227 -0.2031
48146OCT     C296292   2.095  17.191  23.458  0.2262  0.0455 -0.1611
48147OCT     C196293  22.959  14.858   1.773 -0.2603 -0.0481 -0.1308
48147OCT     C296294  23.388  14.632   1.756  0.3004 -0.1736 -0.0710
48148OCT     C196295  22.887   0.479  18.469  0.2778  0.2393 -0.3158
48148OCT     C296296  22.559   0.788  18.638  0.0474  0.2219 -0.0671
48149OCT     C196297   9.706  17.581  12.084  0.1770  0.0989  0.1898
48149OCT     C296298  10.096  17.359  11.954 -0.1278 -0.2491 -0.1478
48150OCT     C196299   6.744   5.388  14.386 -0.1267 -0.0885  0.1243
48150OCT     C296300   6.358   5.203  14.547  0.0276 -0.0535  0.0355
48151OCT     C196301   0.341   3.295  21.705 -0.2042 -0.4976  0.5649
48151OCT     C296302   0.124   3.666  21.487  0.1435  0.2129  0.1442
48152OCT     C196303  11.636  18.572   4.096 -0.2652  0.2784 -0.0693
48152OCT     C296304  11.775  18.411   4.499  0.0318 -0.2297 -0.1750
48153OCT     C196305   6.829  13.075  20.657 -0.0004 -0.1851  0.3349
48153OCT     C296306   6.543  12.952  20.349  0.0184  0.0024 -0.1583
48154OCT     C196307  11.696  18.581  19.476 -0.2707  0.0828 -0.3686
48154OCT     C296308  11.452  18.309  19.832 -0.1350  0.4506  0.0248
48155OCT     C196309  19.666  10.176  12.808 -0.1837 -0.3963  0.2353
48155OCT     C296310  19.590  10.686  12.780 -0.0119 -0.2100 -0.0021
48156OCT     C196311   7.384  14.330  18.589 -0.0473  0.0232 -0.1350
48156OCT     C296312   7.043  14.537  18.811  0.1264 -0.0044 -0.4402
48157OCT     C196313  23.475   7.950   7.384  0.0001 -0.1357  0.0546
48157OCT     C296314  23.049   8.126   7.491 -0.3424 -0.3139  0.2222
48158OCT     C196315  13.610  19.591  12.784  0.2965  0.1635 -0.2004
48158OCT     C296316  13.858  19.468  12.379 -0.1850 -0.0330 -0.0721
48159OCT     C196317   8.751  23.258  19.372  0.0797  0.1719  0.0533
48159OCT     C296318   8.891  23.188  19.811  0.3969  0.1493 -0.0767
48160OCT     C196319   6.591  20.547   3.518 -0.2288  0.1557 -0.3534
48160OCT     C296320   6.160  20.461   3.600 -0.1502 -0.1762 -0.0539
48161OCT     C196321   8.592   8.469  14.253 -0.2294 -0.3152 -0.2626
48161OCT     C296322   8.409   8.322  14.661 -0.0242 -0.0708  0.3347
48162OCT     C196323   9.152  15.334   4.029 -0.1578 -0.1089 -0.1867
48162OCT     C296324   9.157  15.611   3.677  0.0366 -0.0786  0.0930
48163OCT     C196325   7.195   5.506   3.517 -0.0165  0.1193  0.1181
48163OCT     C296326   7.276   5.891   3.344  0.0950  0.2027  0.0385
48164OCT     C196327   4.998   1.739   9.572  0.2383 -0.5779  0.2107
48164OCT     C296328   4.870   1.848   9.150  0.2465  0.3575  0.2746
48165OCT     C196329  17.174   8.196   9.822  0.1474  0.0649  0.3122
48165OCT     C296330  16.775   7.968   9.964 -0.3052 -0.0726  0.0484
48166OCT     C196331  15.918  13.826   1.171  0.1808  0.0195  0.2200
48166OCT     C296332  16.286  14.108   0.998 -0.0575  0.1727  0.2666
48167OCT     C196333  18.171  19.354   7.171 -0.0244  0.0016  0.1518
48167OCT     C296334  18.264  19.718   7.427 -0.0376 -0.3115 -0.1093
48168OCT     C196335  12.956  13.979   9.192 -0.1237  0.1226  0.4769
48168OCT     C296336  13.094  14.004   9.585 -0.0473  0.0807 -0.0842
48169OCT     C196337  13.860   0.343  16.809  0.1164 -0.1844  0.0208
48169OCT     C296338  13.489   0.197  16.973  0.0562 -0.0781  0.0688
48170OCT     C196339   3.382  18.847  22.879 -0.0337  0.1990  0.1452
48170OCT     C296340   3.282  19.263  22.769  0.0362  0.2477  0.3402
48171OCT     C196341  13.758   2.763  19.602  0.3038  0.0226 -0.0846
48171OCT     C296342  13.371   2.908  19.307  0.2149  0.0989 -0.1256
48172OCT     C196343  13.306   4.680  13.622  0.0562 -0.2190  0.0687
48172OCT     C296344  12.938   4.401  13.480  0.1104  0.0596 -0.5968
48173OCT     C196345   7.872  11.560   5.222 -0.0781  0.2586  0.1296
48173OCT     C296346   7.713  11.954   5.039 -0.3315  0.1665  0.0677
48174OCT     C196347  11.773  17.718   4.416  0.0131 -0.5299 -0.1360
48174OCT     C296348  11.910  17.276   4.395 -0.4221 -0.0690  0.1322
48175OCT     C196349   3.135  20.633  13.085  0.1836 -0.2346  0.2802
48175OCT     C296350   3.220  20.249  13.378 -0.0358 -0.2548  0.0611
48176OCT     C196351   1.094  22.575   4.826  0.1515  0.1825 -0.0576
48176OCT     C296352   1.262  22.810   4.448 -0.0508 -0.1755 -0.2962
48177OCT     C196353  22.790  16.017  12.360 -0.0064  0.0020  0.5081
48177OCT     C296354  22.359  15.956  12.391  0.1852 -0.0948 -0.2083
48178OCT     C196355   6.131   4.700  22.589 -0.0084 -0.0082 -0.1534
48178OCT     C296356   5.942   4.330  22.866  0.1378  0.1373 -0.1045
48179OCT     C196357  14.768  17.959  19.167  0.1688  0.2383  0.0732
48179OCT     C296358  14.726  18.343  19.396  0.0733  0.1333 -0.1156
48180OCT     C196359   0.324   0.424  19.757  0.2636  0.0413 -0.0708
48180OCT     C296360   0.694   0.149  19.602  0.0469  0.1326 -0.0092
48181OCT     C196361  13.235   5.704  12.636  0.0357 -0.1484 -0.4555
48181OCT     C296362  12.904   5.486  12.940  0.0270 -0.3033 -0.2148
48182OCT     C196363   9.692  20.586   0.219  0.3316 -0.0857  0.0521
48182OCT     C296364   9.597  20.794  23.521  0.1811  0.0051 -0.0967
48183OCT     C196365  18.012  20.887  15.474 -0.2674 -0.0250 -0.1451
48183OCT     C296366  17.706  20.543  15.365  0.2015 -0.2837 -0.2699
48184OCT     C196367   6.383  21.911  15.866  0.0243 -0.0980 -0.1417
48184OCT     C296368   6.717  22.216  15.891 -0.1477  0.3633  0.0683
48185OCT     C196369   2.692   2.631  23.572  0.0287 -0.1998  0.2126
48185OCT     C296370   2.694   2.704   0.236  0.0237  0.0069  0.0965
48186OCT     C196371   7.539  14.882  12.904  0.1584 -0.0906 -0.3390
48186OCT     C296372   7.955  15.034  13.116 -0.3423 -0.0833  0.1057
48187OCT     C196373  11.161  19.306   4.624 -0.0065 -0.4931 -0.0711
48187OCT     C296374  11.327  19.760   4.790  0.2458  0.5369  0.2342
48188OCT     C196375  10.677  20.425  18.545 -0.0470 -0.3460  0.0191
48188OCT     C296376  10.156  20.330  18.609 -0.0070  0.2020 -0.1044
48189OCT     C196377   6.501   0.303   2.776 -0.2577  0.3826  0.0353
48189OCT     C296378   6.504   0.059   2.361 -0.0196  0.2535  0.0308
48190OCT     C196379  20.881  11.021  10.631 -0.2525  0.3836 -0.1954
48190OCT     C296380  20.580  10.741  10.371  0.0254 -0.1127  0.0547
48191OCT     C196381  20.130  11.045   5.649  0.0264 -0.1583  0.2218
48191OCT     C296382  20.318  10.981   5.245 -0.1613  0.1470  0.0229
48192OCT     C196383   6.539   4.266   7.390 -0.0341  0.0865 -0.2567
48192OCT     C296384   6.357   4.497   6.992  0.2248 -0.3136 -0.0603
48193OCT     C196385  13.781  19.658  13.697 -0.2535  0.3533 -0.3412
48193OCT     C296386  13.559  19.577  14.095 -0.0208  0.1316 -0.0481
48194OCT     C196387  11.354  22.884  10.822  0.1933  0.2953  0.3599
48194OCT     C296388  11.570  22.639  11.147  0.2530  0.0574 -0.3702
48195OCT     C196389  12.385   5.082   8.305 -0.2439 -0.0499 -0.2047
48195OCT     C296390  12.247   5.132   7.869  0.5240  0.4812  0.3749
48196OCT     C196391  15.968   2.714  10.642  0.1584  0.1655 -0.0980
48196OCT     C296392  16.072   2.305  10.433  0.1445  0.0530 -0.0116
48197OCT     C196393  18.596  15.460  21.650  0.0634  0.1110  0.4744
48197OCT     C296394  18.417  15.802  21.348 -0.1242 -0.0095 -0.0266
48198OCT     C196395   7.988   3.070  23.139  0.2606  0.1831 -0.0953
48198OCT     C296396   7.692   2.979  22.812 -0.0458 -0.0058 -0.0503
48199OCT     C196397  12.452  12.223  18.935  0.2745 -0.2021 -0.4776
48199OCT     C296398  12.508  11.970  19.314  0.0593 -0.2929 -0.2051
48200OCT     C196399  19.848  13.888  18.468 -0.2433 -0.1301  0.0073
48200OCT     C296400  20.218  13.708  18.318 -0.1054 -0.0267  0.1658
48201OCT     C196401   9.009   9.806   2.259 -0.2892  0.2225 -0.0744
48201OCT     C296402   9.341   9.423   2.289 -0.1796  0.3905 -0.4138
48202OCT     C196403  17.712   4.005  17.972 -0.0994 -0.0693 -0.3627
48202OCT     C296404  17.276   3.987  17.807  0.0869  0.1071  0.2081
48203OCT     C196405  20.616  10.931  22.349 -0.1624  0.0903 -0.2385
48203OCT     C296406  20.628  10.559  22.589 -0.0925  0.0572  0.2058
48204OCT     C196407  22.155  22.074  13.491 -0.0182 -0.0124 -0.1806
48204OCT     C296408  21.949  22.504  13.550  0.2095  0.0250 -0.0220
48205OCT     C196409  22.510  17.053   8.967  0.1952 -0.1158 -0.0130
48205OCT     C296410  22.538  17.506   8.901 -0.3086 -0.2314  0.1266
48206OCT     C196411  17.559   4.089  14.962  0.2466  0.2589  0.0597
48206OCT     C296412  17.541   3.629  15.190 -0.0814 -0.2145  0.0253
48207OCT     C196413   1.034   9.858   7.373 -0.2888 -0.3533  0.3264
48207OCT     C296414   0.732  10.148   7.697  0.0619  0.1775  0.1885
48208OCT     C196415  13.002   1.185  12.830 -0.0889 -0.2517 -0.1037
48208OCT     C296416  13.255   1.165  12.435  0.2523  0.1734  0.1660
48209OCT     C196417  20.933  20.000  22.554  0.2310  0.0535  0.1686
48209OCT     C296418  21.103  20.126  22.975  0.2600 -0.0663 -0.2923
48210OCT     C196419   9.649  15.528  22.897  0.3683 -0.0907 -0.2719
48210OCT     C296420   9.994  15.805  22.910  0.4756 -0.1195  0.3744
48211OCT     C196421  16.943   1.237  16.297 -0.5044 -0.4023 -0.1451
48211OCT     C296422  16.995   1.550  15.973  0.1003  0.1525 -0.0420
48212OCT     C196423   4.399  15.827  17.690  0.0195  0.0729 -0.1003
48212OCT     C296424   4.109  15.718  18.110 -0.1486 -0.1223  0.0421
48213OCT     C196425  21.729  16.948   9.123 -0.3232  0.1267 -0.0293
48213OCT     C296426  21.357  16.805   8.936  0.0870 -0.3305 -0.1503
48214OCT     C196427   0.931  19.337  19.666 -0.1478  0.3123  0.1936
48214OCT     C296428   1.092  19.710  19.357 -0.0618  0.0007 -0.1350
48215OCT     C196429  21.318   5.177   8.314  0.1381 -0.1403  0.0342
48215OCT     C296430  21.515   4.725   8.372 -0.4613 -0.1145  0.1548
48216OCT     C196431  10.860   1.391   9.203 -0.0589 -0.0241 -0.3324
48216OCT     C296432  11.178   1.163   9.016 -0.1337  0.0190  0.2140
48217OCT     C196433  23.038  18.979  14.720  0.0905  0.0311 -0.1534
48217OCT     C296434  23.135  18.715  14.345 -0.0238  0.0424  0.2863
48218OCT     C196435  11.273  16.236   4.913 -0.0474 -0.2768  0.4961
48218OCT     C296436  11.448  16.552   4.583 -0.3308  0.1046  0.1009
48219OCT     C196437   9.411  22.308  21.255 -0.2313 -0.1025  0.0819
48219OCT     C296438   9.008  22.598  21.282  0.2150  0.4241 -0.1517
48220OCT     C196439   0.709  10.119   3.784 -0.1216  0.2324 -0.1363
48220OCT     C296440   0.443  10.457   4.035 -0.2167  0.3801 -0.0807
48221OCT     C196441   5.405  10.837  20.394 -0.0651  0.2241 -0.1426
48221OCT     C296442   5.738  10.595  20.665 -0.1896  0.1856 -0.3881
48222OCT     C196443  11.537  17.130  16.324 -0.0702  0.2963 -0.0008
48222OCT     C296444  11.534  17.580  16.448  0.0034  0.0077 -0.0423
48223OCT     C196445  21.784  16.539  22.736  0.1720 -0.1795 -0.0114
48223OCT     C296446  21.506  16.578  23.056  0.4454 -0.1881  0.0021
48224OCT     C196447  20.852   5.316   7.986  0.0961  0.1554  0.0771
48224OCT     C296448  20.390   5.350   8.076  0.0046  0.1170  0.4257
48225OCT     C196449   3.314  22.400  17.160  0.3146  0.0514  0.0063
48225OCT     C296450   2.891  22.476  17.440 -0.2141 -0.1114 -0.0751
48226OCT     C196451   7.949   7.631   2.271 -0.1631 -0.4184  0.1511
48226OCT     C296452   7.532   7.422   2.367 -0.1327  0.0038  0.0548
48227OCT     C196453  16.212   2.639   2.558 -0.2535  0.3487  0.0076
48227OCT     C296454  16.008   2.887   2.866 -0.0542  0.0097  0.0774
48228OCT     C196455   1.765   9.298   3.160 -0.2676  0.1766 -0.2048
48228OCT     C296456   1.702   9.716   3.370 -0.0050 -0.3474  0.3506
48229OCT     C196457  20.721   9.591  11.250 -0.0457 -0.1270 -0.2173
48229OCT     C296458  21.033   9.616  11.617  0.1002  0.2082  0.1860
48230OCT     C196459   4.210   2.057   7.624 -0.2056 -0.1106 -0.2285
48230OCT     C296460   4.579   2.260   7.413 -0.0476 -0.2948  0.2369
48231OCT     C196461   9.767   7.333   5.784 -0.3747 -0.0556 -0.1569
48231OCT     C296462   9.885   7.696   6.098 -0.2447  0.1381  0.1637
48232OCT     C196463  14.477   3.467   8.889 -0.3437  0.4355  0.4093
48232OCT     C296464  14.845   3.718   8.708 -0.0570  0.1475  0.1734
48233OCT     C196465  10.323  11.232  20.150 -0.0169  0.4774 -0.1102
48233OCT     C296466  10.264  10.824  19.879 -0.1710 -0.1420  0.0748
48234OCT     C196467  15.264   0.059  21.793  0.1954 -0.5345 -0.1183
48234OCT     C296468  15.474   0.232  21.453 -0.1307  0.1103  0.2876
48235OCT     C196469   8.293  10.293  20.107  0.3146  0.1901 -0.3504
48235OCT     C296470   8.568   9.999  19.813  0.1056 -0.0786 -0.0609
48236OCT     C196471  11.671  14.836   8.148  0.0308 -0.6249  0.0275
48236OCT     C296472  11.707  14.636   7.711 -0.2999  0.0194  0.3212
48237OCT     C196473  10.018   6.587  13.847 -0.1329 -0.2877 -0.0548
48237OCT     C296474  10.035   6.579  14.307 -0.3258 -0.0530  0.0572
48238OCT     C196475  23.034  16.222   9.740  0.1055 -0.3369  0.5379
48238OCT     C296476  22.709  16.531   9.934  0.1133 -0.1233  0.0228
48239OCT     C196477  11.015   0.441  16.175 -0.1049  0.2351  0.1414
48239OCT     C296478  10.927  23.720  16.065  0.0821 -0.2355 -0.5156
48240OCT     C196479  20.091   2.709   8.033 -0.0918  0.1364  0.0189
48240OCT     C296480  19.904   3.069   7.773  0.2118  0.3425 -0.1635
48241OCT     C196481  19.912   7.537   6.559 -0.2856 -0.0100 -0.4105
48241OCT     C296482  19.836   7.179   6.306  0.2989 -0.1546  0.1042
48242OCT     C196483   9.269   2.049  11.281  0.0436 -0.1008 -0.1283
48242OCT     C296484   9.688   1.854  11.315 -0.0668  0.2243 -0.2414
48243OCT     C196485  15.610   9.979  13.577 -0.1932  0.0862  0.0558
48243OCT     C296486  15.543   9.973  14.061  0.1972 -0.3966  0.1684
48244OCT     C196487   9.822  21.400  18.249 -0.2154  0.1816  0.0177
48244OCT     C296488  10.182  21.684  18.249 -0.0625  0.0076  0.1038
48245OCT     C196489  13.228  21.881  15.119  0.1341  0.3691 -0.0357
48245OCT     C296490  13.391  22.167  14.794 -0.0842 -0.0366  0.1137
48246OCT     C196491  12.380  12.601  11.492 -0.0120 -0.1931  0.0249
48246OCT     C296492  12.706  12.819  11.189  0.3047 -0.1485 -0.1472
48247OCT     C196493   0.281   2.419  13.614 -0.2926  0.1010  0.5054
48247OCT     C296494   0.009   2.739  13.453 -0.1822  0.0656  0.1667
48248OCT     C196495   2.460  13.362  16.336 -0.1911  0.2060 -0.1689
48248OCT     C296496   2.568  13.824  16.351 -0.1399 -0.1427  0.2833
48249OCT     C196497   2.629  21.879   5.218  0.2779 -0.0184 -0.3928
48249OCT     C296498   2.476  21.511   4.965 -0.0509  0.1821 -0.0603
48250OCT     C196499  23.135  17.410  17.825  0.3193  0.0320  0.0309
48250OCT     C296500  22.988  17.157  18.262 -0.1004 -0.1386 -0.0205
48251OCT     C196501  20.943  13.650  14.227 -0.4058  0.0356  0.1196
48251OCT     C296502  20.633  13.612  14.584  0.1329 -0.0440 -0.1830
48252OCT     C196503  14.091   2.430   5.161 -0.3519 -0.2506 -0.2309
48252OCT     C296504  14.439   2.609   5.501 -0.2355  0.1188  0.2359
48253OCT     C196505   2.952  10.748   4.141 -0.1491 -0.1359  0.0994
48253OCT     C296506   2.800  10.306   4.356 -0.4298 -0.1466 -0.0202
48254OCT     C196507  11.483   9.952  19.692  0.0821  0.3276  0.5209
48254OCT     C296508  11.122   9.647  19.717 -0.0516  0.0741  0.0742
48255OCT     C196509  16.024   1.144  14.499  0.2960  0.2829  0.1148
48255OCT     C296510  15.960   1.606  14.417  0.1354 -0.0807  0.0097
48256OCT     C196511  14.618  15.911  10.978 -0.0633 -0.1917 -0.2453
48256OCT     C296512  15.043  15.998  10.788 -0.1982 -0.0160  0.4383
48257OCT     C196513   4.758  17.334   7.515  0.1148 -0.0983 -0.1128
48257OCT     C296514   4.787  17.161   7.069 -0.0609 -0.0077 -0.0051
48258OCT     C196515   8.612   3.979   4.288 -0.1254  0.0227 -0.0220
48258OCT     C296516   8.275   4.290   4.175  0.2922 -0.2409 -0.3658
48259OCT     C196517   2.004  18.961  10.226 -0.1745  0.3010  0.4388
48259OCT     C296518   2.178  18.774   9.841 -0.1186 -0.1998  0.0832
48260OCT     C196519  17.650  12.310   8.641  0.1246 -0.0376 -0.1983
48260OCT     C296520  18.103  12.363   8.684 -0.2970  0.5198 -0.1994
48261OCT     C196521  16.573   4.781   5.156 -0.2255  0.1452 -0.2583
48261OCT     C296522  16.934   4.549   4.980  0.0490 -0.1908  0.3538
48262OCT     C196523   6.170   6.075   6.480  0.0974 -0.1761  0.3013
48262OCT     C296524   6.036   5.953   6.929  0.0881  0.2840  0.1716
48263OCT     C196525  19.291  11.172   9.374 -0.3781 -0.0222  0.1286
48263OCT     C296526  19.028  11.461   9.089 -0.0248  0.2110  0.1066
48264OCT     C196527   6.514   5.112   0.098 -0.1377  0.1923  0.3896
48264OCT     C296528   6.578   4.644   0.049 -0.3640  0.2908  0.4930
48265OCT     C196529  20.228  21.631   7.208  0.1807  0.0710  0.1614
48265OCT     C296530  19.847  21.818   7.369  0.1621 -0.0462 -0.1415
48266OCT     C196531  21.660  14.669  19.491 -0.2342 -0.1129 -0.0610
48266OCT     C296532  21.558  14.216  19.449 -0.1927  0.0825 -0.0978
48267OCT     C196533  10.959  13.808  10.684  0.0831  0.2263  0.3037
48267OCT     C296534  11.119  14.157  10.525  0.2812  0.0104 -0.0663
48268OCT     C196535  16.118  19.917   9.172 -0.0100 -0.0793 -0.2405
48268OCT     C296536  16.515  20.152   9.148 -0.0507 -0.1552 -0.0840
48269OCT     C196537  15.834  10.627  11.049 -0.0680 -0.1644 -0.0274
48269OCT     C296538  15.510  10.886  10.963  0.0432  0.0708 -0.1848
48270OCT     C196539  16.968   7.765  14.665  0.0511 -0.1300 -0.1566
48270OCT     C296540  16.540   7.938  14.526 -0.1154 -0.1390  0.2551
48271OCT     C196541   5.454  17.031   2.154 -0.1425 -0.0122  0.1517
48271OCT     C296542   5.844  16.744   2.104 -0.1094  0.2781  0.1967
48272OCT     C196543  18.751  17.379   0.443 -0.0595 -0.1405  0.1197
48272OCT     C296544  18.889  17.687   0.139 -0.1802  0.0627 -0.3609
48273OCT     C196545   2.229   8.254  15.170 -0.1690 -0.1537 -0.0632
48273OCT     C296546   2.354   7.970  15.522  0.1407  0.0289 -0.3759
48274OCT     C196547  13.498   2.312   3.014  0.1627 -0.0517  0.3263
48274OCT     C296548  13.368   2.157   2.640 -0.0729  0.3800  0.0688
48275OCT     C196549  22.014  23.151  15.868 -0.0045  0.2760 -0.3171
48275OCT     C296550  22.443  23.174  15.776 -0.1647 -0.2054  0.1922
48276OCT     C196551   8.961   9.040  20.088  0.2924 -0.1823 -0.4625
48276OCT     C296552   8.655   8.948  19.714  0.1090  0.0637  0.2115
48277OCT     C196553  22.125   1.632   2.662  0.0818 -0.1240 -0.3639
48277OCT     C296554  22.407   1.853   3.005  0.1188 -0.0612 -0.0830
48278OCT     C196555  12.696  14.135  14.592 -0.0419  0.0052 -0.0673
48278OCT     C296556  12.881  13.687  14.554  0.2991  0.1920 -0.1323
48279OCT     C196557  13.788  14.482   2.619 -0.4141  0.3121  0.0059
48279OCT     C296558  13.794  14.778   2.292 -0.0884 -0.0563  0.0362
48280OCT     C196559  13.291   5.848   0.035  0.0202  0.1447  0.0223
48280OCT     C296560  13.545   5.563  23.500  0.1516  0.1424 -0.1583
48281OCT     C196561   0.136  21.947  12.183 -0.3693  0.1444  0.0505
48281OCT     C296562  23.651  21.984  11.773  0.0349  0.1826 -0.3467
48282OCT     C196563   5.075  21.070   0.904 -0.0350  0.1242  0.0453
48282OCT     C296564   5.298  20.740   1.137  0.2063 -0.0821 -0.0176
48283OCT     C196565   3.871   7.074   4.110  0.0829 -0.0937  0.3182
48283OCT     C296566   4.301   7.070   4.334  0.0270 -0.1359 -0.0106
48284OCT     C196567  21.487  19.129   2.468  0.0177 -0.0896 -0.2020
48284OCT     C296568  21.407  19.512   2.191 -0.0843  0.2032 -0.5262
48285OCT     C196569  22.371  22.336  17.933  0.3409 -0.1037 -0.1117
48285OCT     C296570  22.205  21.965  18.181  0.1237 -0.0142 -0.0277
48286OCT     C196571  16.129   2.553  14.776 -0.0124  0.1492 -0.1903
48286OCT     C296572  16.534   2.534  14.618 -0.1320 -0.2475 -0.0986
48287OCT     C196573  18.043  13.165  22.987 -0.1327 -0.2682 -0.0712
48287OCT     C296574  17.942  12.829  22.661 -0.0726 -0.0633  0.2044
48288OCT     C196575  16.235  11.741   7.865  0.2721  0.1962  0.0546
48288OCT     C296576  16.260  11.801   8.297 -0.4058 -0.1391  0.0056
48289OCT     C196577   0.320  16.678  14.816 -0.2873  0.2280 -0.2308
48289OCT     C296578   0.388  16.848  14.381 -0.0879  0.0355 -0.0066
48290OCT     C196579  16.832   0.258   3.384  0.2359  0.1676 -0.0272
48290OCT     C296580  16.599  23.657   3.133  0.0981  0.2103  0.2172
48291OCT     C196581  13.024  19.494   0.455 -0.0183  0.3770 -0.1136
48291OCT     C296582  12.971  19.942   0.594 -0.0798  0.5567  0.3070
48292OCT     C196583  13.195  10.626  11.103 -0.4712  0.0361  0.3924
48292OCT     C296584  13.125  11.044  11.304  0.0025 -0.1795 -0.3127
48293OCT     C196585  16.178   0.103   5.861  0.1838 -0.2066 -0.2419
48293OCT     C296586  16.459   0.448   5.767 -0.1163 -0.1370 -0.0235
48294OCT     C196587  10.816  15.468  16.484 -0.2915  0.0551  0.3635
48294OCT     C296588  10.346  15.395  16.393  0.0864 -0.0613 -0.1231
48295OCT     C196589  17.712  11.790   0.121  0.1241 -0.2889  0.3608
48295OCT     C296590  17.980  11.768  23.518 -0.2914  0.0073  0.2422
48296OCT     C196591  16.047  14.655  21.549 -0.4905  0.0792  0.1436
48296OCT     C296592  15.851  14.540  21.120  0.2421 -0.0512 -0.2689
48297OCT     C196593  16.495  14.086   0.139  0.0446  0.3019 -0.0749
48297OCT     C296594  16.595  13.645   0.318 -0.4567 -0.0007 -0.2371
48298OCT     C196595   2.426  22.860  22.424  0.1919 -0.3230  0.3646
48298OCT     C296596   2.893  22.713  22.473 -0.2249 -0.0408 -0.0298
48299OCT     C196597   6.618  11.278  17.589 -0.2083  0.2766 -0.1078
48299OCT     C296598   6.452  11.700  17.553 -0.0126 -0.0147 -0.1673
48300OCT     C196599   8.664  19.634  22.010  0.1302  0.0643  0.0381
48300OCT     C296600   8.589  19.642  22.500 -0.0160 -0.2585  0.2458
48301OCT     C196601   3.704  10.958  13.601 -0.0479  0.2337  0.1130
48301OCT     C296602   3.449  11.113  13.274  0.0963 -0.0948 -0.0148
48302OCT     C196603   4.660  19.270  13.740 -0.3713 -0.1014  0.0418
48302OCT     C296604   4.437  19.652  13.779  0.1029 -0.4271  0.0565
48303OCT     C196605  20.404  21.913   1.245 -0.1200  0.2541 -0.0108
48303OCT     C296606  20.592  22.208   0.951  0.2733  0.0164 -0.0281
48304OCT     C196607   7.175   4.874  20.330  0.1755 -0.0373  0.1970
48304OCT     C296608   7.339   4.801  20.785  0.0730  0.0916 -0.3157
48305OCT     C196609   1.217   9.578   9.247 -0.1474 -0.4408 -0.1417
48305OCT     C296610   0.803   9.812   9.413  0.2110  0.2285 -0.3176
48306OCT     C196611  15.497  15.933   3.636 -0.4520  0.0982 -0.1518
48306OCT     C296612  15.847  16.169   3.839 -0.3188 -0.0280  0.5991
48307OCT     C196613  13.719   0.831   9.932  0.1074  0.3980 -0.0654
48307OCT     C296614  14.027   1.015  10.193  0.1248  0.2426  0.1211
48308OCT     C196615   4.463   0.465   1.202  0.0757 -0.2687 -0.0961
48308OCT     C296616   4.232   0.521   0.777 -0.0196 -0.2779  0.1650
48309OCT     C196617  15.294   6.909   9.410 -0.0187 -0.0554 -0.1128
48309OCT     C296618  15.356   7.205   9.693  0.1281 -0.0089  0.0583
48310OCT     C196619   4.161  22.642   3.794  0.1579 -0.1146 -0.2103
48310OCT     C296620   3.778  22.856   3.962 -0.2870  0.0275  0.2242
48311OCT     C196621   0.159  11.216  12.636  0.4355  0.0113 -0.2763
48311OCT     C296622   0.236  11.546  12.975  0.0092  0.1639  0.4669
48312OCT     C196623   7.170   1.718  13.940  0.0342 -0.0056  0.2456
48312OCT     C296624   7.584   1.528  13.808  0.1498 -0.1505  0.3133
48313OCT     C196625   0.695   9.954  23.351  0.5206  0.0492 -0.0164
48313OCT     C296626   1.044  10.255  23.400 -0.0468  0.1076  0.1201
48314OCT     C196627   6.934   9.807  14.680  0.2795  0.1910  0.0246
48314OCT     C296628   6.524   9.742  14.708  0.1556 -0.0944 -0.4376
48315OCT     C196629  18.776  12.279  21.171  0.1536  0.1822  0.0510
48315OCT     C296630  19.127  11.959  21.026  0.0356 -0.0367  0.2133
48316OCT     C196631  10.326  20.296  10.260 -0.0723  0.1022  0.1244
48316OCT     C296632  10.719  20.523  10.073  0.1779  0.0803  0.2214
48317OCT     C196633  12.247  12.159  13.611 -0.2558  0.0436 -0.1722
48317OCT     C296634  12.164  12.351  13.210 -0.0246 -0.2413 -0.1989
48318OCT     C196635  22.576  15.012  16.304 -0.0499 -0.2662 -0.0233
48318OCT     C296636  22.384  14.675  16.569 -0.0038  0.3152  0.6077
48319OCT     C196637   4.224  21.204  10.569 -0.2525  0.0874 -0.0959
48319OCT     C296638   4.026  21.135  10.241 -0.1560  0.0424  0.0547
48320OCT     C196639  16.286  11.360  13.570 -0.3000 -0.1113  0.2774
48320OCT     C296640  15.941  11.081  13.428  0.0668  0.2114 -0.0899
48321OCT     C196641   7.766   0.875  10.049  0.0119 -0.2183  0.4437
48321OCT     C296642   7.712   0.441   9.914 -0.0984  0.2313  0.0505
48322OCT     C196643  17.096   6.508   2.625 -0.1108  0.4541 -0.3230
48322OCT     C296644  16.950   6.612   2.205 -0.0889 -0.0630  0.1917
48323OCT     C196645  20.549  14.551  11.317  0.3869  0.0982  0.0911
48323OCT     C296646  20.271  14.192  11.113  0.0461 -0.0642 -0.0659
48324OCT     C196647   9.533   3.910  21.847 -0.2583  0.1111  0.0490
48324OCT     C296648   9.171   4.060  21.585  0.0096 -0.0819  0.1144
48325OCT     C196649   4.430   9.807  18.722 -0.1619  0.1779  0.1991
48325OCT     C296650   4.583  10.220  18.927 -0.3994  0.0544  0.0439
48326OCT     C196651  14.410  16.334  14.310 -0.1137 -0.0705  0.0966
48326OCT     C296652  14.421  15.871  14.267  0.2804  0.1319 -0.0892
48327OCT     C196653  12.253  10.902  18.909  0.1350  0.2065 -0.0615
48327OCT     C296654  11.977  10.841  18.554  0.1226  0.0305  0.1044
48328OCT     C196655   4.428   6.706  23.721  0.2167 -0.0390  0.3006
48328OCT     C296656   4.795   6.979   0.117  0.0986  0.1933 -0.1597
48329OCT     C196657   9.529   5.206  10.370 -0.0369  0.1284 -0.0654
48329OCT     C296658   9.631   5.080   9.926 -0.1574 -0.1115 -0.2111
48330OCT     C196659  10.402  16.150  17.070  0.1719  0.0465  0.0696
48330OCT     C296660  10.843  16.227  17.086 -0.2576  0.0375  0.2599
48331OCT     C196661   8.613  18.662   9.302 -0.0921  0.0071  0.0603
48331OCT     C296662   8.522  18.284   8.996 -0.0912 -0.2215 -0.1572
48332OCT     C196663  22.685  14.976  20.952  0.0550  0.4000 -0.1668
48332OCT     C296664  22.570  14.563  21.131 -0.1964  0.0000  0.1359
48333OCT     C196665   8.097  12.684  14.972  0.0041 -0.0723 -0.1177
48333OCT     C296666   8.039  12.537  14.540  0.0107  0.0138 -0.0732
48334OCT     C196667   7.175  10.365   2.529  0.2421  0.0190 -0.1669
48334OCT     C296668   6.796  10.350   2.238  0.4152  0.0519 -0.0309
48335OCT     C196669  14.720   4.613  19.424 -0.1440  0.3605 -0.1200
48335OCT     C296670  15.148   4.540  19.653 -0.0044 -0.2557 -0.1496
48336OCT     C196671   6.385   4.132   8.253 -0.2804  0.1220 -0.0354
48336OCT     C296672   6.667   4.167   7.910 -0.0218 -0.1487 -0.1231
48337OCT     C196673  22.478  15.843   5.857 -0.0405  0.1319 -0.1006
48337OCT     C296674  22.646  15.954   6.240 -0.1044  0.1158 -0.1116
48338OCT     C196675  19.975   6.046   6.989 -0.1673 -0.0806  0.0564
48338OCT     C296676  20.419   5.965   6.827 -0.2778  0.0275  0.3177
48339OCT     C196677   7.400   0.342   7.256 -0.1947  0.0680 -0.2438
48339OCT     C296678   6.957   0.225   7.300 -0.3145 -0.0309  0.2994
48340OCT     C196679  20.351   0.241   5.331 -0.1298  0.3655 -0.5741
48340OCT     C296680  20.755   0.410   5.100  0.0290 -0.1090  0.1690
48341OCT     C196681   1.313   2.586   3.357  0.0811 -0.1558 -0.0400
48341OCT     C296682   1.197   2.261   3.640 -0.1558  0.4098 -0.0129
48342OCT     C196683  12.695  22.099   1.306  0.1346  0.2834  0.1233
48342OCT     C296684  12.687  22.496   1.585  0.2382  0.0271  0.1959
48343OCT     C196685  21.428   6.862  11.736  0.0768 -0.2089  0.0890
48343OCT     C296686  21.092   7.182  11.969 -0.1678 -0.0672 -0.2431
48344OCT     C196687  20.007   9.941  17.441 -0.2278 -0.2317  0.1037
48344OCT     C296688  19.814  10.329  17.314 -0.0583  0.2120 -0.1551
48345OCT     C196689  20.574  21.141  18.709  0.0058  0.0158 -0.0201
48345OCT     C296690  20.556  21.365  19.119  0.1150  0.0995  0.1168
48346OCT     C196691   1.485   8.498  11.125  0.3388 -0.0706 -0.1208
48346OCT     C296692   1.784   8.130  11.055  0.4634 -0.1439  0.0917
48347OCT     C196693  13.909   3.645   3.865  0.3204 -0.1319 -0.0046
48347OCT     C296694  14.330   3.681   4.004  0.1105  0.0049  0.0736
48348OCT     C196695  17.144   1.375   5.011 -0.0596 -0.3956 -0.0039
48348OCT     C296696  17.077   1.689   5.332  0.2582 -0.0283 -0.0707
48349OCT     C196697  16.587   4.428   8.363  0.1294 -0.2058  0.1839
48349OCT     C296698  16.728   4.704   8.050 -0.2728  0.1427 -0.1545
48350OCT     C196699  17.236   8.478  14.856  0.2978  0.1126  0.0002
48350OCT     C296700  17.520   8.287  14.487  0.0648  0.2333  0.0056
48351OCT     C196701   5.000  16.050  22.626 -0.1632  0.0513 -0.3429
48351OCT     C296702   5.019  15.565  22.783  0.3360  0.0719 -0.3233
48352OCT     C196703  10.600  15.054   3.756  0.0088 -0.1430  0.1473
48352OCT     C296704  10.250  14.763   3.812 -0.4142 -0.0541 -0.2428
48353OCT     C196705  11.171   6.860   4.921 -0.0972 -0.2728  0.2964
48353OCT     C296706  11.652   6.984   4.843  0.1116  0.1271 -0.3748
48354OCT     C196707  11.712  16.414  12.925 -0.0346 -0.3029  0.2706
48354OCT     C296708  11.755  16.894  12.885  0.0293  0.0860  0.1002
48355OCT     C196709  20.919   0.873  16.315  0.2313 -0.0806  0.5323
48355OCT     C296710  20.614   0.614  16.587 -0.1694 -0.2283  0.4169
48356OCT     C196711   2.964   5.345   1.541 -0.3292  0.1358 -0.1002
48356OCT     C296712   2.728   5.335   1.225 -0.2951 -0.3119  0.0354
48357OCT     C196713  17.004  13.631   9.711 -0.0858  0.2968  0.0010
48357OCT     C296714  17.124  14.088   9.595 -0.0929  0.0559 -0.1406
48358OCT     C196715  10.616   0.032  15.290  0.3013 -0.2353  0.1157
48358OCT     C296716  10.840  23.375  15.248 -0.3327  0.2164 -0.1997
48359OCT     C196717   7.303   0.230   8.734 -0.1355  0.2140 -0.0522
48359OCT     C296718   7.033   0.392   8.388  0.1230 -0.1316  0.1243
48360OCT     C196719  13.817   5.437   2.579 -0.3362 -0.1605 -0.3065
48360OCT     C296720  13.466   5.042   2.566 -0.1799  0.0769 -0.0626
48361OCT     C196721  13.528   4.541   6.792 -0.1139 -0.4301  0.0516
48361OCT     C296722  13.581   4.194   6.504  0.0092  0.0582 -0.4500
48362OCT     C196723   8.498  18.320   7.837  0.0573 -0.0915 -0.2989
48362OCT     C296724   8.813  18.352   7.473  0.0237 -0.1744 -0.1224
48363OCT     C196725  14.845   1.666  11.787  0.4084  0.0001 -0.1335
48363OCT     C296726  15.175   1.942  11.538  0.3228  0.2346  0.1512
48364OCT     C196727  17.879  19.364  18.776 -0.0628  0.0494 -0.1107
48364OCT     C296728  18.086  19.047  18.493  0.2408 -0.0035  0.0606
48365OCT     C196729  20.594  10.490   5.362  0.0422 -0.4194 -0.0098
48365OCT     C296730  20.114  10.476   5.309 -0.1682  0.2742  0.1956
48366OCT     C196731  19.384   9.841  13.012  0.1824 -0.3724  0.0499
48366OCT     C296732  19.375   9.606  13.380  0.0658  0.0814  0.0932
48367OCT     C196733  15.755   1.623   4.282  0.0350  0.0798  0.3320
48367OCT     C296734  15.949   1.501   3.879 -0.1721  0.0194  0.2452
48368OCT     C196735   0.102  22.414  22.617 -0.3466  0.0589 -0.1120
48368OCT     C296736  23.380  22.339  22.702  0.0598  0.0815  0.0938
48369OCT     C196737   8.056   0.548  21.315 -0.1640 -0.4137  0.0081
48369OCT     C296738   7.829   0.144  21.253  0.0427 -0.0485 -0.1407
48370OCT     C196739  14.457   5.519   4.424  0.2075 -0.1671  0.1078
48370OCT     C296740  14.698   5.377   4.048  0.3862 -0.1922  0.0508
48371OCT     C196741  20.011  11.978  11.129 -0.2360 -0.2577  0.3070
48371OCT     C296742  19.645  11.761  11.409  0.1504 -0.0809 -0.1623
48372OCT     C196743  12.367   2.437   0.960  0.1891  0.1323  0.0189
48372OCT     C296744  12.128   2.386   0.567  0.3026 -0.1663 -0.6177
48373OCT     C196745  16.723   2.503  16.168  0.0620 -0.0378  0.1613
48373OCT     C296746  16.342   2.507  15.949  0.0183 -0.3178 -0.1042
48374OCT     C196747  19.795  11.096  23.393  0.0951 -0.2406  0.0762
48374OCT     C296748  19.472  11.036   0.018 -0.1756 -0.0390  0.3275
48375OCT     C196749   3.643   5.591   7.441 -0.1565  0.1681 -0.1369
48375OCT     C296750   4.123   5.547   7.394 -0.0182  0.0132  0.1797
48376OCT     C196751  20.545   8.187   5.658  0.1115  0.1574  0.1058
48376OCT     C296752  20.769   8.557   5.792 -0.0877 -0.0617  0.0093
48377OCT     C196753   1.430   3.236   5.798  0.1169  0.1152 -0.0330
48377OCT     C296754   1.020   3.374   5.644  0.0718  0.5353 -0.1349
48378OCT     C196755  23.692  15.944   7.420  0.0324  0.1578 -0.2402
48378OCT     C296756   0.007  16.362   7.664  0.1683  0.2080 -0.0793
48379OCT     C196757  19.576  22.212   1.335  0.0636  0.2412 -0.2545
48379OCT     C296758  19.365  22.496   1.664  0.4840  0.0196  0.1256
48380OCT     C196759   3.390   8.130  19.846  0.2419  0.0250 -0.4438
48380OCT     C296760   3.018   8.399  19.896 -0.2259 -0.4542 -0.2980
48381OCT     C196761  15.154  11.130  14.418 -0.3664  0.1479 -0.3295
48381OCT     C296762  15.148  10.713  14.628  0.3060 -0.1646  0.2337
48382OCT     C196763   8.660  11.933   9.516  0.4132  0.3437 -0.4021
48382OCT     C296764   8.428  12.239   9.254 -0.3021 -0.0901 -0.2446
48383OCT     C196765   2.423  17.691  18.051 -0.1762  0.0383 -0.0393
48383OCT     C296766   2.832  17.890  18.149 -0.1704 -0.1013 -0.1523
48384OCT     C196767  13.874  15.369  15.935  0.2017  0.2046 -0.2450
48384OCT     C296768  13.773  15.001  16.222 -0.3228  0.1323  0.5532
48385OCT     C196769  22.807  15.712   0.309 -0.1938 -0.2500 -0.0133
48385OCT     C296770  22.592  15.947  23.701  0.1218  0.0826 -0.0856
48386OCT     C196771  18.833  21.059  17.204  0.2363 -0.2460  0.1480
48386OCT     C296772  18.866  21.348  16.807 -0.6015 -0.1446  0.0019
48387OCT     C196773  22.952  20.453   8.815  0.2606  0.0195  0.2844
48387OCT     C296774  22.582  20.273   8.586 -0.4209 -0.0265  0.0667
48388OCT     C196775  12.351  23.021  18.270 -0.0098 -0.2130  0.1117
48388OCT     C296776  12.079  22.739  18.496 -0.2142  0.2688 -0.0814
48389OCT     C196777   3.962  14.037  20.441  0.0941 -0.0675  0.1708
48389OCT     C296778   3.806  13.660  20.200  0.4597 -0.2257 -0.1560
48390OCT     C196779   6.789   9.551   2.768 -0.0304  0.0686  0.1385
48390OCT     C296780   7.046   9.208   2.937  0.0025 -0.3207 -0.0207
48391OCT     C196781  18.290  16.449  11.213  0.1229 -0.0233  0.0318
48391OCT     C296782  17.813  16.331  11.290  0.1716 -0.1555  0.1215
48392OCT     C196783  15.721  21.035   2.204 -0.4107 -0.3367 -0.0662
48392OCT     C296784  15.510  21.061   2.617  0.0300 -0.0249  0.1353
48393OCT     C196785  10.637  11.894   3.313 -0.1933 -0.1206  0.0296
48393OCT     C296786  10.497  11.536   3.509  0.4194  0.0116  0.0121
48394OCT     C196787  19.628  14.208   8.618  0.3371 -0.2748 -0.1333
48394OCT     C296788  19.296  13.949   8.370 -0.4837  0.0276 -0.3648
48395OCT     C196789  10.096  13.359   1.593 -0.1360  0.2234 -0.0276
48395OCT     C296790  10.371  13.020   1.627  0.0961  0.3109 -0.0342
48396OCT     C196791  19.604  15.562   5.705  0.3951 -0.0749 -0.0579
48396OCT     C296792  19.181  15.745   5.479  0.1778 -0.1062 -0.0971
48397OCT     C196793  18.122   7.738   7.351  0.0971  0.0629  0.0792
48397OCT     C296794  18.374   7.446   7.536  0.1569  0.1558 -0.5123
48398OCT     C196795   8.003  21.134  19.121  0.1918 -0.0897  0.3202
48398OCT     C296796   8.228  21.092  18.707  0.3276 -0.0051 -0.2119
48399OCT     C196797   6.865  21.874  19.785  0.3555 -0.0769 -0.0476
48399OCT     C296798   6.873  22.020  20.188  0.3124 -0.0056 -0.3342
48400OCT     C196799   0.434   2.173  21.106  0.0760 -0.2287  0.5129
48400OCT     C296800   0.248   2.606  20.975  0.3234 -0.0893 -0.0190
48401OCT     C196801   6.555  19.480  16.580  0.3012 -0.0853  0.2571
48401OCT     C296802   6.119  19.249  16.535 -0.0621  0.1346  0.0958
48402OCT     C196803   5.526  14.853  19.212  0.0273 -0.1010 -0.0489
48402OCT     C296804   5.609  14.392  19.330 -0.0779 -0.0665  0.3984
48403OCT     C196805   8.488  23.401  20.037 -0.1662 -0.2805 -0.1213
48403OCT     C296806   8.650  23.669  20.374  0.1448 -0.2428 -0.2863
48404OCT     C196807  17.353   4.853   5.728  0.1991  0.2633 -0.2136
48404OCT     C296808  16.984   5.008   5.939 -0.2315  0.3232 -0.1105
48405OCT     C196809  21.927  20.944  19.687 -0.0624 -0.0484 -0.1231
48405OCT     C296810  22.295  20.810  19.942  0.0974 -0.0797 -0.1340
48406OCT     C196811   1.832   1.577  18.351  0.1875 -0.4603 -0.0338
48406OCT     C296812   1.810   1.686  18.756 -0.0385  0.1316  0.0284
48407OCT     C196813   5.554   7.800   3.702  0.2861 -0.2919 -0.2207
48407OCT     C296814   5.927   7.742   3.912  0.1109  0.2170 -0.0010
48408OCT     C196815   2.319   2.996   3.167 -0.3126 -0.0082  0.0824
48408OCT     C296816   2.107   2.619   3.344 -0.4636  0.1985 -0.1047
48409OCT     C196817  10.804   6.980   0.404 -0.2028 -0.1589  0.0805
48409OCT     C296818  11.301   7.072   0.235  0.0976 -0.2151  0.2065
48410OCT     C196819  16.539  11.258   1.704  0.0431 -0.1009 -0.4253
48410OCT     C296820  16.177  11.398   1.464  0.0781 -0.0465 -0.0560
48411OCT     C196821  22.422   2.304  12.701  0.2094  0.2005  0.2155
48411OCT     C296822  22.664   2.532  12.431 -0.2041 -0.2726  0.1965
48412OCT     C196823  18.769  10.032   7.815  0.0613 -0.0046  0.1044
48412OCT     C296824  18.952   9.615   7.933  0.0248 -0.1566  0.2262
48413OCT     C196825  12.804  13.848  15.080 -0.3367 -0.0378  0.0059
48413OCT     C296826  12.865  13.406  15.224  0.2621  0.2057 -0.3456
48414OCT     C196827   8.044  11.717   1.114 -0.5045  0.5033 -0.4165
48414OCT     C296828   8.259  11.299   1.048  0.4504  0.2772  0.0574
48415OCT     C196829   8.069  18.550   7.715  0.0283 -0.1169 -0.2707
48415OCT     C296830   7.736  18.921   7.653 -0.0203 -0.2887 -0.0243
48416OCT     C196831  21.824   8.575   1.691  0.2187 -0.1878 -0.2291
48416OCT     C296832  21.349   8.534   1.812 -0.0166  0.0892 -0.3609
48417OCT     C196833  20.220  23.447   9.531 -0.5934  0.2507  0.0030
48417OCT     C296834  20.343  23.241   9.921  0.0891  0.1039  0.5242
48418OCT     C196835  21.433  22.022  17.866 -0.2277 -0.2488  0.0918
48418OCT     C296836  21.060  22.315  18.063 -0.1201  0.1925  0.0135
48419OCT     C196837   4.498   2.573   1.957 -0.3297  0.3916 -0.2168
48419OCT     C296838   4.131   2.702   2.104  0.0616  0.0643 -0.0777
48420OCT     C196839  10.553  11.557  18.257  0.0030  0.2580 -0.0675
48420OCT     C296840  10.170  11.334  18.137 -0.4244  0.1199 -0.0778
48421OCT     C196841  13.653  23.610  19.313 -0.3107 -0.0691  0.1229
48421OCT     C296842  13.275   0.066  19.034  0.0488 -0.1111  0.2142
48422OCT     C196843   5.963  18.138   3.879  0.0809 -0.0186 -0.0785
48422OCT     C296844   5.578  18.321   3.954  0.1804 -0.4851  0.2470
48423OCT     C196845   0.263  10.567  11.113  0.1419 -0.0652 -0.0391
48423OCT     C296846  23.554  10.414  11.108 -0.0449 -0.2157  0.0645
48424OCT     C196847   9.768  13.155   4.691  0.0316  0.4039 -0.0540
48424OCT     C296848  10.193  12.938   4.645  0.2592 -0.6847 -0.1774
48425OCT     C196849  20.584   3.730  21.518 -0.3430 -0.1047  0.2078
48425OCT     C296850  20.958   4.044  21.396 -0.0138  0.1649 -0.1386
48426OCT     C196851   9.870  22.610   6.647 -0.3887 -0.0065  0.3995
48426OCT     C296852   9.877  22.145   6.542  0.0130  0.1444  0.0495
48427OCT     C196853   6.005   2.071   4.937 -0.1077  0.2383 -0.0186
48427OCT     C296854   6.368   2.002   4.715 -0.2085  0.2470  0.0465
48428OCT     C196855  13.330  19.837   4.967 -0.5532 -0.3473 -0.1495
48428OCT     C296856  13.594  19.721   5.300  0.1237 -0.3787 -0.0141
48429OCT     C196857  14.514   8.246   3.629 -0.0327 -0.1814 -0.0054
48429OCT     C296858  14.524   8.590   3.310  0.1233 -0.1353 -0.0096
48430OCT     C196859   6.313   7.049  19.889 -0.0352  0.0839  0.0546
48430OCT     C296860   6.341   6.831  19.463  0.1518  0.0355 -0.2723
48431OCT     C196861  13.914  19.435  19.420  0.3659 -0.1458 -0.3931
48431OCT     C296862  13.808  19.411  19.873  0.2229 -0.0196 -0.3022
48432OCT     C196863  23.022  13.974  10.129  0.0826 -0.1146  0.1352
48432OCT     C296864  22.669  14.225   9.958  0.2001 -0.0725 -0.0197
48433OCT     C196865  18.219  18.153   4.497 -0.1212  0.1418  0.2348
48433OCT     C296866  18.159  17.725   4.351 -0.2169  0.0746 -0.3494
48434OCT     C196867  22.702   9.898   4.386  0.1586  0.0041 -0.1587
48434OCT     C296868  22.271   9.715   4.243 -0.0479  0.1074 -0.1706
48435OCT     C196869  21.308  18.032   8.359 -0.1845  0.0602 -0.2677
48435OCT     C296870  21.052  17.637   8.533  0.1663 -0.1859  0.0104
48436OCT     C196871  11.158  12.137   4.527 -0.1327 -0.0003  0.4962
48436OCT     C296872  11.420  12.447   4.775  0.0735  0.4408 -0.0906
48437OCT     C196873   6.315  15.218  16.771 -0.4148  0.0595 -0.0917
48437OCT     C296874   6.027  14.905  16.642  0.3245 -0.0022  0.0177
48438OCT     C196875  18.463  18.198  18.219 -0.2082  0.1122  0.0046
48438OCT     C296876  18.460  18.662  18.382 -0.1206 -0.4240 -0.6042
48439OCT     C196877   1.034  17.224  10.355  0.0697 -0.2126  0.2098
48439OCT     C296878   1.142  17.369   9.868  0.2042 -0.0828 -0.1876
48440OCT     C196879   5.796   7.697   0.540  0.2602  0.2080 -0.0227
48440OCT     C296880   5.644   7.255   0.431 -0.3793 -0.0910  0.1521
48441OCT     C196881  15.181   6.325  21.465 -0.2014  0.2967 -0.1743
48441OCT     C296882  15.619   6.547  21.614 -0.1285 -0.0593 -0.0409
48442OCT     C196883  19.127  19.699   3.078 -0.2972 -0.2112 -0.1735
48442OCT     C296884  19.299  20.205   3.043 -0.2723  0.3820 -0.0552
48443OCT     C196885  12.193  19.964   4.002 -0.0083 -0.1840  0.2757
48443OCT     C296886  11.890  20.395   3.949  0.1235 -0.1969  0.2233
48444OCT     C196887  13.630  12.206  13.309  0.2976  0.1129 -0.4902
48444OCT     C296888  13.216  12.425  13.249 -0.0399 -0.0364  0.3542
48445OCT     C196889  18.755  13.087  19.326  0.0265  0.3026 -0.1804
48445OCT     C296890  18.980  13.445  19.517  0.0182  0.1853  0.3413
48446OCT     C196891   2.926  19.792   0.243 -0.2059  0.3352  0.1630
48446OCT     C296892   2.761  20.165   0.364 -0.0440 -0.2213 -0.0894
48447OCT     C196893  16.428  15.615   9.245 -0.2659  0.0241 -0.3539
48447OCT     C296894  16.049  15.359   9.318  0.0192 -0.0382  0.0069
48448OCT     C196895  22.420  18.672   3.517  0.1645  0.2792 -0.0789
48448OCT     C296896  22.542  19.075   3.679 -0.0640 -0.2759 -0.2692
48449OCT     C196897  21.841   4.037   9.494  0.3471  0.2259  0.2375
48449OCT     C296898  21.456   3.806   9.538 -0.4823 -0.2927  0.3063
48450OCT     C196899  11.559  20.233   4.724  0.3245 -0.0518 -0.0025
48450OCT     C296900  11.218  20.490   4.800 -0.2070  0.0914 -0.3056
48451OCT     C196901   5.136   3.140  10.831  0.3601 -0.0120  0.2113
48451OCT     C296902   4.981   2.832  11.183 -0.0884  0.1240  0.2259
48452OCT     C196903  20.969   0.625  14.904 -0.1319 -0.0123 -0.1473
48452OCT     C296904  21.304   0.572  14.545  0.3207  0.0836 -0.2021
48453OCT     C196905   7.850  17.734  15.146 -0.0178 -0.1606 -0.3597
48453OCT     C296906   7.957  17.368  15.431  0.2617  0.0225 -0.2786
48454OCT     C196907   6.610   6.574  23.149 -0.0504  0.1300  0.3317
48454OCT     C296908   7.048   6.568  23.195  0.0990 -0.2530  0.1976
48455OCT     C196909  18.137   8.167   2.195 -0.0383  0.4325 -0.0909
48455OCT     C296910  18.558   8.084   2.314 -0.0963  0.0657 -0.0111
48456OCT     C196911  13.227  12.635  21.940 -0.0010  0.1332  0.2484
48456OCT     C296912  13.250  12.243  21.747 -0.3195 -0.1405  0.0636
48457OCT     C196913  21.463   8.637  22.310 -0.0622  0.2522 -0.2288
48457OCT     C296914  21.649   8.424  21.955  0.4523 -0.1226 -0.0573
48458OCT     C196915  19.988  11.695   6.502  0.2843 -0.5506 -0.0507
48458OCT     C296916  19.722  11.393   6.826 -0.2536  0.0102 -0.4088
48459OCT     C196917   6.296  16.494   5.589 -0.0136 -0.1438 -0.2572
48459OCT     C296918   6.366  16.925   5.363  0.0233 -0.0320  0.1606
48460OCT     C196919   8.768   5.925   6.130  0.0301 -0.0258 -0.0560
48460OCT     C296920   8.779   6.095   6.589  0.2308  0.0195 -0.1565
48461OCT     C196921   1.225   5.255  20.353 -0.1617 -0.2972  0.4024
48461OCT     C296922   1.440   5.315  20.720 -0.1852 -0.3208  0.1757
48462OCT     C196923   4.760  20.933  22.162 -0.0093 -0.0321  0.2983
48462OCT     C296924   4.748  21.258  22.516 -0.1539 -0.0620 -0.1518
48463OCT     C196925   8.636   1.263  12.546 -0.2366 -0.2516  0.1483
48463OCT     C296926   8.331   0.864  12.548 -0.1008 -0.0113 -0.0844
48464OCT     C196927  14.637   6.772  18.418 -0.4868  0.0186  0.5474
48464OCT     C296928  15.099   6.705  18.351  0.2804  0.0026  0.0728
48465OCT     C196929  12.967   2.431   8.050  0.2269 -0.2194  0.2391
48465OCT     C296930  13.203   2.134   7.822 -0.2773 -0.3894  0.0874
48466OCT     C196931   0.808  15.824  18.840  0.1567 -0.1499 -0.0185
48466OCT     C296932   0.532  15.478  18.971 -0.1205 -0.1618  0.0178
48467OCT     C196933   8.178  22.770   9.351 -0.0067 -0.0995 -0.1290
48467OCT     C296934   7.695  22.763   9.108  0.1564  0.1051 -0.1718
48468OCT     C196935   0.577  12.847  17.125 -0.5090  0.3826  0.0910
48468OCT     C296936   0.916  13.010  17.423  0.1587 -0.1330  0.0104
48469OCT     C196937  18.987  21.301   8.725 -0.0665 -0.0554  0.0788
48469OCT     C296938  19.014  21.174   8.256  0.1256 -0.0681 -0.3043
48470OCT     C196939   4.056  20.671   8.508 -0.2864 -0.0691 -0.1098
48470OCT     C296940   4.498  20.561   8.539 -0.0871 -0.3172 -0.1037
48471OCT     C196941   9.821  13.809  18.704  0.1402 -0.0613  0.2401
48471OCT     C296942   9.376  13.765  18.526 -0.1259 -0.5308 -0.0110
48472OCT     C196943  21.288   4.154  13.685 -0.0474 -0.0961  0.0743
48472OCT     C296944  21.493   3.783  13.383  0.0649  0.0371  0.1481
48473OCT     C196945  20.223  18.132  17.353  0.0302  0.1004 -0.2106
48473OCT     C296946  20.013  17.749  17.161 -0.1265  0.0610  0.1652
48474OCT     C196947  21.574   3.485  16.401  0.0364  0.0467 -0.0883
48474OCT     C296948  21.815   3.140  16.461  0.0919 -0.2620 -0.1641
48475OCT     C196949  21.410  15.421  15.597  0.0826  0.3539  0.1141
48475OCT     C296950  21.602  15.846  15.607 -0.1037 -0.1346  0.0149
48476OCT     C196951  14.511   0.887   0.952  0.2443 -0.1136  0.1155
48476OCT     C296952  14.917   0.743   1.138 -0.3308  0.1098  0.2764
48477OCT     C196953  11.028  15.182   1.761 -0.2438 -0.3388 -0.0462
48477OCT     C296954  10.593  15.189   2.006 -0.1621  0.0233 -0.2721
48478OCT     C196955  20.056   7.988   4.339 -0.2327 -0.1060 -0.1400
48478OCT     C296956  20.012   8.179   4.746 -0.1926  0.1217  0.0137
48479OCT     C196957  22.210   3.724   5.842  0.0788  0.0319 -0.0424
48479OCT     C296958  22.184   3.349   6.134  0.0306  0.2385 -0.1212
48480OCT     C196959   6.235   7.368  17.392  0.1231  0.0611  0.1709
48480OCT     C296960   5.939   7.271  17.032 -0.2150 -0.2637  0.0764
48481OCT     C196961  23.389   0.606  16.612 -0.1151  0.1696  0.3081
48481OCT     C296962   0.033   0.383  16.538 -0.3251 -0.0135 -0.2032
48482OCT     C196963   0.247   7.504  22.093  0.0464 -0.0526 -0.3455
48482OCT     C296964  23.687   7.485  21.751  0.0064  0.0993 -0.2209
48483OCT     C196965   1.538  23.560   8.770 -0.0448 -0.4432  0.2766
48483OCT     C296966   1.252   0.046   8.472  0.0557 -0.0263  0.3101
48484OCT     C196967  11.333  22.334  20.050 -0.1127  0.1372  0.0770
48484OCT     C296968  10.985  22.614  20.092 -0.2232  0.1764  0.2252
48485OCT     C196969   6.196   1.439   2.098 -0.0111 -0.0137  0.0300
48485OCT     C296970   6.571   1.644   2.172  0.1831  0.0051  0.2703
48486OCT     C196971  14.294  11.938   6.010  0.0679  0.0791 -0.2614
48486OCT     C296972  14.456  11.750   6.389 -0.1008  0.0908 -0.3500
48487OCT     C196973  14.122  14.470   9.219  0.1637  0.0840 -0.4665
48487OCT     C296974  14.353  14.742   8.916  0.0220  0.0358  0.0881
48488OCT     C196975   7.647  11.779   9.095  0.1696  0.2451  0.1054
48488OCT     C296976   7.289  11.594   8.921  0.0800 -0.4347  0.0037
48489OCT     C196977  22.231   3.995  11.538  0.1687 -0.0197  0.2641
48489OCT     C296978  21.968   3.755  11.820 -0.0847  0.0335 -0.1797
48490OCT     C196979   1.878  14.026  16.771  0.1978 -0.2665  0.1640
48490OCT     C296980   2.055  14.116  16.342 -0.3049 -0.2875 -0.1880
48491OCT     C196981   3.529  11.092   9.589  0.0086 -0.1823  0.2686
48491OCT     C296982   3.835  11.028   9.970 -0.0794  0.0622 -0.0951
48492OCT     C196983  18.396  16.879  13.151  0.2889 -0.0093 -0.1906
48492OCT     C296984  18.276  16.854  13.592 -0.0027  0.1341 -0.3379
48493OCT     C196985  10.727   0.662   2.322 -0.0694 -0.1748 -0.0780
48493OCT     C296986  10.868   1.017   2.191 -0.6556  0.1918 -0.0323
48494OCT     C196987  11.590   2.991  16.930  0.1456 -0.0046 -0.0086
48494OCT     C296988  11.281   2.822  17.262 -0.2135  0.2731 -0.2115
48495OCT     C196989  12.355   2.150  10.425  0.1953 -0.2464 -0.0537
48495OCT     C296990  12.346   2.574  10.210  0.3002 -0.3510 -0.1706
48496OCT     C196991  21.971   0.260  22.915 -0.3195  0.0058  0.0553
48496OCT     C296992  22.042   0.726  22.872  0.1417 -0.0563  0.5442
48497OCT     C196993  16.668  14.659  14.842  0.1167  0.1836  0.0042
48497OCT     C296994  16.491  14.280  14.577  0.0782  0.0965 -0.1235
48498OCT     C196995   8.506   4.522   3.738  0.4725 -0.0167  0.0682
48498OCT     C296996   8.320   4.095   3.660 -0.1604  0.2534 -0.1222
48499OCT     C196997  14.079   7.805   3.344 -0.0133  0.1840  0.6024
48499OCT     C296998  13.699   7.586   3.095  0.1390 -0.1495  0.0230
48500OCT     C196999  10.026  12.643   6.032 -0.3067  0.2770 -0.2478
48500OCT     C297000   9.816  12.486   5.712 -0.1798 -0.1286 -0.3556
48501OCT     C197001   8.576   7.516   4.467 -0.1851  0.0017 -0.1940
48501OCT     C297002   8.753   7.352   4.882 -0.0701  0.0389 -0.0984
48502OCT     C197003   6.251   7.886   6.454 -0.2996  0.0114 -0.0817
48502OCT     C297004   6.229   7.681   6.016 -0.0834 -0.1003 -0.2180
48503OCT     C197005  15.722  12.927   1.664 -0.1009 -0.1472 -0.1016
48503OCT     C297006  16.001  13.187   1.381 -0.0617  0.1590  0.1527
48504OCT     C197007   7.171  16.664   0.187  0.0695 -0.0331 -0.3595
48504OCT     C297008   6.793  16.559  23.636 -0.3631  0.0115 -0.2066
48505OCT     C197009   7.273  22.843  15.957  0.7544 -0.1334 -0.0483
48505OCT     C297010   7.225  22.337  16.031  0.0582  0.0772 -0.0904
48506OCT     C197011  18.726  17.658   8.384 -0.4077  0.0896 -0.0383
48506OCT     C297012  18.856  17.470   7.951  0.0943 -0.2747  0.1318
48507OCT     C197013   3.785  19.452  15.605 -0.2700  0.2389  0.2997
48507OCT     C297014   3.901  19.788  15.306 -0.0385 -0.1106  0.0934
48508OCT     C197015   9.912   8.280  21.219 -0.0629 -0.0506  0.7378
48508OCT     C297016   9.576   8.568  21.344 -0.3470 -0.1589 -0.1259
48509OCT     C197017   8.926   3.701  15.415  0.0669  0.5283 -0.0772
48509OCT     C297018   8.801   4.137  15.661 -0.0625 -0.1190  0.0357
48510OCT     C197019   3.619   1.300  16.184  0.1923 -0.1911  0.2295
48510OCT     C297020   4.073   1.391  15.980 -0.2095  0.0397 -0.2999
48511OCT     C197021   2.262  11.138  16.523 -0.3152 -0.3527  0.3057
48511OCT     C297022   1.915  11.237  16.222 -0.0282 -0.3550 -0.2701
48512OCT     C197023  20.615  21.894  13.882  0.6107  0.1900  0.1607
48512OCT     C297024  20.369  21.841  13.543 -0.4993 -0.2041 -0.1369
48513OCT     C197025   4.569  10.657  20.706  0.1587 -0.0478  0.0453
48513OCT     C297026   4.234  10.344  20.559  0.0570 -0.2061 -0.2862
48514OCT     C197027   4.096  14.465  21.242  0.0484  0.3726  0.2339
48514OCT     C297028   4.395  14.646  21.472  0.0546  0.1481  0.3142
48515OCT     C197029  15.755  18.373  21.376 -0.1344 -0.0897 -0.1448
48515OCT     C297030  15.454  18.099  21.392  0.1883 -0.1045  0.0542
48516OCT     C197031  10.439  11.377  16.981 -0.0382 -0.0442  0.2658
48516OCT     C297032  10.398  11.606  16.599 -0.1563  0.2113  0.2464
48517OCT     C197033  14.027  19.465   5.451  0.1998  0.0724 -0.2300
48517OCT     C297034  14.131  19.858   5.299 -0.1374 -0.1669 -0.2423
48518OCT     C197035  15.679   0.317  16.745 -0.1090 -0.1906  0.3202
48518OCT     C297036  15.448   0.776  16.739 -0.0883  0.1234  0.3017
48519OCT     C197037  23.177   2.008  15.554  0.2662 -0.0884  0.0355
48519OCT     C297038  22.944   2.164  15.911 -0.0639  0.2207 -0.4373
48520OCT     C197039  15.991  22.391   0.395  0.1602  0.0091 -0.1185
48520OCT     C297040  16.313  22.659   0.577  0.0207 -0.1146  0.2520
48521OCT     C197041  10.085  13.162  22.198  0.1058  0.1021 -0.4228
48521OCT     C297042   9.892  13.567  22.261 -0.0784  0.0417  0.0512
48522OCT     C197043   5.851   0.766  13.442 -0.1067 -0.1077  0.0065
48522OCT     C297044   5.792   0.546  13.850 -0.0066  0.2821  0.1852
48523OCT     C197045  13.115  21.897   9.405  0.1112  0.3313 -0.0876
48523OCT     C297046  13.588  21.889   9.248  0.1079  0.3461 -0.3402
48524OCT     C197047   9.279  11.068  18.059  0.1117  0.0403  0.1190
48524OCT     C297048   8.866  10.802  18.107 -0.0769  0.3484 -0.1442
48525OCT     C197049  22.325  18.067  23.740 -0.2619  0.0647  0.3272
48525OCT     C297050  22.545  18.284  23.422  0.0897  0.1956  0.0957
48526OCT     C197051  19.194   8.358  14.165  0.0840  0.0422 -0.2399
48526OCT     C297052  19.359   8.561  14.522  0.3678 -0.1289 -0.1079
48527OCT     C197053   6.987  11.427  21.705 -0.1515  0.2281  0.2788
48527OCT     C297054   6.724  11.247  22.043 -0.2271  0.1047  0.3169
48528OCT     C197055   8.971  11.942   3.021  0.1531  0.0003 -0.2939
48528OCT     C297056   9.365  12.084   2.850 -0.0329  0.2059 -0.0102
48529OCT     C197057  20.243   3.657   8.575  0.4724  0.2438 -0.1867
48529OCT     C297058  20.403   4.040   8.424 -0.1798  0.1516  0.0929
48530OCT     C197059   6.031  17.306  10.327  0.2046 -0.1517  0.0491
48530OCT     C297060   5.760  17.250   9.937  0.4069 -0.3008 -0.0967
48531OCT     C197061  19.625   1.295  11.792  0.3584 -0.0482  0.3855
48531OCT     C297062  19.850   1.146  12.164  0.2562  0.0208 -0.1510
48532OCT     C197063  23.068  20.449  14.839 -0.0372  0.4451  0.2422
48532OCT     C297064  22.843  20.586  15.201  0.0800  0.0887 -0.1501
48533OCT     C197065  20.021   5.585   9.784  0.1595  0.2427  0.0566
48533OCT     C297066  19.701   5.327   9.638  0.3886  0.0450 -0.2720
48534OCT     C197067   4.731   1.646   4.852  0.0507  0.2881  0.0894
48534OCT     C297068   4.476   1.255   4.903 -0.1851  0.0647 -0.1411
48535OCT     C197069  11.948  14.301   7.410 -0.5746  0.1881 -0.0072
48535OCT     C297070  12.264  14.363   7.755 -0.0253  0.2352  0.0717
48536OCT     C197071  22.550   9.985   7.488 -0.2685 -0.0249 -0.0212
48536OCT     C297072  22.127  10.014   7.621  0.0099  0.3915 -0.2207
48537OCT     C197073   4.348  14.220  20.804  0.1446 -0.0646 -0.0909
48537OCT     C297074   4.285  13.907  21.227  0.2395 -0.3289  0.2604
48538OCT     C197075   5.968   6.729  18.143 -0.0740  0.2574 -0.1058
48538OCT     C297076   5.830   7.123  18.295  0.2247 -0.3119  0.0393
48539OCT     C197077   0.100   0.302  12.444 -0.0097 -0.1813 -0.1600
48539OCT     C297078  23.532   0.125  12.710  0.0263 -0.2719  0.0707
48540OCT     C197079  14.787   7.226  11.659 -0.1983  0.1702  0.0839
48540OCT     C297080  14.726   6.864  11.380  0.0792 -0.1886 -0.0805
48541OCT     C197081  12.674   0.331   0.711 -0.4099  0.0431 -0.1061
48541OCT     C297082  12.892   0.708   0.780 -0.2043  0.1106  0.2722
48542OCT     C197083   4.544  12.757   6.866  0.0906 -0.0249  0.0247
48542OCT     C297084   4.798  12.432   7.006 -0.0763  0.2313 -0.0476
48543OCT     C197085  19.230   6.929   4.142 -0.0888 -0.0569  0.2550
48543OCT     C297086  19.587   7.093   4.419 -0.0732  0.1365 -0.1392
48544OCT     C197087  19.175   1.192  20.919  0.5377  0.0226  0.2810
48544OCT     C297088  19.477   1.493  21.140 -0.0711  0.4148 -0.0359
48545OCT     C197089  12.389  13.727  15.314  0.0778  0.2037  0.1871
48545OCT     C297090  12.324  13.230  15.341 -0.0396 -0.4255  0.0185
48546OCT     C197091   2.229  15.086   9.143  0.2961  0.1285 -0.1940
48546OCT     C297092   2.038  14.756   8.893  0.0221  0.1478  0.0660
48547OCT     C197093  13.788  10.448   1.377 -0.2870 -0.0026 -0.1281
48547OCT     C297094  14.231  10.505   1.469 -0.0687 -0.4690  0.2730
48548OCT     C197095  21.268  18.547  10.345 -0.0212  0.3288  0.1602
48548OCT     C297096  21.462  18.434   9.923 -0.3251  0.0579 -0.1050
48549OCT     C197097  12.768   7.311   1.519 -0.0920  0.4225  0.2706
48549OCT     C297098  12.464   6.933   1.506  0.3010  0.1797 -0.1937
48550OCT     C197099   2.043  20.802  15.611  0.1785 -0.1916  0.4945
48550OCT     C297100   1.918  20.426  15.915 -0.4597 -0.0205 -0.1814
48551OCT     C197101  19.166  20.785   5.771  0.3343 -0.0485 -0.0444
48551OCT     C297102  19.344  20.801   5.372 -0.1800 -0.1460 -0.1816
48552OCT     C197103  14.320   1.017  17.550 -0.2346 -0.1808 -0.0604
48552OCT     C297104  14.683   0.857  17.738  0.2566  0.0279 -0.1902
48553OCT     C197105   4.744   9.399  23.408 -0.5010  0.0530 -0.2185
48553OCT     C297106   5.105   9.191  23.195 -0.1314  0.1037  0.6023
48554OCT     C197107   9.380   8.613  23.144  0.2766  0.2380  0.2998
48554OCT     C297108   8.929   8.639  23.041  0.0457 -0.0271 -0.1725
48555OCT     C197109  17.810  15.889   2.717  0.0256 -0.1995  0.3613
48555OCT     C297110  18.160  15.653   2.469 -0.2688 -0.2731 -0.0732
48556OCT     C197111  10.151  21.418  17.772  0.2512  0.4671 -0.1704
48556OCT     C297112  10.296  21.149  18.151  0.0389 -0.0589 -0.2212
48557OCT     C197113  15.489   4.657  21.189 -0.0272  0.3790 -0.3088
48557OCT     C297114  15.324   4.757  21.674  0.1234 -0.1428  0.2619
48558OCT     C197115  14.039  19.977   1.578 -0.4634  0.0588 -0.2779
48558OCT     C297116  14.084  19.932   1.086  0.0657  0.1188  0.1444
48559OCT     C197117  10.334   8.536   7.887  0.2178 -0.0841  0.2712
48559OCT     C297118  10.530   8.241   7.638 -0.0446 -0.2131 -0.1037
48560OCT     C197119  15.267   0.648  13.974  0.3142 -0.1436  0.2748
48560OCT     C297120  14.853   0.800  14.187 -0.0051  0.2940  0.3448
48561OCT     C197121  20.509   0.202   6.295  0.0690  0.2712 -0.0420
48561OCT     C297122  20.856   0.269   6.583 -0.2402  0.0875 -0.1069
48562OCT     C197123   9.539   3.640  14.325  0.1614  0.0591  0.0312
48562OCT     C297124   9.264   3.384  14.012 -0.3605  0.2025  0.2200
48563OCT     C197125  22.814   7.136  15.030 -0.0541  0.0419 -0.1449
48563OCT     C297126  23.118   7.221  14.762  0.2567 -0.0451 -0.0237
48564OCT     C197127   5.096   3.002   9.026 -0.3100  0.0102  0.1729
48564OCT     C297128   5.464   2.803   8.776 -0.2828 -0.2154  0.0783
48565OCT     C197129   0.192   6.353   0.359 -0.0108 -0.2117  0.0681
48565OCT     C297130   0.378   6.684   0.626 -0.3145 -0.1375  0.4002
48566OCT     C197131   0.896  19.427   0.075  0.2998 -0.0440  0.3119
48566OCT     C297132   1.224  19.729   0.217  0.2353  0.1742  0.2215
48567OCT     C197133  18.800  13.838  18.706  0.0029  0.1840  0.0660
48567OCT     C297134  18.957  13.433  18.557  0.2228 -0.0769 -0.1675
48568OCT     C197135   2.641  13.965  11.123 -0.1463 -0.2624 -0.2309
48568OCT     C297136   2.905  13.579  11.140 -0.1247 -0.0767 -0.1873
48569OCT     C197137  15.314   5.357   6.262  0.2601 -0.4726 -0.3580
48569OCT     C297138  15.169   5.135   5.863  0.2497 -0.3674  0.2033
48570OCT     C197139   8.955  22.269  17.015 -0.3345 -0.1610 -0.1375
48570OCT     C297140   9.443  22.249  17.053  0.0769  0.2490 -0.0843
48571OCT     C197141  16.854  12.218  15.727 -0.2838  0.1567  0.0612
48571OCT     C297142  16.825  12.390  16.193  0.4495  0.1683  0.2327
48572OCT     C197143  22.440  11.557  14.489 -0.1672  0.0730  0.1785
48572OCT     C297144  22.510  11.530  14.027  0.0916  0.1353 -0.3506
48573OCT     C197145   0.888   0.155   0.921 -0.0566  0.0762 -0.1378
48573OCT     C297146   1.160   0.236   0.540  0.2966 -0.1663  0.1854
48574OCT     C197147   2.284   2.526   6.974 -0.0829 -0.1348 -0.0862
48574OCT     C297148   2.570   2.852   6.732  0.0411  0.1211  0.0025
48575OCT     C197149   4.542  10.864  12.351  0.1672  0.1157  0.0695
48575OCT     C297150   4.908  10.809  12.052 -0.0620 -0.0278 -0.2846
48576OCT     C197151  13.701  10.539  17.290  0.3271  0.2084  0.0017
48576OCT     C297152  13.985  10.667  16.988  0.0908  0.1738  0.0154
48577OCT     C197153   2.619   6.384   1.150  0.0751  0.0394  0.2698
48577OCT     C297154   3.012   6.527   1.258 -0.5451 -0.0086  0.3395
48578OCT     C197155   0.841   6.960  15.251 -0.0390 -0.1489 -0.0034
48578OCT     C297156   0.533   7.285  15.333  0.1482 -0.2278 -0.0733
48579OCT     C197157  17.251   5.306  19.747 -0.0862 -0.1347 -0.0219
48579OCT     C297158  17.674   5.308  19.967 -0.1387  0.1469  0.0918
48580OCT     C197159  23.575  11.562   4.457 -0.1129 -0.2066  0.1762
48580OCT     C297160  23.257  11.333   4.638  0.0017 -0.1296 -0.2062
48581OCT     C197161  20.293  13.416  20.880  0.0656  0.0845  0.2628
48581OCT     C297162  20.414  13.551  21.247 -0.0529 -0.1980 -0.1319
48582OCT     C197163   3.890   6.084  17.184 -0.0125 -0.0607  0.0557
48582OCT     C297164   4.070   5.706  17.447 -0.0982 -0.0658  0.0644
48583OCT     C197165  17.971  11.410  18.499 -0.1308  0.2336  0.0651
48583OCT     C297166  18.039  11.609  18.968  0.1232 -0.1060  0.2042
48584OCT     C197167  12.764   0.019  19.124 -0.0874  0.0308 -0.1372
48584OCT     C297168  12.496   0.041  19.509 -0.0694 -0.0492  0.0534
48585OCT     C197169  13.983   5.295  14.286  0.0507  0.1093 -0.3058
48585OCT     C297170  14.204   5.152  14.650  0.1658 -0.2887  0.2396
48586OCT     C197171  16.440   7.378   8.883 -0.1835  0.0082  0.2918
48586OCT     C297172  16.842   7.377   9.142  0.0135  0.1454  0.0595
48587OCT     C197173  15.788  22.451  14.606 -0.0580  0.0740  0.0204
48587OCT     C297174  15.387  22.287  14.670 -0.1335 -0.0198  0.0361
48588OCT     C197175   7.143  17.756   7.904 -0.0075 -0.5166  0.1952
48588OCT     C297176   6.974  17.533   7.501  0.2601  0.2824  0.4498
48589OCT     C197177   7.540   4.562  12.005  0.0137  0.1362  0.0763
48589OCT     C297178   7.095   4.680  11.863  0.0808  0.0315 -0.0917
48590OCT     C197179  21.426  20.505  18.317  0.2412  0.0719 -0.0564
48590OCT     C297180  21.194  20.154  18.114  0.2363  0.1065  0.0413
48591OCT     C197181   8.667  10.418  19.401  0.2056 -0.0076 -0.1292
48591OCT     C297182   9.147  10.539  19.372  0.2396  0.4703 -0.1963
48592OCT     C197183  22.893   1.909   2.943 -0.0019 -0.3300 -0.2080
48592OCT     C297184  22.955   1.986   3.434 -0.2733 -0.0039  0.4261
48593OCT     C197185  21.944  13.778  15.237  0.0489 -0.2162 -0.2719
48593OCT     C297186  21.946  13.907  14.770  0.0898  0.0181  0.2347
48594OCT     C197187  22.199  23.031   3.479  0.2606  0.3453 -0.0474
48594OCT     C297188  22.548  23.328   3.523 -0.1610 -0.1580 -0.0918
48595OCT     C197189  10.119   0.792  17.460  0.2887  0.3318 -0.3156
48595OCT     C297190  10.482   0.619  17.193  0.0681 -0.0571  0.2055
48596OCT     C197191  20.358  18.422  10.934  0.2752  0.2010  0.0486
48596OCT     C297192  20.004  18.161  10.850  0.0191  0.1254 -0.1542
48597OCT     C197193   9.969  12.240  10.486  0.0554  0.2259 -0.0122
48597OCT     C297194   9.610  12.407  10.536  0.0222 -0.0230  0.2308
48598OCT     C197195  16.982   6.433  14.778  0.0264  0.0328  0.2480
48598OCT     C297196  16.886   6.352  14.322  0.4667 -0.0159 -0.0394
48599OCT     C197197  21.089   8.510   6.229  0.0478  0.0403 -0.2806
48599OCT     C297198  20.629   8.626   6.307  0.0530 -0.0068  0.0123
48600OCT     C197199  15.055   3.586  19.338  0.2473 -0.0552 -0.1686
48600OCT     C297200  15.300   3.276  19.594 -0.1551 -0.1561 -0.2559
48601OCT     C197201   3.672   6.077   3.096  0.0491 -0.0253  0.1935
48601OCT     C297202   4.066   5.909   3.279  0.1333  0.0179  0.1691
48602OCT     C197203  12.686  18.332  15.363 -0.2642 -0.2197 -0.1442
48602OCT     C297204  12.988  17.953  15.530  0.1727 -0.2648 -0.3323
48603OCT     C197205   6.070   5.282   0.666 -0.2551  0.0758  0.2315
48603OCT     C297206   5.743   5.577   0.828  0.0973 -0.1005 -0.1715
48604OCT     C197207  12.151  14.438   0.269  0.0295 -0.0514  0.3041
48604OCT     C297208  12.107  14.904   0.301 -0.0813  0.1800 -0.0484
48605OCT     C197209  18.398   5.196  17.285 -0.2822 -0.0011 -0.1863
48605OCT     C297210  18.203   4.811  17.430 -0.0855  0.0293 -0.0872
48606OCT     C197211   9.279  17.756   2.954  0.0230  0.2367  0.1833
48606OCT     C297212   9.179  17.403   3.246 -0.2176  0.3935  0.0664
48607OCT     C197213  14.530   7.977  12.218  0.0989  0.0724 -0.0416
48607OCT     C297214  14.239   7.695  12.378  0.2597 -0.3606  0.3221
48608OCT     C197215   9.401   2.574  20.620  0.1882 -0.0595  0.3189
48608OCT     C297216   9.605   2.815  20.312 -0.3173 -0.2772  0.1618
48609OCT     C197217  23.109  10.380  13.690  0.1443 -0.3224  0.3683
48609OCT     C297218  22.901  10.018  13.541  0.1875  0.0550 -0.0158
48610OCT     C197219   0.662  16.555   0.698 -0.2480 -0.1149  0.4028
48610OCT     C297220   0.571  16.145   0.911 -0.0806  0.0093 -0.2951
48611OCT     C197221   5.747   8.504   0.789  0.1910 -0.2395 -0.3048
48611OCT     C297222   5.787   8.904   1.063  0.0816 -0.0193  0.0318
48612OCT     C197223   7.619   9.709   5.067  0.0304 -0.1391  0.0199
48612OCT     C297224   7.396  10.117   4.984 -0.4212  0.4464 -0.3366
48613OCT     C197225  13.213  14.361  14.049 -0.2156  0.1962  0.0179
48613OCT     C297226  12.895  14.019  14.119  0.0154  0.3442  0.0832
48614OCT     C197227  11.129  11.630   3.474  0.1581  0.2468  0.1260
48614OCT     C297228  11.274  11.231   3.718 -0.0186 -0.2204  0.0340
48615OCT     C197229  17.457   1.744   0.202 -0.0709  0.1303  0.1967
48615OCT     C297230  17.618   1.451   0.566  0.0390  0.2348 -0.0928
48616OCT     C197231   4.015  14.431  14.190  0.3922  0.2328  0.2424
48616OCT     C297232   3.629  14.403  13.890  0.2283 -0.1050  0.0311
48617OCT     C197233  21.268  23.099   8.180  0.1035  0.4434 -0.1544
48617OCT     C297234  21.389  23.558   8.095 -0.0592  0.3146  0.0555
48618OCT     C197235   5.892  13.240  11.490 -0.2472  0.2438 -0.1011
48618OCT     C297236   6.113  13.389  11.094  0.0942 -0.1725  0.0665
48619OCT     C197237   4.925  19.845   6.370 -0.2936 -0.2344 -0.0332
48619OCT     C297238   5.307  19.767   6.058 -0.1758 -0.1272 -0.3223
48620OCT     C197239  16.671   8.906  16.133 -0.3063  0.0107  0.1945
48620OCT     C297240  16.733   9.307  16.338 -0.2810 -0.1287 -0.2672
48621OCT     C197241   8.598  11.116  17.338  0.1122  0.0029 -0.0739
48621OCT     C297242   8.243  10.784  17.427  0.1452 -0.0299 -0.1199
48622OCT     C197243  18.072   3.472   8.815  0.0312 -0.3473 -0.2201
48622OCT     C297244  18.069   3.363   9.328 -0.0165 -0.1819  0.1683
48623OCT     C197245   0.906  13.457   3.193  0.2475  0.0454 -0.2019
48623OCT     C297246   1.384  13.490   3.259 -0.0716  0.1401  0.4909
48624OCT     C197247   3.624   6.376   6.880  0.0236  0.3662  0.1174
48624OCT     C297248   3.609   6.349   6.409 -0.0095  0.1673 -0.0312
48625OCT     C197249  19.783   8.333  17.980  0.1915  0.2737  0.0871
48625OCT     C297250  20.130   8.525  17.712 -0.0284  0.0506  0.0379
48626OCT     C197251  18.991   1.830  21.925  0.4849 -0.1757  0.0304
48626OCT     C297252  18.813   1.419  21.906  0.1475 -0.2474 -0.0750
48627OCT     C197253   0.637   0.289  14.064 -0.1931  0.4005 -0.2180
48627OCT     C297254   1.078   0.153  14.079  0.0711  0.3741  0.7316
48628OCT     C197255   5.262  11.600  10.785  0.2167 -0.2379  0.1937
48628OCT     C297256   4.852  11.508  10.976  0.0449  0.1003 -0.0400
48629OCT     C197257   6.119  21.575  13.435 -0.2086  0.1416  0.0302
48629OCT     C297258   6.000  21.253  13.704  0.1026  0.1413  0.0145
48630OCT     C197259  21.495   8.213   8.270  0.2976 -0.4096 -0.0950
48630OCT     C297260  21.944   8.400   8.342 -0.0185 -0.1474  0.2764
48631OCT     C197261  13.982   4.985  23.656  0.2901 -0.2895  0.0601
48631OCT     C297262  14.314   5.050  23.328 -0.0217 -0.5432 -0.1143
48632OCT     C197263  15.898   2.959   5.316  0.1271  0.3135  0.3150
48632OCT     C297264  16.203   2.756   5.655 -0.1075 -0.0017  0.0903
48633OCT     C197265  23.144   4.816   4.461 -0.0813  0.0771 -0.2151
48633OCT     C297266  23.521   4.647   4.759 -0.1514  0.0292  0.0564
48634OCT     C197267  14.070  10.813   3.924  0.1395  0.1094 -0.0676
48634OCT     C297268  14.177  11.271   4.070  0.0366  0.4158 -0.2692
48635OCT     C197269   6.382  18.692  12.426 -0.1134  0.1614 -0.0188
48635OCT     C297270   6.749  18.785  12.749 -0.3819 -0.0284 -0.3615
48636OCT     C197271  16.032   2.672  20.069  0.1492 -0.6978 -0.0153
48636OCT     C297272  15.851   2.483  20.479  0.0727  0.0984 -0.0844
48637OCT     C197273  17.340   9.520   1.259  0.0930  0.0177  0.2572
48637OCT     C297274  17.066   9.362   1.622 -0.0130  0.0408  0.2412
48638OCT     C197275  17.467   3.270  22.717 -0.0848 -0.2862  0.1707
48638OCT     C297276  17.321   3.637  22.422  0.0180 -0.3317  0.1917
48639OCT     C197277  11.878   8.266  11.281 -0.0552  0.2066  0.2195
48639OCT     C297278  12.151   8.664  11.309  0.1131  0.0525 -0.2440
48640OCT     C197279   7.912  20.671   0.793  0.1214 -0.0416 -0.1454
48640OCT     C297280   7.522  20.635   1.090  0.0761 -0.1936 -0.0718
48641OCT     C197281  18.980   9.811  10.462  0.1551 -0.1022  0.1257
48641OCT     C297282  19.261   9.908  10.094  0.3691  0.2351 -0.0466
48642OCT     C197283  16.663  19.685   3.224 -0.0796 -0.3753 -0.2475
48642OCT     C297284  16.525  19.244   3.120 -0.0594 -0.1923 -0.0454
48643OCT     C197285  21.097  19.642   7.243  0.0810  0.2354 -0.3868
48643OCT     C297286  21.430  19.426   7.052  0.0412  0.0921 -0.0179
48644OCT     C197287   8.866   3.335  23.475  0.2000  0.0760 -0.1791
48644OCT     C297288   9.282   3.470  23.247  0.3338  0.1198 -0.1421
48645OCT     C197289   3.675   1.673   8.304  0.1158 -0.1623 -0.2926
48645OCT     C297290   3.618   1.211   8.211  0.0086 -0.0663  0.4037
48646OCT     C197291  11.225  13.072  17.695  0.1398  0.0949 -0.0097
48646OCT     C297292  11.007  12.992  17.273 -0.1635 -0.2209  0.1801
48647OCT     C197293  16.130   2.226  21.361 -0.1248  0.2354 -0.3502
48647OCT     C297294  16.518   2.412  21.600  0.0206  0.0697  0.2483
48648OCT     C197295   7.844  22.243  11.594  0.0835  0.0212  0.2576
48648OCT     C297296   7.902  22.321  11.109  0.0068  0.0215 -0.4703
48649OCT     C197297  15.539  15.643  14.649 -0.0139  0.2983 -0.0147
48649OCT     C297298  15.372  16.027  14.467  0.1808 -0.0700 -0.1323
48650OCT     C197299  22.065  18.498  11.750 -0.1792 -0.0450 -0.2286
48650OCT     C297300  22.459  18.759  11.859 -0.0047  0.2300 -0.0453
48651OCT     C197301   7.463   6.910  23.078 -0.0804 -0.0111  0.0620
48651OCT     C297302   7.465   7.258  22.775 -0.3582  0.1171 -0.1099
48652OCT     C197303  19.747  19.107   9.255  0.4298  0.0632 -0.1232
48652OCT     C297304  19.911  18.963   9.694  0.1124 -0.1066  0.0679
48653OCT     C197305  17.550  17.211  17.981  0.2199  0.1707  0.0508
48653OCT     C297306  17.093  17.066  18.063 -0.1066 -0.1177  0.0370
48654OCT     C197307  18.412   4.542  14.576  0.1659  0.0431  0.1527
48654OCT     C297308  18.349   4.941  14.459  0.1320 -0.0813 -0.2513
48655OCT     C197309  22.018  14.701   3.660 -0.0143 -0.3223 -0.0564
48655OCT     C297310  22.407  14.664   3.969 -0.1227 -0.0495 -0.1828
48656OCT     C197311   8.505  11.331   4.922  0.5887  0.1164 -0.0057
48656OCT     C297312   8.154  11.077   5.082  0.3380  0.1273  0.0891
48657OCT     C197313   6.045  18.608   4.168 -0.0163 -0.2233 -0.1186
48657OCT     C297314   6.452  18.734   4.279  0.0283  0.0254 -0.2710
48658OCT     C197315  20.507   5.718   0.924  0.1667  0.2895 -0.0885
48658OCT     C297316  20.888   5.653   1.255  0.3618  0.2432  0.1647
48659OCT     C197317   8.244   9.923  15.510  0.0670 -0.1621 -0.3226
48659OCT     C297318   7.788   9.957  15.344  0.4166 -0.3571 -0.2892
48660OCT     C197319   2.791   6.201   0.105  0.2514 -0.3426 -0.0587
48660OCT     C297320   2.840   5.746  23.722 -0.1774  0.0333  0.3113
48661OCT     C197321  13.978   4.213  22.012 -0.5206 -0.2368 -0.1420
48661OCT     C297322  14.176   4.197  21.524  0.0719  0.0195 -0.4040
48662OCT     C197323   4.239  15.955   7.553  0.1435 -0.0354  0.4997
48662OCT     C297324   3.977  16.149   7.196  0.1529 -0.1989  0.3166
48663OCT     C197325   0.250  15.723  21.848  0.1132  0.1793  0.2844
48663OCT     C297326   0.649  15.521  21.863  0.0977  0.0025 -0.0209
48664OCT     C197327   8.020  15.422  17.271 -0.0513 -0.1332 -0.2509
48664OCT     C297328   7.701  15.277  16.934  0.0515  0.1052 -0.0593
48665OCT     C197329  22.729   7.249  18.473 -0.3377  0.0775  0.0532
48665OCT     C297330  22.362   7.201  18.200 -0.0668 -0.0808 -0.1535
48666OCT     C197331  22.397  16.578  22.322 -0.0733 -0.2308  0.2858
48666OCT     C297332  22.649  16.208  22.495 -0.0293 -0.2937 -0.2889
48667OCT     C197333   9.005   8.586   7.108  0.1239  0.1653  0.3968
48667OCT     C297334   9.192   8.751   7.522 -0.1590  0.4119 -0.0177
48668OCT     C197335   9.616  17.580  11.284  0.0950 -0.0554  0.4948
48668OCT     C297336   9.851  17.234  11.584  0.1559 -0.0493 -0.0985
48669OCT     C197337  15.764   9.902  20.318  0.3170  0.0624  0.1487
48669OCT     C297338  15.537   9.530  20.262 -0.2358  0.0630 -0.0718
48670OCT     C197339   0.363   1.968  13.085 -0.0809  0.4541  0.1150
48670OCT     C297340   0.171   1.605  13.308  0.2683 -0.0572  0.1176
48671OCT     C197341   4.988  11.191  11.672  0.0049  0.2069  0.1419
48671OCT     C297342   5.241  11.491  11.367  0.2239 -0.1684  0.2323
48672OCT     C197343   3.250   6.415  14.706 -0.0814 -0.1137 -0.0225
48672OCT     C297344   3.287   6.283  15.143  0.0639  0.2356 -0.2408
48673OCT     C197345  19.775   1.123   5.115  0.0575  0.1554 -0.2200
48673OCT     C297346  19.721   1.392   5.488 -0.3880 -0.0516 -0.2010
48674OCT     C197347   2.676  22.543  13.404  0.3025  0.3876 -0.0463
48674OCT     C297348   2.954  22.191  13.602 -0.0841 -0.2173 -0.2158
48675OCT     C197349  17.200   1.457  17.236 -0.3527 -0.0327 -0.0482
48675OCT     C297350  17.196   1.793  17.461  0.1392 -0.4408 -0.0053
48676OCT     C197351  18.843   8.244   3.276 -0.1533  0.1921  0.1656
48676OCT     C297352  18.435   8.126   3.391 -0.3845 -0.2104 -0.2922
48677OCT     C197353  10.049  22.309  15.518 -0.3705  0.0321 -0.0439
48677OCT     C297354   9.652  22.448  15.366 -0.0609  0.2355 -0.2609
48678OCT     C197355  20.876  10.592   5.746 -0.3278  0.1478  0.1181
48678OCT     C297356  20.632  10.963   5.667  0.0335  0.1799  0.0501
48679OCT     C197357  21.858  11.359  22.540 -0.1685 -0.1114  0.0537
48679OCT     C297358  21.453  11.294  22.722 -0.1163 -0.3843 -0.1948
48680OCT     C197359  10.846   6.047  16.812 -0.2183 -0.2550 -0.3320
48680OCT     C297360  10.374   6.062  16.950 -0.0665  0.0992  0.0974
48681OCT     C197361   9.927   6.210  11.674 -0.2776 -0.0236  0.3050
48681OCT     C297362   9.787   6.646  11.745  0.1346 -0.2485  0.0510
48682OCT     C197363  20.861   4.345  20.298 -0.4583 -0.2377  0.0554
48682OCT     C297364  21.033   4.360  19.841 -0.0418 -0.0438 -0.1523
48683OCT     C197365  22.367   0.819  12.809  0.1087  0.1698  0.2141
48683OCT     C297366  22.616   1.098  13.094 -0.0762  0.0397 -0.0616
48684OCT     C197367   1.339   4.479  21.124  0.1521  0.4768  0.4028
48684OCT     C297368   1.638   4.851  21.178 -0.0315 -0.1982  0.1349
48685OCT     C197369  18.031  23.180  18.747 -0.2342 -0.2654  0.0766
48685OCT     C297370  18.286  23.592  18.725  0.0891  0.0503 -0.1247
48686OCT     C197371  15.808  21.981   2.717  0.3726  0.1089 -0.2611
48686OCT     C297372  15.984  22.146   3.058 -0.0167 -0.0196  0.1199
48687OCT     C197373   4.636  20.311   4.344 -0.2788 -0.0523  0.1112
48687OCT     C297374   4.164  20.315   4.243  0.0158  0.0005  0.0151
48688OCT     C197375   7.802   7.112   9.804  0.2529  0.0858 -0.2055
48688OCT     C297376   7.908   7.518  10.008 -0.0749 -0.1060 -0.1243
48689OCT     C197377   9.870  12.545   2.324 -0.0919 -0.1834 -0.0886
48689OCT     C297378   9.850  12.132   2.103  0.2988  0.2600 -0.2517
48690OCT     C197379   6.405  15.118  13.942  0.0414  0.1460 -0.0249
48690OCT     C297380   6.206  14.860  13.555  0.1626  0.0945 -0.3386
48691OCT     C197381   9.768  20.707   9.451  0.1899  0.6483 -0.2117
48691OCT     C297382   9.624  21.065   9.298 -0.0715 -0.5201 -0.0602
48692OCT     C197383   7.769   2.716   0.443  0.2354  0.0011  0.2786
48692OCT     C297384   7.610   2.593   0.840 -0.1325 -0.2579 -0.3248
48693OCT     C197385  12.977  23.152  14.417 -0.3059  0.0497 -0.0296
48693OCT     C297386  13.332  22.923  14.540  0.5662 -0.0062  0.3146
48694OCT     C197387   2.124  19.107  12.781 -0.0466  0.0123  0.0393
48694OCT     C297388   2.219  19.541  12.961 -0.3751 -0.2593 -0.0874
48695OCT     C197389   8.283  21.634   3.932  0.1109 -0.1949  0.3853
48695OCT     C297390   7.970  21.797   3.636 -0.2898 -0.0262  0.0479
48696OCT     C197391   0.357   1.552   3.789  0.4857 -0.1854 -0.2283
48696OCT     C297392   0.229   1.155   3.569 -0.2634  0.0237  0.5417
48697OCT     C197393  22.629   1.926  16.362  0.2269 -0.1992  0.4040
48697OCT     C297394  22.902   2.057  16.687 -0.3783  0.0252  0.4531
48698OCT     C197395   2.451  22.682   5.646 -0.3579  0.2104  0.0315
48698OCT     C297396   2.675  22.904   6.078  0.3033  0.4587 -0.1073
48699OCT     C197397  22.766  23.251   3.092 -0.0594 -0.2507 -0.4317
48699OCT     C297398  22.384  23.005   3.014 -0.0577  0.0723  0.1085
48700OCT     C197399   1.369   0.905  20.135 -0.4064  0.1059 -0.1973
48700OCT     C297400   1.795   1.054  20.348 -0.1125 -0.3284  0.1891
48701OCT     C197401   7.792  19.750   2.270  0.1476  0.0654 -0.4039
48701OCT     C297402   7.556  19.309   2.290  0.1889  0.1395  0.0271
48702OCT     C197403  18.143   8.982  12.802 -0.2682 -0.1827 -0.0391
48702OCT     C297404  17.985   8.581  12.672  0.0666 -0.3408  0.0088
48703OCT     C197405  17.227   6.058  10.540  0.2851  0.1085 -0.3467
48703OCT     C297406  17.072   6.514  10.660 -0.2636 -0.2016  0.3638
48704OCT     C197407   0.810  17.161   0.778 -0.5508  0.1763 -0.1594
48704OCT     C297408   0.708  16.975   1.208 -0.3288  0.0887 -0.4677
48705OCT     C197409  21.233   1.152   4.856 -0.0763  0.3793  0.0366
48705OCT     C297410  21.247   1.032   5.313 -0.1019  0.0843  0.1775
48706OCT     C197411   6.045   5.160  18.595  0.2078 -0.1926  0.3531
48706OCT     C297412   6.102   5.476  18.922 -0.2635  0.0514 -0.1793
48707OCT     C197413  16.877  21.146   8.478  0.3812 -0.0584 -0.0172
48707OCT     C297414  17.199  21.469   8.738 -0.2344 -0.2311 -0.4787
48708OCT     C197415  19.020  12.186  21.935  0.1095  0.0243  0.1230
48708OCT     C297416  18.732  11.954  21.575  0.0605  0.1616 -0.2271
48709OCT     C197417   9.175   5.618  19.938 -0.2409  0.1477  0.1315
48709OCT     C297418   8.896   5.566  19.592  0.0387  0.0547  0.0265
48710OCT     C197419   1.781   8.359  14.663 -0.0660  0.1906 -0.1767
48710OCT     C297420   1.724   7.925  14.523 -0.0744 -0.2288  0.0284
48711OCT     C197421  19.472   4.144  18.647  0.2716  0.4889  0.2762
48711OCT     C297422  19.058   4.315  18.524 -0.0934 -0.1542 -0.0258
48712OCT     C197423  19.236  11.857  19.542 -0.3213 -0.2973  0.2825
48712OCT     C297424  19.605  12.063  19.366 -0.0926  0.2117 -0.1081
48713OCT     C197425  14.466   7.151  22.728  0.0924  0.1342  0.4596
48713OCT     C297426  14.351   6.652  22.673  0.0415 -0.0424 -0.0972
48714OCT     C197427   5.761  15.053  17.866  0.1838 -0.2845 -0.0878
48714OCT     C297428   5.689  14.585  17.823 -0.0728 -0.1396 -0.6005
48715OCT     C197429   0.380  13.256  16.966 -0.0149 -0.5139  0.1638
48715OCT     C297430   0.799  13.184  16.785  0.0323  0.1331 -0.0167
48716OCT     C197431   6.598   5.227  21.112  0.0860 -0.1574 -0.1245
48716OCT     C297432   6.928   5.179  21.492  0.3219 -0.1648  0.1840
48717OCT     C197433  13.041  20.309  15.707 -0.1811  0.1568 -0.0422
48717OCT     C297434  12.914  20.684  15.903 -0.3169  0.2440  0.0771
48718OCT     C197435  18.526   1.591   1.430  0.0132  0.2932  0.1794
48718OCT     C297436  18.304   1.410   1.023 -0.0042  0.1399  0.0536
48719OCT     C197437   5.721  16.526  14.007 -0.6201  0.3248  0.1773
48719OCT     C297438   5.724  16.529  14.453 -0.4086  0.4246  0.1151
48720OCT     C197439  21.158   0.248  12.391 -0.1706 -0.0004 -0.2822
48720OCT     C297440  20.759   0.455  12.474 -0.0585 -0.0943  0.2472
48721OCT     C197441  23.457  12.598  18.528 -0.2376 -0.0586  0.1021
48721OCT     C297442  23.566  12.702  18.117  0.0837 -0.1405 -0.1181
48722OCT     C197443   1.884   8.803  21.697  0.1108  0.0670 -0.0890
48722OCT     C297444   1.981   8.915  22.135 -0.1682  0.4481  0.3179
48723OCT     C197445  13.145   4.313   0.015 -0.0018 -0.1035  0.0714
48723OCT     C297446  13.328   4.618  23.460 -0.1104 -0.1482  0.1821
48724OCT     C197447   3.176  10.048  21.890 -0.4295  0.2063 -0.0033
48724OCT     C297448   3.637   9.846  21.790  0.0209 -0.0888  0.1482
48725OCT     C197449   9.516  12.929  14.377 -0.0659  0.0860 -0.4201
48725OCT     C297450   9.668  12.894  13.907 -0.0118 -0.2921 -0.1694
48726OCT     C197451   0.171  22.638   8.608  0.0714  0.2631  0.4206
48726OCT     C297452   0.168  22.609   8.135 -0.1416  0.2027  0.2039
48727OCT     C197453  22.920  14.413   7.288 -0.0411 -0.2126  0.0376
48727OCT     C297454  23.197  14.643   6.941  0.0475  0.0615  0.1952
48728OCT     C197455  20.299  23.345  16.027 -0.1832 -0.0729 -0.0102
48728OCT     C297456  20.107  23.069  16.314 -0.2190 -0.2301  0.1989
48729OCT     C197457  17.740   3.726  22.147 -0.2085 -0.1505  0.0062
48729OCT     C297458  17.828   4.172  22.192  0.3305  0.0249  0.0826
48730OCT     C197459   0.415   7.373   4.567 -0.0279  0.0232  0.2320
48730OCT     C297460   0.523   7.727   4.803  0.2427 -0.1901 -0.0413
48731OCT     C197461  16.769   6.797   6.147 -0.0499  0.2799  0.0598
48731OCT     C297462  16.685   6.829   6.577  0.3542  0.0641 -0.1309
48732OCT     C197463   2.301  22.024  10.862  0.3003 -0.1101 -0.0254
48732OCT     C297464   2.422  22.194  10.411  0.0683 -0.0605 -0.1113
48733OCT     C197465  12.748   3.279  10.932 -0.0261  0.0845 -0.0010
48733OCT     C297466  13.055   2.917  10.961 -0.0135 -0.0112  0.2302
48734OCT     C197467  11.255  22.346  10.771  0.3329  0.2707  0.2047
48734OCT     C297468  11.202  22.271  11.237  0.1745 -0.0473  0.0264
48735OCT     C197469   0.842   8.434  18.650  0.1904 -0.1838  0.1250
48735OCT     C297470   0.404   8.454  18.487 -0.0673 -0.1764 -0.2737
48736OCT     C197471   4.223   5.792  18.909 -0.4141  0.0704 -0.2532
48736OCT     C297472   3.896   5.799  18.663  0.2204 -0.2859 -0.1868
48737OCT     C197473   6.900   3.115  18.337  0.0831 -0.1627 -0.2061
48737OCT     C297474   7.077   3.030  17.907  0.1440  0.0804 -0.1267
48738OCT     C197475   0.297   2.339  11.509  0.3536  0.2630  0.0397
48738OCT     C297476   0.093   2.636  11.829  0.1952 -0.1302  0.0244
48739OCT     C197477  19.745  12.897   8.266  0.4211  0.4057 -0.0760
48739OCT     C297478  19.530  13.100   8.614  0.1224  0.0413 -0.0290
48740OCT     C197479  21.518   3.096  19.364 -0.1222  0.0923 -0.1470
48740OCT     C297480  21.683   2.823  18.962  0.4194 -0.3010  0.1573
48741OCT     C197481   4.002   1.737   9.364 -0.0559  0.1235 -0.0103
48741OCT     C297482   3.733   1.960   9.673  0.0039 -0.2070  0.0772
48742OCT     C197483   9.352  23.030  19.948 -0.1589 -0.3440 -0.1976
48742OCT     C297484   9.717  22.994  19.703  0.3954  0.0357 -0.1698
48743OCT     C197485   4.711  17.786  22.710 -0.0147 -0.0531  0.0036
48743OCT     C297486   4.854  17.614  23.139  0.1600 -0.0875  0.0171
48744OCT     C197487   8.071   3.667   7.725 -0.0709 -0.0823  0.2303
48744OCT     C297488   7.925   3.296   7.903 -0.0013  0.0859  0.1397
48745OCT     C197489   4.203  21.942  15.634  0.5621  0.0144 -0.0865
48745OCT     C297490   3.996  21.514  15.703 -0.3165  0.2054  0.1914
48746OCT     C197491  13.484  12.369  14.744  0.0388  0.2105  0.3211
48746OCT     C297492  13.676  12.463  14.317 -0.0048 -0.4858  0.0845
48747OCT     C197493  17.929   1.575  17.902  0.2115 -0.0217 -0.0898
48747OCT     C297494  17.678   1.956  17.918  0.0312 -0.0535 -0.3359
48748OCT     C197495   1.012  15.407  17.975 -0.0100 -0.2760 -0.1959
48748OCT     C297496   1.361  15.250  17.699  0.1603 -0.0936 -0.4215
48749OCT     C197497   7.553   0.111  14.866  0.0513  0.2693  0.0717
48749OCT     C297498   7.584   0.533  14.670 -0.0595  0.0044  0.0678
48750OCT     C197499   5.040   3.749   2.071 -0.0494 -0.4538 -0.0059
48750OCT     C297500   5.134   3.347   2.318 -0.1501  0.1526  0.1053
48751OCT     C197501  16.326  14.315   2.111 -0.0645  0.2372  0.2098
48751OCT     C297502  16.375  13.833   2.141 -0.0678  0.1437 -0.2448
48752OCT     C197503  15.228  14.036  16.982  0.2354 -0.0556  0.0174
48752OCT     C297504  15.386  13.771  17.368 -0.1155 -0.1870 -0.1292
48753OCT     C197505  13.412   6.074  16.976 -0.2027  0.0123 -0.0997
48753OCT     C297506  13.077   6.280  17.284  0.0299 -0.0395 -0.1217
48754OCT     C197507   7.242   8.972  20.984 -0.0994 -0.0962  0.1071
48754OCT     C297508   6.998   8.747  21.339  0.1515  0.0604  0.2636
48755OCT     C197509   9.744   1.022   9.231 -0.0192  0.0582 -0.0798
48755OCT     C297510   9.425   0.724   9.069  0.1360 -0.0292  0.5014
48756OCT     C197511   9.436   6.180  19.798 -0.3367  0.2249  0.3010
48756OCT     C297512   9.593   6.490  19.472  0.1287  0.1386  0.0414
48757OCT     C197513   7.956   6.311  12.960 -0.0410  0.1172 -0.1482
48757OCT     C297514   8.219   6.657  12.720 -0.3431 -0.0368 -0.5289
48758OCT     C197515  20.343  10.293   2.211 -0.2526 -0.1678  0.0505
48758OCT     C297516  20.529   9.916   2.018  0.1092  0.1120  0.1745
48759OCT     C197517   9.235   9.309  20.487  0.2218  0.0782 -0.0993
48759OCT     C297518   9.398   9.676  20.298  0.2057  0.0201  0.1164
48760OCT     C197519  22.547  19.114   0.086 -0.0535 -0.1391 -0.1863
48760OCT     C297520  22.677  19.410   0.336 -0.0979  0.0445 -0.1094
48761OCT     C197521  21.771   1.593   6.356  0.1948  0.1652  0.0621
48761OCT     C297522  21.984   1.833   5.938 -0.1291  0.0370  0.0053
48762OCT     C197523  10.504  13.190  21.431 -0.1377 -0.0118 -0.0871
48762OCT     C297524  10.822  13.471  21.570  0.1846 -0.4088 -0.7043
48763OCT     C197525   6.803  21.849  12.352  0.0766  0.0087  0.3483
48763OCT     C297526   6.392  21.943  12.614 -0.1727 -0.0174 -0.6724
48764OCT     C197527   9.522  21.488  10.688  0.1698 -0.1549  0.3475
48764OCT     C297528   9.264  21.366  10.359  0.0901 -0.1345  0.3730
48765OCT     C197529   5.511   1.978  16.930  0.2036  0.1071  0.4475
48765OCT     C297530   5.929   2.057  16.677  0.3942  0.1279  0.0114
48766OCT     C197531   0.415  19.859  23.055 -0.1801 -0.1019  0.1215
48766OCT     C297532   0.241  19.677  22.643 -0.1923 -0.0026  0.0316
48767OCT     C197533  13.216   2.057   6.380  0.1373 -0.1676  0.1000
48767OCT     C297534  12.816   1.921   6.351  0.3598  0.1763  0.0379
48768OCT     C197535   5.631  23.092  23.701 -0.1500 -0.0551 -0.0184
48768OCT     C297536   5.425  23.591  23.604  0.2163  0.2332 -0.2257
48769OCT     C197537   1.662  16.856  23.437 -0.2492  0.3040  0.2123
48769OCT     C297538   1.767  16.471  23.593 -0.2765 -0.0985 -0.2477
48770OCT     C197539  14.791  21.368  13.772  0.2369 -0.1388  0.1386
48770OCT     C297540  14.748  21.727  13.510 -0.0898 -0.2898 -0.2317
48771OCT     C197541  16.447  15.076   9.192  0.2542  0.3692 -0.0699
48771OCT     C297542  16.347  15.339   8.813 -0.0582 -0.0644  0.0080
48772OCT     C197543   1.713  14.875   0.482  0.0169 -0.0483 -0.4996
48772OCT     C297544   1.839  14.430   0.558  0.0156 -0.2686 -0.2356
48773OCT     C197545  12.761   9.303  20.217 -0.0296 -0.2731 -0.1659
48773OCT     C297546  12.994   8.922  20.366 -0.5581  0.0376 -0.0893
48774OCT     C197547   8.201  12.211  14.959  0.0898 -0.2043 -0.1271
48774OCT     C297548   8.108  11.820  15.126  0.3557  0.2220  0.1204
48775OCT     C197549  13.614   5.065  14.796 -0.2777  0.1590  0.1232
48775OCT     C297550  13.909   5.333  15.096  0.1644  0.0622 -0.2176
48776OCT     C197551   4.099  10.871  16.425 -0.0103  0.3094  0.3078
48776OCT     C297552   4.511  11.024  16.351  0.1237 -0.1123 -0.3100
48777OCT     C197553  19.846  22.896  21.373  0.2156 -0.2025  0.0658
48777OCT     C297554  19.511  23.175  21.257  0.3439  0.0891  0.1261
48778OCT     C197555  12.771  19.659   3.687  0.0537  0.0748  0.2791
48778OCT     C297556  12.724  20.112   3.655 -0.0653 -0.2667  0.0472
48779OCT     C197557  15.530   6.317   4.431 -0.1220 -0.1449  0.4038
48779OCT     C297558  15.368   5.854   4.379 -0.1182  0.0852  0.2004
48780OCT     C197559   8.029   1.921   1.262  0.2722 -0.0010 -0.2900
48780OCT     C297560   8.337   1.845   0.915  0.1653  0.0423 -0.2031
48781OCT     C197561   8.782   7.107  12.632 -0.3783  0.0406  0.0033
48781OCT     C297562   8.689   7.573  12.794 -0.0150  0.1793  0.1869
48782OCT     C197563   6.081   7.134   3.947  0.0406  0.0648  0.1572
48782OCT     C297564   5.649   7.320   3.911  0.1353 -0.1717 -0.2949
48783OCT     C197565  20.035  10.303  21.753  0.1771 -0.1495 -0.2847
48783OCT     C297566  20.020   9.823  21.786  0.1957  0.0957  0.1961
48784OCT     C197567   9.685   3.575   3.277 -0.2198 -0.0561 -0.0695
48784OCT     C297568   9.717   3.759   3.706  0.2038 -0.0298 -0.1974
48785OCT     C197569  17.092   6.195  13.059 -0.0005  0.2564 -0.0705
48785OCT     C297570  17.401   5.859  12.924 -0.0193  0.2461  0.0194
48786OCT     C197571  18.555  16.898  17.511 -0.1958  0.0386  0.1623
48786OCT     C297572  18.347  17.307  17.442 -0.2250  0.0926  0.1613
48787OCT     C197573   6.174  15.893   0.217 -0.0523 -0.1127  0.0552
48787OCT     C297574   6.287  16.346   0.248  0.1854  0.0700  0.1309
48788OCT     C197575  23.165   5.639  21.271 -0.0206 -0.1240  0.0099
48788OCT     C297576  23.332   5.208  21.082 -0.1134  0.1820  0.1848
48789OCT     C197577  20.563   6.197   9.108  0.3206 -0.0555  0.1194
48789OCT     C297578  20.774   6.082   8.672 -0.3689 -0.1445 -0.0105
48790OCT     C197579  15.347  23.097  11.769 -0.4162 -0.2165  0.0266
48790OCT     C297580  15.335  23.588  11.627 -0.0596  0.2869 -0.0006
48791OCT     C197581   4.392  16.083  17.058 -0.1459  0.2556 -0.0757
48791OCT     C297582   4.292  16.262  17.469 -0.2238  0.0336  0.1156
48792OCT     C197583  17.676  22.688  19.804  0.1678  0.0649  0.2550
48792OCT     C297584  17.790  22.212  19.810 -0.0630  0.3196  0.0089
48793OCT     C197585  19.881  21.924  17.215  0.2630  0.0748 -0.3714
48793OCT     C297586  19.896  21.564  17.499  0.0522 -0.0802  0.0414
48794OCT     C197587  22.007   6.957  16.344 -0.2432 -0.2133 -0.0979
48794OCT     C297588  22.007   6.496  16.201  0.2452  0.0796 -0.3163
48795OCT     C197589  20.631  10.117  21.703  0.2299  0.2103 -0.0101
48795OCT     C297590  20.553   9.815  22.063  0.0596  0.1475 -0.0416
48796OCT     C197591  21.961  19.091  13.514  0.3518 -0.1219  0.2959
48796OCT     C297592  22.141  18.661  13.642  0.0300 -0.0416 -0.1003
48797OCT     C197593  14.464   4.033  13.636 -0.2946  0.0211  0.1691
48797OCT     C297594  14.760   4.059  13.932  0.4286  0.1960 -0.1613
48798OCT     C197595  18.177   4.061   6.723 -0.2310  0.2158 -0.1209
48798OCT     C297596  18.547   3.697   6.669 -0.2734 -0.1538  0.4273
48799OCT     C197597   9.706   8.674   1.224 -0.3098  0.0965 -0.0232
48799OCT     C297598   9.562   8.988   1.490  0.0323 -0.0681  0.1441
48800OCT     C197599   3.633  20.958   1.591  0.0380 -0.1762 -0.3171
48800OCT     C297600   4.003  21.263   1.461  0.0763 -0.0915  0.3640
48801OCT     C197601   9.494   8.508   7.145 -0.0982  0.0254  0.1713
48801OCT     C297602   9.832   8.778   7.361  0.0703  0.2848 -0.1799
48802OCT     C197603  16.329  15.970   1.648 -0.1969  0.1282  0.3072
48802OCT     C297604  16.597  16.171   1.899 -0.1340 -0.0604  0.1341
48803OCT     C197605   1.054  13.422   9.439 -0.0816 -0.1530 -0.0481
48803OCT     C297606   1.508  13.601   9.547  0.0966 -0.1389 -0.1011
48804OCT     C197607  13.307  14.656   2.211  0.3118  0.0327  0.0171
48804OCT     C297608  13.363  15.072   2.451  0.0444  0.1106 -0.3895
48805OCT     C197609  20.373   8.844   1.902 -0.1129  0.1848  0.1181
48805OCT     C297610  19.985   8.555   1.981 -0.1363  0.0136  0.1325
48806OCT     C197611   8.669  21.203  23.400  0.3150 -0.1689 -0.1680
48806OCT     C297612   8.741  21.366   0.078  0.0010  0.1864 -0.2666
48807OCT     C197613   9.593   2.142  21.411 -0.1109 -0.0823 -0.0855
48807OCT     C297614   9.336   1.738  21.583  0.1578  0.1071  0.1625
48808OCT     C197615  15.586  20.424  13.195 -0.1987  0.3154 -0.3975
48808OCT     C297616  15.209  20.130  13.172  0.0719 -0.4786  0.1329
48809OCT     C197617   5.417   8.229  10.279 -0.2039 -0.0113  0.1737
48809OCT     C297618   5.485   8.449  10.701  0.1481  0.0335 -0.1462
48810OCT     C197619   6.005  10.537  18.458 -0.0764  0.2104  0.4064
48810OCT     C297620   5.551  10.482  18.577 -0.1380 -0.2161  0.1376
48811OCT     C197621  19.190  21.871   7.429  0.0352 -0.2012 -0.0849
48811OCT     C297622  18.948  21.468   7.464  0.0352 -0.3439 -0.2394
48812OCT     C197623  23.706  19.589   1.228 -0.1602 -0.0246 -0.0123
48812OCT     C297624  23.642  19.682   0.793  0.1058 -0.1194 -0.0465
48813OCT     C197625  11.138   6.522   2.994 -0.2377  0.0946  0.1235
48813OCT     C297626  10.875   6.866   2.725 -0.0081 -0.1348 -0.2605
48814OCT     C197627  13.843   9.603   8.193  0.1450 -0.1341 -0.0119
48814OCT     C297628  14.249   9.465   8.246  0.2523 -0.0967 -0.0289
48815OCT     C197629   7.894  12.349   6.739  0.0260  0.0299  0.0566
48815OCT     C297630   8.286  12.137   6.612  0.1345  0.1389 -0.0122
48816OCT     C197631  12.078   4.637  20.266 -0.2915 -0.1840  0.2544
48816OCT     C297632  12.491   4.815  20.270 -0.3456  0.1507  0.3409
48817OCT     C197633   9.633  18.511  11.810  0.2517 -0.1525  0.0470
48817OCT     C297634   9.171  18.418  11.864 -0.2029 -0.1060  0.3941
48818OCT     C197635   8.747   5.535   8.170 -0.1750  0.1063 -0.1588
48818OCT     C297636   8.754   5.492   8.630 -0.3342 -0.1401  0.2229
48819OCT     C197637   9.462  18.509  17.909  0.2731 -0.1921 -0.3889
48819OCT     C297638   9.568  18.474  18.367  0.0705 -0.2770 -0.0750
48820OCT     C197639   1.815  23.494   2.852  0.1687 -0.0890 -0.1168
48820OCT     C297640   2.141  23.230   2.600  0.3892 -0.0646 -0.0672
48821OCT     C197641  21.724   0.956  22.596 -0.1525 -0.1773  0.0222
48821OCT     C297642  21.478   0.650  22.869 -0.4519  0.0561 -0.1015
48822OCT     C197643  12.727  16.028  18.085  0.1588 -0.3806 -0.1186
48822OCT     C297644  12.810  16.335  18.433 -0.0243 -0.2301 -0.2138
48823OCT     C197645  22.745   0.521  20.143 -0.0309  0.1579 -0.0249
48823OCT     C297646  23.222   0.671  20.165  0.3502 -0.0674  0.2641
48824OCT     C197647   1.912  11.771   6.198  0.1038  0.2025  0.1127
48824OCT     C297648   1.655  11.767   5.763  0.0679 -0.2643 -0.2094
48825OCT     C197649   4.099  11.714   8.639 -0.1831  0.0493 -0.1307
48825OCT     C297650   4.352  11.475   8.336  0.2615  0.1215  0.2390
48826OCT     C197651   5.372   2.190  20.938 -0.3499  0.2841  0.1761
48826OCT     C297652   5.814   2.261  20.931  0.2807  0.2088  0.0502
48827OCT     C197653  14.986   7.530   9.846 -0.2064  0.0755 -0.1036
48827OCT     C297654  15.048   7.767   9.408 -0.1876  0.1265  0.1410
48828OCT     C197655  11.402  15.990  15.942  0.2105 -0.0934  0.1901
48828OCT     C297656  11.726  15.704  15.884 -0.1015 -0.2901  0.0011
48829OCT     C197657   6.023  15.853  20.813 -0.0081  0.3294  0.0240
48829OCT     C297658   5.680  15.535  20.878  0.0342 -0.0896  0.0818
48830OCT     C197659  21.293   0.343   8.793  0.4084  0.0963 -0.1911
48830OCT     C297660  21.748   0.246   8.721 -0.1399 -0.2675 -0.0420
48831OCT     C197661   3.753   5.879  21.189 -0.3044  0.4499 -0.0589
48831OCT     C297662   3.644   5.474  21.039 -0.1536  0.1770 -0.3403
48832OCT     C197663   1.898   1.451  17.075 -0.0208 -0.2530 -0.0024
48832OCT     C297664   2.189   1.822  17.026  0.3476  0.1283  0.3823
48833OCT     C197665  18.192  10.513   5.300 -0.1656  0.0723 -0.4737
48833OCT     C297666  17.884  10.499   5.657 -0.1334 -0.1459  0.1710
48834OCT     C197667   6.159  18.821   1.993  0.1928 -0.2839 -0.1126
48834OCT     C297668   5.723  18.890   2.164 -0.3650  0.0724  0.2434
48835OCT     C197669  15.013  14.106   6.501 -0.4269  0.1158  0.1054
48835OCT     C297670  14.795  13.891   6.852  0.1242  0.0604 -0.0702
48836OCT     C197671   2.492   7.669  23.560 -0.1459 -0.2474 -0.0861
48836OCT     C297672   2.451   7.492  23.131  0.0518  0.1879 -0.2966
48837OCT     C197673  22.626  11.492  15.304 -0.1800 -0.0867  0.2158
48837OCT     C297674  22.946  11.617  15.627  0.1532  0.2458  0.0200
48838OCT     C197675  19.657   5.637  20.720 -0.0894  0.3272 -0.3532
48838OCT     C297676  19.883   6.069  20.846 -0.0736 -0.0628  0.1973
48839OCT     C197677  16.210  15.512  11.053 -0.1004 -0.1338  0.2379
48839OCT     C297678  16.139  15.013  11.119 -0.1924  0.2100 -0.0055
48840OCT     C197679  15.431   6.859  13.654 -0.2061 -0.0228  0.1618
48840OCT     C297680  15.842   6.812  13.542  0.1229 -0.0763 -0.0885
48841OCT     C197681   8.397  13.019  15.152  0.1426  0.0000  0.1348
48841OCT     C297682   8.747  12.801  15.430  0.2928  0.0036  0.2285
48842OCT     C197683  20.519  14.120  20.718  0.2888 -0.1249 -0.0067
48842OCT     C297684  20.668  13.820  20.886 -0.0466  0.0654 -0.2120
48843OCT     C197685   0.397  11.574  22.077 -0.0328 -0.2107  0.2898
48843OCT     C297686   0.012  11.638  22.333 -0.4043 -0.1808 -0.2751
48844OCT     C197687  11.990   6.719   4.519 -0.0575  0.2870 -0.2317
48844OCT     C297688  12.391   6.624   4.788  0.3633 -0.0136 -0.0923
48845OCT     C197689  21.862  21.045  23.443 -0.2030 -0.0439  0.1948
48845OCT     C297690  21.934  21.496  23.472  0.2236 -0.2900  0.0903
48846OCT     C197691   5.117  10.598   1.238  0.0524 -0.4640  0.0553
48846OCT     C297692   5.007  10.315   0.917  0.0655 -0.0746 -0.0389
48847OCT     C197693  18.128  17.877   2.035 -0.2021  0.2598  0.0017
48847OCT     C297694  18.413  17.527   1.871  0.2587 -0.0631 -0.4559
48848OCT     C197695   1.158   8.374   5.654  0.1984  0.0583  0.1271
48848OCT     C297696   1.561   8.203   5.649 -0.2397  0.2998  0.1056
48849OCT     C197697  15.889   9.102  17.356  0.2887 -0.3243 -0.1513
48849OCT     C297698  15.923   8.676  17.343 -0.3342  0.1942 -0.0228
48850OCT     C197699  10.287  21.722  23.331  0.1636  0.1119  0.3319
48850OCT     C297700  10.236  21.419  23.665  0.0348 -0.2538  0.1151
48851OCT     C197701   6.433  18.726   7.027  0.1242  0.1362  0.2355
48851OCT     C297702   6.808  18.675   6.735  0.2548  0.3093 -0.1157
48852OCT     C197703  10.046  23.580  10.644  0.0399 -0.1364 -0.0247
48852OCT     C297704   9.696   0.153  10.725  0.1175 -0.0892  0.0679
48853OCT     C197705   9.395   1.342   3.796  0.1500  0.1979  0.0284
48853OCT     C297706   9.755   1.522   4.004  0.0028 -0.1243 -0.1360
48854OCT     C197707  15.914  22.758   8.561 -0.0369 -0.2222  0.2176
48854OCT     C297708  15.574  22.588   8.302  0.0902  0.2059  0.0922
48855OCT     C197709  16.673  15.684   1.918  0.1802 -0.0744 -0.0291
48855OCT     C297710  17.108  15.726   1.937  0.1035  0.0687 -0.0327
48856OCT     C197711  19.237  23.526  15.586 -0.3310 -0.0935  0.4222
48856OCT     C297712  18.933  23.314  15.893  0.0016  0.0418  0.1306
48857OCT     C197713  19.600   8.165   9.104  0.1233  0.0099  0.0147
48857OCT     C297714  19.952   8.433   8.984  0.2110 -0.1811 -0.0109
48858OCT     C197715   9.442  18.611  21.734 -0.0903 -0.0944  0.0391
48858OCT     C297716   9.250  18.965  21.871  0.1612  0.0708  0.0125
48859OCT     C197717  13.676  10.519   9.264  0.0104  0.1918 -0.1395
48859OCT     C297718  13.762  10.919   9.470  0.0113 -0.1523  0.3905
48860OCT     C197719   6.556  11.635  18.086  0.0857 -0.7478  0.0896
48860OCT     C297720   6.264  11.516  18.436 -0.1677  0.0471 -0.1521
48861OCT     C197721   8.037  13.831  18.243 -0.2399 -0.3365  0.1101
48861OCT     C297722   8.349  14.050  18.485 -0.1575  0.1676 -0.0532
48862OCT     C197723  18.596  19.048   6.204  0.2694  0.2840  0.0629
48862OCT     C297724  18.221  19.164   5.946  0.0950 -0.0261 -0.0959
48863OCT     C197725  11.724  13.293   6.367  0.0108  0.1703  0.0852
48863OCT     C297726  11.750  13.321   6.858  0.2152 -0.1357 -0.1552
48864OCT     C197727  22.743   5.295   7.300  0.4527  0.3391 -0.0081
48864OCT     C297728  22.718   4.896   7.012  0.1551  0.1781  0.0249
48865OCT     C197729   8.308  22.969  20.161  0.0250  0.1212 -0.2523
48865OCT     C297730   7.858  22.868  19.961 -0.0364 -0.2058  0.0051
48866OCT     C197731   1.995  12.251   9.659 -0.0118  0.0499  0.1544
48866OCT     C297732   2.473  12.209   9.569 -0.0367 -0.2451  0.1122
48867OCT     C197733   2.306   8.250   9.210  0.0295  0.0091  0.1552
48867OCT     C297734   2.130   8.535   9.523 -0.4246 -0.2219 -0.1529
48868OCT     C197735   8.160   5.114   5.783 -0.2663 -0.1971 -0.0788
48868OCT     C297736   8.489   5.239   5.539  0.5631  0.1341  0.1080
48869OCT     C197737  10.933  11.688  22.124 -0.0883  0.1981  0.1045
48869OCT     C297738  10.748  11.658  22.609 -0.0791 -0.5776  0.3250
48870OCT     C197739   6.058   7.336  23.238 -0.0317 -0.1738  0.0258
48870OCT     C297740   6.418   7.360  23.578  0.2998  0.0643  0.1883
48871OCT     C197741  20.527   2.320  19.329  0.1207 -0.1442 -0.2747
48871OCT     C297742  20.417   1.964  19.604  0.0818  0.2101  0.1017
48872OCT     C197743  15.436  16.122   2.633 -0.0028  0.2892  0.0228
48872OCT     C297744  15.447  15.709   2.832 -0.0762  0.1425 -0.0162
48873OCT     C197745   6.994  18.349  20.801 -0.0061 -0.0895 -0.1229
48873OCT     C297746   7.387  18.355  20.534 -0.0593  0.1518 -0.3036
48874OCT     C197747  14.225  19.152  10.296 -0.0877  0.3396 -0.1437
48874OCT     C297748  14.565  19.439  10.327  0.1294 -0.1057 -0.3377
48875OCT     C197749  11.837   9.518  15.078 -0.3341  0.0485  0.3755
48875OCT     C297750  11.630   9.189  15.385 -0.2512 -0.4127  0.2530
48876OCT     C197751  23.264  22.474  16.561  0.1602 -0.1634  0.2257
48876OCT     C297752  23.639  22.695  16.624 -0.1314  0.0588 -0.2004
48877OCT     C197753   5.299   2.758  15.862 -0.1230 -0.0292 -0.0983
48877OCT     C297754   5.593   2.580  15.524  0.1517  0.3598  0.4529
48878OCT     C197755   8.242  22.909   4.240 -0.2327  0.4904 -0.2157
48878OCT     C297756   8.551  23.114   4.012  0.1007  0.1140  0.0013
48879OCT     C197757   1.127   8.840  21.351 -0.1276  0.1105 -0.3213
48879OCT     C297758   0.674   8.888  21.231  0.0727  0.3881 -0.0033
48880OCT     C197759   1.234   7.806   3.971 -0.3184 -0.0982 -0.1520
48880OCT     C297760   1.413   7.980   4.364 -0.3879 -0.0703 -0.0521
48881OCT     C197761  20.867  18.519  12.967  0.1248  0.2147 -0.0388
48881OCT     C297762  20.635  18.535  12.572 -0.0802 -0.1777  0.1909
48882OCT     C197763  21.434  11.305   8.266 -0.0560 -0.1911 -0.1896
48882OCT     C297764  21.054  11.555   8.081  0.1762 -0.0795 -0.0618
48883OCT     C197765  18.173  21.312   5.779 -0.0384 -0.1661  0.1303
48883OCT     C297766  18.303  21.250   5.305 -0.0253  0.1920  0.0799
48884OCT     C197767  13.936   7.114  22.673  0.0382 -0.0244 -0.1006
48884OCT     C297768  13.987   7.260  22.226  0.2360  0.0418  0.2488
48885OCT     C197769  10.025  13.505   0.422  0.0797 -0.3123  0.1854
48885OCT     C297770  10.282  13.866   0.283  0.1414  0.0853 -0.0522
48886OCT     C197771   2.014   5.713  21.460 -0.0415 -0.0674 -0.0674
48886OCT     C297772   1.693   5.497  21.205  0.3795 -0.0901 -0.1380
48887OCT     C197773  17.364  14.569  11.581 -0.3071  0.2770  0.0395
48887OCT     C297774  17.520  14.184  11.653 -0.2336 -0.0617 -0.1449
48888OCT     C197775   0.177  12.160  11.147  0.1726 -0.3174  0.1212
48888OCT     C297776  23.513  11.967  11.064 -0.0924 -0.2082  0.0272
48889OCT     C197777  16.803   3.975  17.693  0.4507  0.0936  0.1575
48889OCT     C297778  16.617   3.623  17.985  0.1075  0.1641  0.3084
48890OCT     C197779  10.313   0.151   6.929 -0.2880 -0.1186 -0.0079
48890OCT     C297780  10.170   0.610   6.821 -0.1988 -0.2692  0.1958
48891OCT     C197781  10.387  17.918   3.459 -0.0465 -0.1272 -0.1101
48891OCT     C297782  10.464  18.305   3.156  0.2406 -0.0878  0.3601
48892OCT     C197783  15.059   1.232   2.252 -0.1418 -0.0802  0.2918
48892OCT     C297784  14.860   1.441   1.894 -0.0691  0.1086 -0.0996
48893OCT     C197785  13.598  18.336  13.850  0.1467 -0.3553  0.2375
48893OCT     C297786  13.659  17.837  14.004 -0.0370 -0.3550 -0.1710
48894OCT     C197787  22.410  14.825  21.993 -0.1726 -0.1129  0.0214
48894OCT     C297788  22.108  14.771  22.364 -0.0310  0.1341  0.1105
48895OCT     C197789   6.798  10.831   0.052  0.1721  0.0327  0.1280
48895OCT     C297790   7.151  10.924  23.484  0.2378  0.0869  0.0455
48896OCT     C197791  22.402   2.809   6.935  0.0963  0.1067 -0.2868
48896OCT     C297792  22.236   2.444   6.625  0.1304 -0.1553  0.1776
48897OCT     C197793  20.873  15.628  17.682 -0.3395  0.0277  0.0074
48897OCT     C297794  21.201  15.429  17.362  0.2677 -0.1546  0.1045
48898OCT     C197795  17.528   6.264  10.216 -0.2818 -0.1772  0.2290
48898OCT     C297796  17.792   5.862  10.128  0.3124 -0.2106  0.0089
48899OCT     C197797  17.358  21.192  18.374 -0.0508  0.2106 -0.2655
48899OCT     C297798  17.741  21.130  18.697  0.0418  0.0324  0.0474
48900OCT     C197799   3.389   0.957   4.462  0.0480  0.1697 -0.0496
48900OCT     C297800   3.626   0.806   4.851 -0.2260 -0.3146 -0.0556
48901OCT     C197801   2.718   0.784  21.352  0.3387 -0.0124 -0.0643
48901OCT     C297802   2.872   0.315  21.387  0.3022 -0.1069  0.0195
48902OCT     C197803  13.509  19.147   3.213 -0.0721  0.2363 -0.0098
48902OCT     C297804  13.000  19.242   3.332  0.1096 -0.0710  0.3390
48903OCT     C197805  17.797  23.173   8.008  0.0399 -0.0293  0.2720
48903OCT     C297806  17.446  22.928   7.783 -0.0574 -0.0436  0.4763
48904OCT     C197807  19.764   8.223   5.186  0.5443 -0.3254  0.0964
48904OCT     C297808  19.623   7.948   5.520  0.0438 -0.2891  0.0836
48905OCT     C197809  19.418  17.629   8.185  0.0598  0.1080  0.1251
48905OCT     C297810  19.204  17.864   8.520 -0.0357  0.1250 -0.0341
48906OCT     C197811   7.541  18.318   0.586 -0.1186  0.0246 -0.0882
48906OCT     C297812   7.659  18.432   0.150 -0.0890  0.2157  0.1390
48907OCT     C197813  22.792  13.806   4.911  0.1025 -0.0557 -0.3904
48907OCT     C297814  23.056  14.071   5.104  0.2662  0.0717 -0.1975
48908OCT     C197815   5.423  19.762  16.999  0.1079  0.1237  0.0562
48908OCT     C297816   5.375  20.151  16.755  0.1503 -0.0218  0.2933
48909OCT     C197817   5.170   7.184   4.821 -0.0492 -0.3067  0.1620
48909OCT     C297818   5.037   6.714   5.048 -0.0746 -0.0579 -0.0269
48910OCT     C197819  13.825   6.842   7.001  0.3048  0.0264 -0.2312
48910OCT     C297820  13.904   7.146   7.387  0.1466  0.1537  0.0711
48911OCT     C197821   0.297  12.985  17.924 -0.1677  0.2438 -0.2339
48911OCT     C297822   0.716  13.141  17.837 -0.1476 -0.4151  0.1332
48912OCT     C197823  16.241  22.360   5.477 -0.3429 -0.0024 -0.1278
48912OCT     C297824  16.027  22.067   5.190 -0.2093  0.2106 -0.0729
48913OCT     C197825   6.505   8.634  21.092  0.2584 -0.2813  0.0843
48913OCT     C297826   6.362   8.230  21.206 -0.1520 -0.0434  0.2329
48914OCT     C197827   5.032   2.943  17.532 -0.1159 -0.0009 -0.0422
48914OCT     C297828   4.571   3.128  17.664 -0.3013 -0.1679 -0.1372
48915OCT     C197829  20.416  19.493  15.255 -0.0385 -0.2636  0.0724
48915OCT     C297830  20.889  19.544  15.254  0.4292  0.0744 -0.0587
48916OCT     C197831  22.214   4.357  23.321 -0.0925 -0.0425 -0.1162
48916OCT     C297832  21.878   4.210  23.023 -0.0432  0.0358  0.0786
48917OCT     C197833   5.962  17.408  11.337 -0.2552  0.1195 -0.3758
48917OCT     C297834   6.399  17.534  11.112  0.3882 -0.0015  0.4031
48918OCT     C197835  10.309  21.332  23.052  0.1311 -0.0074  0.1153
48918OCT     C297836  10.662  21.314  23.308 -0.0078  0.3030  0.0996
48919OCT     C197837  13.816  14.514   7.671 -0.1340  0.5470 -0.1162
48919OCT     C297838  13.804  14.058   7.518 -0.2282  0.0418  0.3906
48920OCT     C197839  21.097   2.370   5.123 -0.2319 -0.1854  0.0636
48920OCT     C297840  21.379   2.268   4.724 -0.0880  0.1077 -0.1639
48921OCT     C197841  14.140   7.119  16.475  0.1907 -0.2087 -0.3912
48921OCT     C297842  14.343   7.482  16.705  0.2287 -0.2813  0.3157
48922OCT     C197843  21.619   3.816   1.639  0.0023 -0.2516 -0.1974
48922OCT     C297844  21.964   3.960   1.369 -0.1694  0.1387  0.5047
48923OCT     C197845  19.157   3.619  10.195  0.2018 -0.5324  0.1590
48923OCT     C297846  19.166   3.918   9.830 -0.2670  0.3797  0.0627
48924OCT     C197847   2.603  11.165  12.951 -0.2489 -0.1032  0.0278
48924OCT     C297848   2.891  11.304  12.560 -0.0907  0.2241 -0.0658
48925OCT     C197849   2.289   1.519  18.289  0.1403  0.0508 -0.1124
48925OCT     C297850   2.451   1.272  17.939  0.1138 -0.1212  0.2171
48926OCT     C197851   6.401  18.049  14.264  0.3941  0.0047 -0.0555
48926OCT     C297852   6.194  17.730  14.011 -0.1732  0.2091 -0.0487
48927OCT     C197853  18.212  22.390  12.801 -0.2040 -0.0961 -0.2451
48927OCT     C297854  18.251  22.147  12.444 -0.1049  0.1104  0.1255
48928OCT     C197855   8.613   5.125  22.683  0.0061  0.0979  0.1066
48928OCT     C297856   8.514   5.553  22.837 -0.1460  0.1634  0.1426
48929OCT     C197857  21.971  12.239  21.719  0.0637 -0.1635  0.1343
48929OCT     C297858  22.050  12.376  22.178  0.0694  0.0750 -0.1775
48930OCT     C197859  17.748  22.391  11.924 -0.0993  0.1471  0.4299
48930OCT     C297860  17.737  22.402  12.353 -0.1879 -0.3548  0.0975
48931OCT     C197861   9.254   6.301   3.336 -0.0565  0.4579  0.1420
48931OCT     C297862   9.465   6.538   3.027 -0.2667 -0.0288 -0.2525
48932OCT     C197863  16.257  21.436   6.616 -0.3008 -0.2512  0.0272
48932OCT     C297864  16.338  21.661   7.031 -0.1926 -0.1511 -0.2291
48933OCT     C197865   0.336   0.119  15.422 -0.0061  0.0003  0.2205
48933OCT     C297866   0.554   0.567  15.510 -0.4775 -0.0547  0.1210
48934OCT     C197867  18.111   5.909  22.745 -0.1163  0.1400 -0.4034
48934OCT     C297868  18.279   6.108  23.119 -0.2191 -0.2913  0.0348
48935OCT     C197869   5.465   5.414  19.205  0.1188 -0.0775  0.2756
48935OCT     C297870   5.220   5.120  18.945  0.3123 -0.1010 -0.0510
48936OCT     C197871  17.101  12.296  10.210 -0.2786  0.0646 -0.0820
48936OCT     C297872  17.158  12.623  10.552 -0.4326  0.1362 -0.0561
48937OCT     C197873   3.590  12.712  22.303 -0.2295 -0.1101 -0.0360
48937OCT     C297874   3.911  12.835  22.625 -0.0915 -0.0482 -0.3298
48938OCT     C197875  12.459  10.830  23.556  0.2628  0.0261  0.0238
48938OCT     C297876  12.921  10.655  23.600  0.3637  0.1177  0.5386
48939OCT     C197877  10.250   2.556   8.352  0.0161 -0.1385 -0.3549
48939OCT     C297878  10.304   2.330   7.960  0.1729  0.1251 -0.1924
48940OCT     C197879   3.124  14.588  11.984 -0.0549 -0.2707  0.3777
48940OCT     C297880   2.970  15.083  12.041  0.0807  0.0249  0.0354
48941OCT     C197881   2.292   7.106  16.596  0.2403  0.1309  0.2782
48941OCT     C297882   2.572   7.480  16.831  0.2590 -0.0547  0.3156
48942OCT     C197883   7.391  23.051   5.277  0.0175  0.0506 -0.2734
48942OCT     C297884   7.104  23.321   5.505  0.1564  0.1318 -0.5160
48943OCT     C197885  18.599   4.232  21.618  0.4384 -0.0011  0.1253
48943OCT     C297886  18.963   4.400  21.440  0.1861  0.0490 -0.2618
48944OCT     C197887   4.072  21.535  19.257  0.2763  0.1072 -0.0478
48944OCT     C297888   3.834  21.161  19.169  0.0618  0.1651 -0.0514
48945OCT     C197889   8.025   9.040   3.744 -0.0769  0.0267  0.0597
48945OCT     C297890   8.307   9.222   3.418  0.0352  0.0577  0.1312
48946OCT     C197891  16.982  14.055   8.698  0.0545 -0.0487 -0.1065
48946OCT     C297892  17.121  14.454   8.440  0.0297  0.0008 -0.0425
48947OCT     C197893  20.694  10.954  13.065  0.0381  0.2358 -0.4411
48947OCT     C297894  21.119  10.930  12.910  0.1513 -0.0717  0.4609
48948OCT     C197895  12.466  16.353  15.703 -0.0037  0.4198  0.1482
48948OCT     C297896  12.517  15.924  15.660  0.1455 -0.0699 -0.0068
48949OCT     C197897   6.028   6.854   5.022  0.1812 -0.1887  0.3426
48949OCT     C297898   5.673   7.113   4.926 -0.0483 -0.0214 -0.0793
48950OCT     C197899  22.509   1.969  18.350 -0.4347 -0.2034 -0.0882
48950OCT     C297900  22.233   1.978  17.982 -0.0631  0.0710 -0.0962
48951OCT     C197901   2.983  17.218  13.081  0.1722  0.0849 -0.0485
48951OCT     C297902   2.841  17.029  13.519  0.0460  0.4782 -0.1628
48952OCT     C197903  21.750  22.568   6.374 -0.0654  0.2042  0.1283
48952OCT     C297904  21.552  22.999   6.309 -0.1095  0.0093  0.4098
48953OCT     C197905   4.769  21.209  11.821 -0.1939  0.0748  0.1936
48953OCT     C297906   5.192  21.392  11.917  0.0161  0.1278 -0.2225
48954OCT     C197907  17.709  21.224  20.016 -0.2015 -0.0198  0.0718
48954OCT     C297908  17.322  21.234  19.779 -0.0854 -0.0998 -0.0034
48955OCT     C197909  11.196   2.136   2.554 -0.1321 -0.1347 -0.0537
48955OCT     C297910  11.328   1.817   2.863  0.0080 -0.0079  0.4219
48956OCT     C197911  12.986   4.425  15.804  0.0209  0.1464  0.3779
48956OCT     C297912  13.393   4.171  15.950  0.4611  0.1037  0.0040
48957OCT     C197913  21.817  22.464   5.275  0.0907 -0.2570 -0.2893
48957OCT     C297914  22.155  22.551   5.591 -0.0280  0.1565  0.0888
48958OCT     C197915  16.275  11.342  18.750  0.0378  0.1568  0.1512
48958OCT     C297916  16.326  11.475  19.200  0.2705  0.2130 -0.2620
48959OCT     C197917  18.461   7.596  15.011  0.2114  0.2536 -0.0364
48959OCT     C297918  18.731   7.673  15.389  0.0829 -0.0919 -0.3840
48960OCT     C197919   2.110  18.158  16.053  0.0608 -0.1246 -0.1394
48960OCT     C297920   2.234  18.261  16.503  0.2849  0.2244  0.0323
48961OCT     C197921  20.546  21.727  13.055 -0.2308  0.3061  0.2907
48961OCT     C297922  20.094  21.855  13.081  0.2500  0.3244  0.2062
48962OCT     C197923   9.847   7.345  19.790  0.4425 -0.1849 -0.2957
48962OCT     C297924  10.279   7.596  19.756  0.0369  0.1876  0.0640
48963OCT     C197925  19.737  18.356   7.892 -0.1898  0.2377  0.2162
48963OCT     C297926  19.529  18.118   8.275  0.0329  0.4052  0.3062
48964OCT     C197927  11.398  18.312  22.700 -0.0750 -0.0583 -0.0047
48964OCT     C297928  11.136  18.113  22.929  0.1892  0.4700  0.0955
48965OCT     C197929   2.343   7.151  20.070 -0.1576 -0.4344  0.0750
48965OCT     C297930   2.094   7.359  20.388 -0.1491  0.1208  0.0478
48966OCT     C197931   9.764  17.690  16.072 -0.1020  0.0575 -0.1093
48966OCT     C297932   9.830  17.692  16.598  0.1184  0.1131 -0.1461
48967OCT     C197933   0.093  17.395   1.561  0.4681  0.2371 -0.6343
48967OCT     C297934   0.555  17.240   1.605 -0.1510  0.2040  0.1379
48968OCT     C197935  15.234  13.247  19.284 -0.2970 -0.0869  0.2644
48968OCT     C297936  14.958  13.089  18.865  0.0233 -0.0362 -0.0563
48969OCT     C197937   8.595   6.447   7.813 -0.0655 -0.1217  0.1690
48969OCT     C297938   8.649   6.496   8.266  0.1425  0.1495  0.1338
48970OCT     C197939  11.484   0.493  22.271  0.0104 -0.0987  0.0132
48970OCT     C297940  11.192   0.476  21.931 -0.3059  0.0169 -0.1677
48971OCT     C197941  22.896  11.497  17.718 -0.2726 -0.2837 -0.2372
48971OCT     C297942  22.597  11.794  17.504 -0.0392 -0.2531 -0.0420
48972OCT     C197943  22.748   7.758  13.197  0.1168  0.1415 -0.0909
48972OCT     C297944  22.644   8.179  13.360  0.0141 -0.2341  0.0857
48973OCT     C197945   5.346   0.932   9.822 -0.0746 -0.1463  0.2387
48973OCT     C297946   5.051   0.748   9.540  0.2203 -0.1446 -0.0481
48974OCT     C197947   8.960  11.503  21.854  0.2696  0.0062  0.3766
48974OCT     C297948   9.088  11.625  22.278  0.1125  0.0985  0.0080
48975OCT     C197949  12.611  15.245   7.718  0.0999 -0.0455  0.1896
48975OCT     C297950  12.584  14.818   7.587 -0.4419 -0.1376 -0.0679
48976OCT     C197951   7.954  22.953   3.684 -0.1593  0.4285  0.1168
48976OCT     C297952   8.363  23.161   3.562  0.0483 -0.4314  0.0585
48977OCT     C197953   3.412  10.193   9.488  0.1712  0.1951  0.0093
48977OCT     C297954   2.993  10.140   9.331 -0.1714 -0.2315  0.0475
48978OCT     C197955   3.275   6.591   8.625  0.1960 -0.0549 -0.1925
48978OCT     C297956   3.287   6.676   8.218 -0.3827  0.0779  0.1576
48979OCT     C197957  10.703   0.798  15.834  0.2141  0.1017  0.3524
48979OCT     C297958  10.823   0.972  15.384  0.2589  0.0465 -0.1459
48980OCT     C197959   7.533  15.247  19.597  0.4159 -0.3148 -0.1110
48980OCT     C297960   7.132  15.418  19.783 -0.2229  0.1064 -0.4033
48981OCT     C197961   7.743  10.696  17.537 -0.0074  0.0701  0.2306
48981OCT     C297962   8.046  10.445  17.731 -0.1450 -0.5380 -0.0705
48982OCT     C197963   1.503  17.374  23.691 -0.3885 -0.0766 -0.1160
48982OCT     C297964   1.838  17.589  23.454  0.1753 -0.1426 -0.4987
48983OCT     C197965   6.728  11.171   9.023  0.1903 -0.0979 -0.2357
48983OCT     C297966   6.743  11.638   9.103 -0.0790 -0.3749  0.1032
48984OCT     C197967  11.425  19.368   2.839  0.0289 -0.2630 -0.0886
48984OCT     C297968  11.596  19.062   3.126  0.2439 -0.0480 -0.0041
48985OCT     C197969  22.518  21.036  21.764 -0.0289  0.1493 -0.3112
48985OCT     C297970  22.823  20.663  21.805  0.1546  0.1100 -0.1299
48986OCT     C197971  15.860  17.796  19.830 -0.2173 -0.0317 -0.0391
48986OCT     C297972  16.242  17.558  19.704 -0.1440 -0.0729  0.1217
48987OCT     C197973  13.531  18.926   3.652 -0.0945 -0.1089 -0.1629
48987OCT     C297974  13.041  18.821   3.743  0.1940 -0.2438 -0.0264
48988OCT     C197975  23.656  10.649   7.839 -0.2774 -0.1564  0.2223
48988OCT     C297976  23.251  10.783   7.628  0.1052 -0.1661  0.0565
48989OCT     C197977  22.122  21.643   9.344 -0.0936 -0.1632  0.1172
48989OCT     C297978  21.866  21.941   9.618  0.0933  0.0479 -0.1158
48990OCT     C197979   6.945   9.084  10.091 -0.4308  0.2893  0.1155
48990OCT     C297980   6.986   8.752  10.500 -0.1877 -0.1377 -0.0587
48991OCT     C197981   8.488  16.910  17.486 -0.2326 -0.0343 -0.2029
48991OCT     C297982   8.650  16.503  17.487 -0.0317 -0.3434 -0.1873
48992OCT     C197983  14.782   2.196  14.007  0.0370  0.0836  0.1868
48992OCT     C297984  15.192   2.272  14.198 -0.1023  0.0876  0.0847
48993OCT     C197985  22.404  10.886   6.211  0.2101 -0.0689  0.0209
48993OCT     C297986  22.550  11.326   6.111 -0.6067  0.2150  0.0609
48994OCT     C197987  13.373  14.522  17.805  0.3453  0.0027 -0.0570
48994OCT     C297988  13.246  14.258  18.189 -0.4525  0.1256 -0.0551
48995OCT     C197989   1.477   5.440   1.703 -0.1554  0.1040 -0.1366
48995OCT     C297990   1.663   5.792   1.836 -0.0710 -0.5844 -0.2150
48996OCT     C197991   3.575   1.879   4.795  0.2069 -0.1242 -0.3403
48996OCT     C297992   3.454   1.987   4.409 -0.2162 -0.1074 -0.2175
48997OCT     C197993   2.111  19.339   5.324 -0.0677 -0.3224 -0.0576
48997OCT     C297994   2.360  19.286   4.902 -0.0175  0.4111  0.4446
48998OCT     C197995   5.007  17.119  15.503 -0.2220 -0.1290  0.3570
48998OCT     C297996   5.300  17.175  15.892 -0.0207  0.1579  0.2001
48999OCT     C197997  23.257  15.188   6.937 -0.0188  0.2177 -0.0461
48999OCT     C297998  23.569  15.166   7.262 -0.0217  0.1104 -0.2622
49000OCT     C197999   8.035   3.840   1.248 -0.3915  0.1980  0.1813
49000OCT     C298000   7.642   3.753   1.435  0.1983 -0.2126  0.2576
49001OCT     C198001   6.681  15.769   5.821 -0.1755 -0.0156 -0.1132
49001OCT     C298002   6.291  15.738   5.597 -0.1669 -0.0212  0.0875
49002OCT     C198003  13.923  15.909  17.537  0.2927  0.0125  0.1119
49002OCT     C298004  13.640  16.152  17.831 -0.0146  0.1521 -0.2584
49003OCT     C198005   3.704  20.750  20.539 -0.1039 -0.0342 -0.0111
49003OCT     C298006   3.894  20.375  20.787 -0.1796 -0.1324 -0.0001
49004OCT     C198007  21.732   6.065   1.042 -0.2820  0.1648  0.0019
49004OCT     C298008  21.832   6.203   1.464 -0.1000  0.0297  0.2564
49005OCT     C198009  13.974  22.540  14.209 -0.1032  0.1535 -0.0805
49005OCT     C298010  13.736  22.918  14.160  0.0544  0.2606 -0.2502
49006OCT     C198011  16.990  20.108  18.795 -0.3451  0.1090 -0.0302
49006OCT     C298012  17.222  20.217  18.323  0.0075  0.1994  0.1898
49007OCT     C198013  16.824  21.660   3.699  0.0400 -0.0179  0.2850
49007OCT     C298014  16.827  21.207   3.777 -0.2048  0.2367 -0.1284
49008OCT     C198015  21.650   4.833  18.850  0.1548  0.3470 -0.2790
49008OCT     C298016  21.398   5.006  18.470  0.0603 -0.2477  0.1916
49009OCT     C198017   7.669   7.800  12.842 -0.1426 -0.3254 -0.0807
49009OCT     C298018   7.507   7.596  12.457  0.0183  0.0102 -0.1712
49010OCT     C198019  18.554   6.065   9.014 -0.1429  0.3862  0.0401
49010OCT     C298020  18.596   5.791   9.391  0.1935 -0.0790 -0.3548
49011OCT     C198021  15.822  12.694  19.387  0.1704  0.1516 -0.2121
49011OCT     C298022  15.384  12.723  19.428 -0.0142 -0.0344  0.2235
49012OCT     C198023  19.897  16.803  12.264 -0.2922 -0.2241  0.1557
49012OCT     C298024  19.610  16.778  12.631 -0.0002  0.2141 -0.3670
49013OCT     C198025  18.346  20.380  21.335 -0.0640  0.2711  0.3809
49013OCT     C298026  18.611  20.008  21.310  0.2185  0.1152  0.0603
49014OCT     C198027   9.065  12.186   9.331 -0.0161  0.4060 -0.3305
49014OCT     C298028   8.936  11.815   9.064  0.2776 -0.1397 -0.0617
49015OCT     C198029  19.536  18.311   5.689  0.0604  0.2284 -0.0915
49015OCT     C298030  19.672  17.974   5.955 -0.1532 -0.4035 -0.3222
49016OCT     C198031  20.164   2.663   4.342  0.7925  0.1695  0.3157
49016OCT     C298032  20.481   2.744   4.667  0.1248  0.0308 -0.2341
49017OCT     C198033   7.029  18.005  22.632  0.1332 -0.0366  0.1444
49017OCT     C298034   7.103  17.776  22.249 -0.4614  0.0269 -0.1365
49018OCT     C198035  12.955  16.312   0.990  0.1644  0.0039 -0.1005
49018OCT     C298036  13.325  16.144   1.292  0.1863 -0.0059  0.2000
49019OCT     C198037  11.108  13.691   2.603 -0.2216 -0.1953 -0.3256
49019OCT     C298038  11.434  13.340   2.700  0.0681 -0.0723  0.0553
49020OCT     C198039   0.726   7.572  18.783 -0.2791 -0.1216 -0.0989
49020OCT     C298040   0.825   7.508  18.300  0.1215 -0.2242 -0.2801
49021OCT     C198041  15.210   5.369  18.069  0.0208 -0.0261  0.0340
49021OCT     C298042  15.051   4.985  17.913 -0.4274 -0.0603  0.0177
49022OCT     C198043  10.800   0.507  10.675  0.0080  0.0572  0.0732
49022OCT     C298044  10.506   0.742  10.366  0.1452 -0.2379 -0.2766
49023OCT     C198045   6.673  22.251   8.454 -0.1081 -0.0850  0.0067
49023OCT     C298046   6.368  22.574   8.416 -0.0240  0.0883  0.1362
49024OCT     C198047  13.667   4.975   4.574  0.0409 -0.2203 -0.2782
49024OCT     C298048  13.580   5.256   4.914 -0.0454 -0.5708 -0.1465
49025OCT     C198049   6.122  16.161  19.062  0.2281 -0.3994 -0.1560
49025OCT     C298050   6.592  16.277  18.909  0.1669 -0.0662 -0.2700
49026OCT     C198051  20.348  17.357  14.328 -0.0429 -0.1202 -0.1138
49026OCT     C298052  19.982  17.142  14.445 -0.0983 -0.2278  0.0052
49027OCT     C198053   7.120  12.146   9.871 -0.1751 -0.2388 -0.2146
49027OCT     C298054   6.895  11.986  10.238 -0.0778  0.0984  0.0601
49028OCT     C198055  21.809   5.956   2.057  0.3909 -0.0335 -0.1014
49028OCT     C298056  21.816   5.765   1.593  0.1088 -0.0493  0.0178
49029OCT     C198057   8.052  20.350   3.525 -0.0067  0.2092  0.1781
49029OCT     C298058   7.608  20.392   3.641  0.0261  0.2966  0.0434
49030OCT     C198059  21.491  22.042  10.340  0.0576 -0.3080  0.2348
49030OCT     C298060  21.001  22.001  10.417 -0.3686  0.0614  0.1008
49031OCT     C198061  13.423   1.433   6.895 -0.0304 -0.3033  0.0026
49031OCT     C298062  13.476   0.982   7.087  0.1566 -0.1995  0.3099
49032OCT     C198063   0.183  23.073   4.046  0.3781 -0.0052  0.0327
49032OCT     C298064   0.434  23.291   3.751 -0.1111 -0.1367  0.0809
49033OCT     C198065  19.279  10.336   7.766 -0.0957 -0.0845  0.0498
49033OCT     C298066  19.608  10.550   7.582  0.2387 -0.1136 -0.2052
49034OCT     C198067   8.722   6.564  13.409  0.1272 -0.1747  0.0662
49034OCT     C298068   8.516   6.590  13.819  0.1288 -0.0316 -0.0303
49035OCT     C198069   4.034   4.488  13.945 -0.1954 -0.1729 -0.1574
49035OCT     C298070   3.591   4.579  13.713  0.0598 -0.2611  0.0621
49036OCT     C198071  19.146  12.354  17.701  0.0898 -0.0285 -0.1892
49036OCT     C298072  19.115  11.893  17.589  0.1745  0.3725 -0.3298
49037OCT     C198073  10.937   9.957   1.747 -0.1121 -0.0348 -0.0550
49037OCT     C298074  11.406  10.028   1.626  0.2639  0.4587  0.2377
49038OCT     C198075   4.401  12.510  10.666  0.2827  0.1372 -0.2576
49038OCT     C298076   4.268  12.206  10.970 -0.0483  0.0338 -0.0718
49039OCT     C198077   4.047   8.623  10.490 -0.0201 -0.0325 -0.2498
49039OCT     C298078   4.034   8.333  10.842  0.4358  0.1794 -0.2045
49040OCT     C198079   1.013  11.146  18.586  0.0420 -0.4484  0.1394
49040OCT     C298080   0.584  10.924  18.666 -0.4324 -0.1437 -0.1080
49041OCT     C198081   3.482  12.303   0.477 -0.1668  0.2831 -0.1610
49041OCT     C298082   3.503  12.102   0.907 -0.2310  0.0161  0.0543
49042OCT     C198083   9.250  14.087  11.724  0.2820 -0.2783  0.1462
49042OCT     C298084   9.452  13.922  12.035  0.1573 -0.2079  0.0551
49043OCT     C198085  21.012   0.632  17.309  0.0039 -0.1658 -0.2074
49043OCT     C298086  21.443   0.506  17.570  0.0811  0.4552  0.1008
49044OCT     C198087  16.386   8.986  14.632  0.2919  0.4080 -0.4798
49044OCT     C298088  16.671   8.893  14.341  0.1308 -0.2848 -0.0331
49045OCT     C198089  10.247   0.477   9.967 -0.0151  0.2768  0.0074
49045OCT     C298090  10.184   0.051  10.097  0.1925  0.3712  0.2536
49046OCT     C198091  20.825   5.349   3.141  0.1008 -0.1549  0.1813
49046OCT     C298092  21.048   5.175   3.532 -0.0954 -0.0178 -0.4516
49047OCT     C198093   3.804   1.578  10.565 -0.0001  0.2199 -0.0649
49047OCT     C298094   3.678   1.349  11.017  0.0524  0.1249  0.3672
49048OCT     C198095  17.339   9.166   0.883 -0.3860 -0.0785 -0.3651
49048OCT     C298096  17.695   9.171   1.190 -0.0212  0.1217 -0.0843
49049OCT     C198097   3.474  20.761   3.078 -0.1142 -0.4302  0.1819
49049OCT     C298098   3.260  20.792   2.711  0.1520  0.1200  0.0087
49050OCT     C198099  12.527   6.804   5.355 -0.1311 -0.1518  0.3032
49050OCT     C298100  12.292   7.103   5.001 -0.2888 -0.1559  0.0459
49051OCT     C198101   0.412  20.497  22.313  0.1149 -0.0372 -0.0475
49051OCT     C298102   0.351  20.730  21.951  0.1294 -0.3068 -0.1909
49052OCT     C198103   8.537  10.650  19.857  0.1418  0.0036  0.0927
49052OCT     C298104   8.855  10.928  20.046 -0.0586 -0.2261 -0.0181
49053OCT     C198105  12.349  11.073  18.047  0.0721  0.1209  0.0915
49053OCT     C298106  12.046  10.700  18.118 -0.2078 -0.2425  0.0405
49054OCT     C198107   8.586   1.316  22.628  0.0300 -0.3157  0.2195
49054OCT     C298108   8.455   1.211  23.107  0.3601 -0.0814 -0.0134
49055OCT     C198109  22.750  13.127  17.719  0.0652  0.1256 -0.2285
49055OCT     C298110  22.558  13.446  17.959  0.3461 -0.0883 -0.0777
49056OCT     C198111   4.568  22.331  20.925  0.0434  0.5176 -0.0527
49056OCT     C298112   4.996  22.261  21.102  0.0927  0.0329 -0.0291
49057OCT     C198113  12.934  21.375  17.575 -0.0159 -0.2132 -0.1118
49057OCT     C298114  12.741  21.007  17.322 -0.3007  0.0364 -0.2696
49058OCT     C198115  22.502  20.347   1.994 -0.4460  0.0897  0.1673
49058OCT     C298116  22.782  20.395   1.682 -0.2384  0.1398 -0.0422
49059OCT     C198117  13.668  20.345  20.488  0.1027  0.4475 -0.2733
49059OCT     C298118  13.445  19.973  20.561 -0.1036 -0.2756 -0.2481
49060OCT     C198119  12.205  15.042   9.729 -0.0257  0.1520 -0.1871
49060OCT     C298120  11.889  15.056  10.091 -0.3408 -0.1436  0.1750
49061OCT     C198121  17.095  14.155  17.513 -0.0937  0.2325 -0.0505
49061OCT     C298122  17.204  14.230  17.964 -0.0433  0.0462 -0.0944
49062OCT     C198123   9.314  20.811  17.640 -0.2594  0.0201 -0.0746
49062OCT     C298124   9.392  20.449  17.404 -0.2987 -0.2007 -0.1012
49063OCT     C198125  15.025  18.420   7.456  0.1983 -0.0114  0.0121
49063OCT     C298126  14.655  18.229   7.657 -0.1246 -0.0636 -0.2494
49064OCT     C198127   9.156   7.258  21.009  0.1196 -0.0050 -0.1002
49064OCT     C298128   8.830   7.597  20.925  0.1846 -0.2928 -0.0263
49065OCT     C198129  11.898   0.619   1.077  0.2993  0.2838  0.2964
49065OCT     C298130  11.973   0.296   1.446  0.2298  0.0250  0.2765
49066OCT     C198131   1.827   3.894   5.476 -0.0053 -0.1669 -0.0283
49066OCT     C298132   2.297   3.897   5.442 -0.2114 -0.3210  0.1226
49067OCT     C198133  13.220  23.159  17.455  0.2553  0.2255 -0.0794
49067OCT     C298134  12.953  23.225  17.813 -0.0288 -0.2023 -0.4842
49068OCT     C198135  21.091  21.050  20.216  0.2689 -0.3024  0.1234
49068OCT     C298136  21.273  21.044  19.792 -0.1296 -0.1490  0.1398
49069OCT     C198137  11.251  16.039  21.558  0.1791  0.0527 -0.1255
49069OCT     C298138  11.570  16.315  21.263  0.0773 -0.1533  0.1431
49070OCT     C198139   9.964  23.120  17.466 -0.0629  0.2143 -0.8444
49070OCT     C298140  10.103  22.817  17.802  0.4247 -0.2636 -0.0051
49071OCT     C198141   2.743   0.217   1.590 -0.0173  0.2046 -0.3723
49071OCT     C298142   2.319   0.254   1.321 -0.2117  0.1953 -0.4467
49072OCT     C198143  10.641  13.988  16.171 -0.4445  0.1731  0.1501
49072OCT     C298144  10.310  13.751  16.423  0.0990  0.1899  0.1622
49073OCT     C198145   5.427  22.509  22.429  0.1978  0.2669  0.0872
49073OCT     C298146   5.337  22.126  22.309 -0.1193 -0.1098  0.0340
49074OCT     C198147   7.249  21.106  20.033  0.0291  0.2155 -0.4135
49074OCT     C298148   7.185  21.221  20.508 -0.0473 -0.0695  0.0293
49075OCT     C198149   2.555   1.092  22.088  0.0134  0.2806 -0.1264
49075OCT     C298150   2.485   0.780  21.790 -0.2573 -0.1225 -0.0183
49076OCT     C198151  20.268  14.866  12.297  0.1516  0.2520 -0.0917
49076OCT     C298152  20.246  15.267  11.980 -0.2011  0.4071 -0.3540
49077OCT     C198153  23.311   5.169   7.070 -0.1265 -0.0669 -0.2934
49077OCT     C298154  23.153   5.551   7.298 -0.0690 -0.1084  0.4694
49078OCT     C198155  18.149   8.972   3.207  0.0382 -0.0585  0.0759
49078OCT     C298156  18.380   8.872   2.812  0.0058  0.0390  0.1724
49079OCT     C198157  13.957   6.743  18.840  0.0656  0.1729  0.0206
49079OCT     C298158  13.816   7.220  18.869  0.0539 -0.2939  0.4076
49080OCT     C198159  20.840  15.583   3.868 -0.0139  0.1313  0.1511
49080OCT     C298160  20.956  15.259   4.130  0.0737  0.0351  0.0984
49081OCT     C198161  11.882   8.035   2.613 -0.2325  0.0481  0.2276
49081OCT     C298162  12.093   8.128   3.004  0.2053 -0.0337 -0.1312
49082OCT     C198163   4.938  13.358   4.479  0.1198 -0.1400 -0.4530
49082OCT     C298164   4.903  13.721   4.765 -0.1304 -0.3476  0.1988
49083OCT     C198165  20.597  13.531  10.959  0.0264 -0.2204 -0.3745
49083OCT     C298166  20.461  13.751  11.325 -0.1192 -0.1170 -0.0357
49084OCT     C198167   8.712  13.968  22.834  0.1118  0.0267 -0.0440
49084OCT     C298168   8.546  14.306  23.127 -0.1183  0.0771  0.1163
49085OCT     C198169  23.298  23.727   3.659  0.1264 -0.2580 -0.0496
49085OCT     C298170  22.882  23.688   3.435  0.0015  0.0633  0.1062
49086OCT     C198171  21.890  18.879   6.371  0.1183  0.3325 -0.0826
49086OCT     C298172  21.601  19.109   6.642  0.3811 -0.0695  0.2644
49087OCT     C198173  17.183  12.063  12.864 -0.0992  0.3395  0.1415
49087OCT     C298174  17.044  12.356  13.151 -0.0420 -0.0796  0.3098
49088OCT     C198175   4.655  14.817   9.031 -0.4962  0.1813  0.1441
49088OCT     C298176   4.852  14.700   8.551 -0.1739 -0.1942 -0.1831
49089OCT     C198177  10.867   6.984  19.039  0.0197 -0.4230 -0.2154
49089OCT     C298178  11.291   7.159  19.096  0.1436 -0.0093  0.0265
49090OCT     C198179  23.438  18.580  13.370  0.2265  0.2737  0.2464
49090OCT     C298180  23.485  19.029  13.463 -0.0746  0.2107  0.1400
49091OCT     C198181   4.567  18.609   8.514 -0.7361 -0.1382  0.0666
49091OCT     C298182   4.227  18.305   8.348  0.0535 -0.2546 -0.0543
49092OCT     C198183   8.311  23.307  20.493 -0.2789 -0.2409  0.2053
49092OCT     C298184   7.922  23.078  20.406  0.2221  0.0401 -0.1475
49093OCT     C198185  10.937  17.698  11.931  0.2117  0.2354 -0.2955
49093OCT     C298186  10.434  17.790  11.836  0.1042 -0.3457 -0.0453
49094OCT     C198187  13.331  11.490  19.981 -0.0721 -0.0783 -0.2559
49094OCT     C298188  13.583  11.274  19.647  0.3022  0.2117 -0.1991
49095OCT     C198189   6.922  21.281  17.638 -0.0287 -0.2328  0.1704
49095OCT     C298190   6.513  21.037  17.818 -0.2229 -0.2613  0.2141
49096OCT     C198191  11.276  14.420   7.855  0.1858 -0.2439 -0.0463
49096OCT     C298192  10.909  14.599   8.094 -0.1251  0.0447 -0.0467
49097OCT     C198193  23.017   4.006  22.643  0.1431 -0.0727  0.2445
49097OCT     C298194  23.146   3.702  22.334 -0.2873 -0.2260 -0.2279
49098OCT     C198195   3.197   3.860   2.294  0.0346  0.0226 -0.0588
49098OCT     C298196   3.107   3.936   2.780 -0.2403 -0.3688  0.0037
49099OCT     C198197  12.735   6.283  19.516 -0.2093  0.2577 -0.0995
49099OCT     C298198  13.084   6.262  19.218 -0.0691  0.0364 -0.0982
49100OCT     C198199  17.042  12.154  21.141  0.1861  0.0024  0.1353
49100OCT     C298200  16.699  12.250  20.842 -0.3237 -0.0156  0.0268
49101OCT     C198201   2.425  17.341  22.051  0.0929 -0.1745 -0.1484
49101OCT     C298202   2.248  17.715  21.804 -0.1180  0.0609  0.1775
49102OCT     C198203  20.788  23.584  14.377 -0.1152 -0.2139  0.0268
49102OCT     C298204  21.009  23.480  13.998  0.0556 -0.4775 -0.2121
49103OCT     C198205  10.593  17.661  20.995  0.1709 -0.2073 -0.1097
49103OCT     C298206  10.266  17.745  21.274 -0.1535  0.0296  0.1159
49104OCT     C198207  14.217  18.823   0.193 -0.0208  0.1446 -0.0561
49104OCT     C298208  14.245  18.410  23.731  0.0353 -0.0498  0.0603
49105OCT     C198209  15.098  10.223  19.675  0.1511 -0.0192  0.3091
49105OCT     C298210  15.582  10.052  19.685  0.2923 -0.2364  0.0756
49106OCT     C198211  13.411   8.010  17.322 -0.0617  0.2564  0.3557
49106OCT     C298212  13.468   7.575  17.143 -0.2506 -0.0002 -0.1228
49107OCT     C198213  16.359   6.009  19.833 -0.0477  0.0692  0.0037
49107OCT     C298214  16.080   5.835  19.554  0.1151  0.1266  0.0928
49108OCT     C198215  18.147   9.158  20.641 -0.1992 -0.0257  0.2198
49108OCT     C298216  18.224   9.508  20.966 -0.0574  0.2690  0.0713
49109OCT     C198217   0.739  17.826  19.455  0.3448  0.0105  0.1863
49109OCT     C298218   0.888  17.547  19.808 -0.0999 -0.3705 -0.2534
49110OCT     C198219   1.983   7.949  11.799  0.3101  0.1277  0.2660
49110OCT     C298220   2.216   7.776  11.449 -0.0468 -0.1301  0.0896
49111OCT     C198221  19.157  11.768  20.345  0.2967  0.4199 -0.0199
49111OCT     C298222  18.840  11.554  20.632 -0.0932 -0.0922 -0.2807
49112OCT     C198223  22.260  23.518  20.622 -0.0636 -0.1929  0.0694
49112OCT     C298224  22.470  23.336  20.984  0.2240 -0.1561 -0.0457
49113OCT     C198225  21.395  14.202  23.119 -0.0203  0.2758 -0.3014
49113OCT     C298226  21.599  14.422  23.565 -0.1691  0.0428  0.1459
49114OCT     C198227  20.237  21.591  19.388  0.0226  0.2066  0.3077
49114OCT     C298228  19.854  21.858  19.275 -0.1345 -0.0113  0.0401
49115OCT     C198229  16.626   3.813   4.806 -0.0018  0.0714  0.0953
49115OCT     C298230  16.617   3.772   4.375  0.0701 -0.0872 -0.1416
49116OCT     C198231   6.301   7.407   7.731 -0.2750 -0.1850 -0.0642
49116OCT     C298232   5.910   7.589   7.838 -0.1669  0.0873  0.2569
49117OCT     C198233  19.533  15.087   1.837 -0.4334 -0.1110 -0.0916
49117OCT     C298234  19.363  15.517   1.874 -0.1279  0.1730 -0.1975
49118OCT     C198235   1.410  10.378  14.061  0.0120  0.0055  0.0610
49118OCT     C298236   1.160  10.372  14.449  0.1809  0.2134  0.2343
49119OCT     C198237   4.635   2.399  22.621 -0.1541  0.5954 -0.0268
49119OCT     C298238   4.511   2.320  22.144 -0.1234 -0.1748 -0.0309
49120OCT     C198239  10.779  20.985  14.168  0.0979 -0.2738 -0.1493
49120OCT     C298240  10.452  20.613  14.182  0.1627 -0.0815 -0.2185
49121OCT     C198241  19.710   3.059   5.286  0.0503 -0.1641 -0.2601
49121OCT     C298242  19.775   2.934   5.787 -0.0028  0.0270  0.1988
49122OCT     C198243  21.184  21.098   4.483 -0.0382  0.2038  0.2083
49122OCT     C298244  20.969  20.787   4.197  0.1119 -0.3380  0.0679
49123OCT     C198245   9.701   5.513  20.798 -0.2531  0.4781 -0.1163
49123OCT     C298246  10.002   5.659  20.443 -0.2096  0.2046 -0.2945
49124OCT     C198247  13.224  15.777   8.221  0.0986  0.0902 -0.0259
49124OCT     C298248  13.213  16.227   8.342 -0.2128  0.1920 -0.0576
49125OCT     C198249  11.534   5.085  23.732  0.1622 -0.1714  0.1537
49125OCT     C298250  11.759   5.505  23.594  0.3148  0.1441 -0.1329
49126OCT     C198251   2.196   0.060   9.515  0.0471  0.2213  0.0674
49126OCT     C298252   1.726  23.666   9.646 -0.0372  0.0019 -0.1077
49127OCT     C198253   2.527   9.812  17.133  0.4123 -0.0861  0.0029
49127OCT     C298254   2.428  10.241  16.893 -0.5120  0.4853 -0.0876
49128OCT     C198255  15.621  21.441  16.799  0.4030 -0.3697 -0.1807
49128OCT     C298256  15.270  21.776  16.840 -0.2017  0.1007  0.0344
49129OCT     C198257  15.137  10.205  17.375  0.3334  0.0911  0.1105
49129OCT     C298258  15.189  10.649  17.319  0.1860  0.0565 -0.0574
49130OCT     C198259  17.058  23.597  21.526 -0.3412  0.0709  0.3685
49130OCT     C298260  16.561  23.608  21.527  0.0765 -0.0263 -0.0061
49131OCT     C198261  10.364  23.284   6.829  0.3650  0.0901  0.1213
49131OCT     C298262  10.700  23.567   6.642 -0.1887 -0.2051  0.0114
49132OCT     C198263  22.247   5.716  14.939 -0.0782 -0.2416  0.0570
49132OCT     C298264  22.693   5.840  14.855 -0.1011 -0.2706  0.0575
49133OCT     C198265   4.758  23.674  14.524 -0.2218 -0.0312  0.0964
49133OCT     C298266   4.495   0.324  14.726 -0.3335  0.1434 -0.1614
49134OCT     C198267  21.850   7.064  21.830  0.2684 -0.0647 -0.3835
49134OCT     C298268  22.115   7.492  21.706 -0.1568  0.0355 -0.6318
49135OCT     C198269  21.377  18.006  14.115 -0.4265  0.2823 -0.1132
49135OCT     C298270  21.330  18.398  13.822  0.1766 -0.0364 -0.0356
49136OCT     C198271  15.658   4.766  10.696  0.0437  0.2888  0.1384
49136OCT     C298272  15.506   4.937  10.238 -0.1407  0.0879  0.3420
49137OCT     C198273  22.282   5.042  20.065 -0.1834  0.2556  0.1554
49137OCT     C298274  22.522   4.646  20.015 -0.0059 -0.0694 -0.3175
49138OCT     C198275  10.376   9.496  22.316 -0.0314 -0.0832 -0.2383
49138OCT     C298276  10.427   9.041  22.478  0.2032 -0.1653 -0.4799
49139OCT     C198277  10.873   6.876   1.598  0.0340  0.1838  0.0780
49139OCT     C298278  10.844   6.815   1.131 -0.0313  0.0908  0.3651
49140OCT     C198279   1.396  10.070  12.873 -0.3116 -0.0839 -0.2235
49140OCT     C298280   1.364  10.291  12.487  0.1988 -0.0307  0.2616
49141OCT     C198281  11.197   2.961  21.320 -0.0897 -0.1349 -0.0265
49141OCT     C298282  10.940   2.865  21.760 -0.3944  0.0647  0.2026
49142OCT     C198283   3.354  21.846   2.574 -0.2865 -0.6160  0.0350
49142OCT     C298284   3.368  22.088   2.953  0.2730 -0.2615 -0.0140
49143OCT     C198285   5.864   9.386   0.120 -0.1100 -0.0970 -0.0074
49143OCT     C298286   5.660   9.085   0.334  0.1020  0.0248 -0.1607
49144OCT     C198287   1.808   1.542  13.687 -0.2244 -0.0990 -0.0260
49144OCT     C298288   1.767   1.934  13.906  0.0180  0.1249  0.1572
49145OCT     C198289   1.555   7.077  23.249  0.3502 -0.3549 -0.0076
49145OCT     C298290   1.515   7.093  23.700  0.2481 -0.2046  0.1286
49146OCT     C198291   7.908   3.317  18.821 -0.1985 -0.2525  0.2841
49146OCT     C298292   7.755   3.046  19.208 -0.1884 -0.1024 -0.0713
49147OCT     C198293  13.267   8.511  17.559 -0.2649 -0.3387  0.0961
49147OCT     C298294  13.322   8.716  17.183 -0.0746 -0.2202 -0.0152
49148OCT     C198295   7.697   3.502  21.308  0.1536 -0.5676  0.0956
49148OCT     C298296   8.014   3.145  21.405 -0.2658  0.3985  0.0772
49149OCT     C198297   8.531   3.390  17.193 -0.0852 -0.4306  0.0032
49149OCT     C298298   8.456   3.615  17.598 -0.2781  0.3126  0.0920
49150OCT     C198299  12.211   4.930  22.284 -0.0107 -0.1590 -0.2107
49150OCT     C298300  11.851   5.120  22.133 -0.0242 -0.2854  0.0912
49151OCT     C198301   4.354   3.336   3.324  0.1255 -0.2070  0.3907
49151OCT     C298302   4.781   3.423   3.310  0.3159 -0.0257  0.0417
49152OCT     C198303  12.736   0.542   5.860  0.0116  0.1437  0.1042
49152OCT     C298304  12.932   0.931   5.645 -0.3161 -0.0367 -0.0415
49153OCT     C198305  16.064  19.388  12.324 -0.2071 -0.1960  0.1677
49153OCT     C298306  15.964  19.218  12.779  0.1275 -0.1959  0.1461
49154OCT     C198307   0.414  15.820   7.514  0.5874 -0.3321  0.1812
49154OCT     C298308   0.750  15.946   7.810 -0.0645  0.1684 -0.0792
49155OCT     C198309   5.128  14.453  10.683 -0.0723  0.2856 -0.2635
49155OCT     C298310   5.218  14.153  10.340 -0.0199 -0.0778  0.0948
49156OCT     C198311   0.823  21.964  15.801  0.0430  0.1411  0.1731
49156OCT     C298312   0.793  21.566  15.516  0.1282  0.1273  0.0738
49157OCT     C198313  19.110  20.326   3.473  0.0874  0.2962 -0.1976
49157OCT     C298314  19.396  19.953   3.456 -0.1992  0.2223 -0.0656
49158OCT     C198315  23.680   2.329   1.868 -0.0598 -0.0463 -0.0026
49158OCT     C298316   0.381   2.497   1.801  0.4462 -0.1169  0.4132
49159OCT     C198317   8.366   0.483  23.237  0.1317 -0.1366 -0.4478
49159OCT     C298318   8.783   0.286  23.300 -0.1701  0.2114  0.1536
49160OCT     C198319   1.262   4.654   4.511 -0.2048 -0.0421 -0.1332
49160OCT     C298320   1.078   4.278   4.653 -0.0047 -0.2266 -0.1327
49161OCT     C198321   4.984   3.737  10.866 -0.1972 -0.1720  0.0872
49161OCT     C298322   4.622   3.557  10.628 -0.1712  0.2369 -0.1485
49162OCT     C198323   1.903  18.557  11.274 -0.1420 -0.0498 -0.2676
49162OCT     C298324   1.964  18.993  11.196 -0.2924 -0.1173  0.2490
49163OCT     C198325  20.581  13.568  17.743  0.1990 -0.0297 -0.3969
49163OCT     C298326  20.806  13.142  17.724 -0.1488 -0.0020 -0.2030
49164OCT     C198327   2.938  20.093   7.603 -0.1304 -0.1136  0.2566
49164OCT     C298328   2.834  20.495   7.459 -0.1099  0.1899  0.2258
49165OCT     C198329  22.356  16.477  23.530 -0.0767  0.3118  0.0161
49165OCT     C298330  22.562  16.305  23.197  0.1991 -0.1385  0.1905
49166OCT     C198331  19.500  19.503  22.970  0.2033  0.4214  0.1585
49166OCT     C298332  19.478  19.144  23.271  0.0663  0.3212  0.1362
49167OCT     C198333  16.964  11.430  13.233 -0.0477  0.0964 -0.1730
49167OCT     C298334  17.000  11.527  12.766 -0.2563 -0.0713 -0.0620
49168OCT     C198335  11.022   9.223  13.962  0.2322 -0.1466  0.0204
49168OCT     C298336  11.141   9.719  13.988 -0.2628  0.0600 -0.1755
49169OCT     C198337  14.211  21.723  10.307  0.2393  0.0064 -0.0360
49169OCT     C298338  14.343  21.745  10.745 -0.0915 -0.1425  0.2111
49170OCT     C198339  21.504   2.643   0.167 -0.2144  0.0646 -0.0903
49170OCT     C298340  21.720   2.817  23.599  0.1431 -0.1883  0.2405
49171OCT     C198341   2.323  21.531   2.080 -0.0356  0.0662  0.1621
49171OCT     C298342   2.673  21.397   2.320  0.2446 -0.1973  0.1584
49172OCT     C198343   5.384  14.879  20.252  0.0111  0.1497 -0.3291
49172OCT     C298344   5.009  14.621  20.335  0.1736 -0.1561  0.0718
49173OCT     C198345   0.952  22.477   7.123  0.2475 -0.1822 -0.3393
49173OCT     C298346   1.210  22.746   7.445  0.0853 -0.1730  0.0378
49174OCT     C198347  21.433   8.781   0.001 -0.1346 -0.0454 -0.0452
49174OCT     C298348  21.341   9.136   0.310 -0.1388 -0.1931  0.1732
49175OCT     C198349  15.518  13.665   3.718  0.2368 -0.0123 -0.0168
49175OCT     C298350  15.763  13.807   3.289 -0.0832  0.2882 -0.0350
49176OCT     C198351  10.661   2.961  18.759  0.3115 -0.1555 -0.3346
49176OCT     C298352  10.365   2.951  19.150 -0.1215  0.0587  0.0099
49177OCT     C198353   5.585   1.633   9.753 -0.1376  0.1556 -0.2482
49177OCT     C298354   5.150   1.365   9.919  0.5422  0.0506 -0.0065
49178OCT     C198355  16.546   0.811   9.588 -0.0179  0.0639  0.1564
49178OCT     C298356  16.273   0.605   9.889 -0.3948 -0.1682  0.2621
49179OCT     C198357   3.515   6.550  13.532 -0.3388  0.1870 -0.2939
49179OCT     C298358   3.533   7.016  13.532  0.0911  0.0454 -0.3537
49180OCT     C198359   0.235   4.598   9.850 -0.1281 -0.2976 -0.0548
49180OCT     C298360   0.459   4.299   9.508 -0.4472 -0.0917  0.1375
49181OCT     C198361   7.036   9.022  21.789  0.2871 -0.0556  0.2798
49181OCT     C298362   6.639   8.864  22.015  0.3596  0.2763  0.1395
49182OCT     C198363   9.900  13.234  22.736  0.0777 -0.0817  0.2423
49182OCT     C298364   9.627  13.603  22.813 -0.1484 -0.2851 -0.1782
49183OCT     C198365  18.034  17.721  22.465  0.0536  0.1450 -0.2948
49183OCT     C298366  17.628  17.581  22.274 -0.0030  0.2902 -0.0848
49184OCT     C198367   0.568  12.074   5.809 -0.1582  0.1012 -0.1382
49184OCT     C298368   0.435  11.689   5.932  0.3147 -0.0435 -0.0482
49185OCT     C198369  22.448   0.110   3.678  0.1034 -0.0072 -0.0585
49185OCT     C298370  22.499   0.373   4.103 -0.0689 -0.3478  0.0414
49186OCT     C198371   6.393   2.114  19.770 -0.0876  0.0336  0.2539
49186OCT     C298372   6.191   1.788  19.515 -0.0503 -0.1886  0.1688
49187OCT     C198373   5.325   7.585   2.905  0.1242  0.2139 -0.0269
49187OCT     C298374   5.619   7.850   3.169  0.2007 -0.0568 -0.2193
49188OCT     C198375  20.504   7.481   2.803  0.2429  0.0933 -0.0795
49188OCT     C298376  20.501   7.068   3.058  0.0508  0.3055 -0.2055
49189OCT     C198377  13.664   1.937  16.882 -0.3963 -0.1315  0.1627
49189OCT     C298378  13.251   2.084  16.966  0.0575  0.1399  0.3116
49190OCT     C198379  20.262  22.469   0.044 -0.0653 -0.0801 -0.0601
49190OCT     C298380  20.432  22.845  23.537 -0.2075  0.1436 -0.0657
49191OCT     C198381  20.885   2.836  12.072 -0.0343 -0.1304  0.1176
49191OCT     C298382  20.576   2.505  12.020 -0.2814 -0.1530  0.0451
49192OCT     C198383  15.863   9.858  18.769  0.1189 -0.1523 -0.2122
49192OCT     C298384  15.505   9.632  18.478  0.0527 -0.2829 -0.0048
49193OCT     C198385  10.004  20.945  11.875 -0.3760  0.4162  0.1799
49193OCT     C298386  10.223  20.970  12.228 -0.0876 -0.0126 -0.3952
49194OCT     C198387   7.554   5.617   6.794  0.3447 -0.0569  0.0064
49194OCT     C298388   7.746   5.774   7.141  0.1382  0.3782 -0.0924
49195OCT     C198389  12.636   7.390  10.087 -0.3920 -0.1196 -0.2278
49195OCT     C298390  12.756   7.671  10.459  0.2211 -0.0883 -0.0322
49196OCT     C198391  10.482   8.231  19.188 -0.0130  0.1930 -0.0052
49196OCT     C298392  10.322   8.453  18.847 -0.0921 -0.0190 -0.2910
49197OCT     C198393  16.176  11.276  13.044 -0.0784  0.1010 -0.1424
49197OCT     C298394  16.593  11.352  12.951 -0.0879 -0.1534 -0.2704
49198OCT     C198395   2.382  21.897  21.193  0.1226  0.0306 -0.2833
49198OCT     C298396   2.203  22.093  21.537 -0.2592  0.0185 -0.1780
49199OCT     C198397   3.053  15.608  12.853 -0.1012  0.3222 -0.2470
49199OCT     C298398   2.682  15.458  13.053  0.1628  0.0204 -0.3829
49200OCT     C198399  13.461  11.079   4.731 -0.1714 -0.0922  0.0490
49200OCT     C298400  13.138  10.916   4.458  0.2573 -0.2844  0.4695
49201OCT     C198401   4.417  12.746  16.534 -0.0311 -0.4025 -0.0627
49201OCT     C298402   4.449  12.766  16.997 -0.0790  0.4500  0.1143
49202OCT     C198403  15.137   8.279   5.841 -0.1499  0.0287 -0.3466
49202OCT     C298404  15.269   8.622   5.533 -0.0792 -0.1523  0.2247
49203OCT     C198405  13.268  15.754   6.140 -0.1837  0.1948  0.0214
49203OCT     C298406  13.056  15.390   6.027 -0.1127 -0.1458 -0.0897
49204OCT     C198407  21.209   3.402   5.601  0.1869  0.3769  0.0122
49204OCT     C298408  20.774   3.559   5.508  0.1113  0.0488  0.0023
49205OCT     C198409  10.545   5.616   0.981  0.1691 -0.1967  0.3282
49205OCT     C298410  10.164   5.806   0.722 -0.0545 -0.0831 -0.1545
49206OCT     C198411   1.588  15.897  18.454  0.4162 -0.4320  0.0540
49206OCT     C298412   1.682  15.474  18.704 -0.1440 -0.0651  0.0744
49207OCT     C198413  20.322  20.012  15.696  0.3721 -0.1332 -0.3180
49207OCT     C298414  20.523  20.361  15.956 -0.0520 -0.2941 -0.2230
49208OCT     C198415   2.028   3.112  22.887 -0.0909 -0.0145  0.3377
49208OCT     C298416   2.350   2.955  23.204 -0.0569  0.1586 -0.3123
49209OCT     C198417   1.974  18.570  15.766 -0.2309  0.2574  0.3147
49209OCT     C298418   1.659  18.229  15.918  0.1306  0.0615 -0.0559
49210OCT     C198419  18.205  12.171   3.746  0.0864  0.0917 -0.0475
49210OCT     C298420  18.063  12.584   3.742 -0.3228  0.0582 -0.6248
49211OCT     C198421   4.441  10.837  18.268  0.0391 -0.1476 -0.0509
49211OCT     C298422   4.257  11.032  18.675 -0.2317 -0.1192 -0.1596
49212OCT     C198423  15.897   1.008  11.466 -0.0888 -0.3247  0.0427
49212OCT     C298424  15.619   0.721  11.718 -0.2024 -0.0238  0.2408
49213OCT     C198425  15.447   4.380   5.103  0.2563 -0.0789 -0.2213
49213OCT     C298426  15.406   4.147   5.516  0.3572 -0.0328 -0.0972
49214OCT     C198427  12.660  18.087  14.161  0.4371  0.0025 -0.4052
49214OCT     C298428  13.019  17.964  14.484  0.0730  0.0086 -0.0386
49215OCT     C198429  19.480  17.741  21.892 -0.2820  0.0158 -0.4060
49215OCT     C298430  19.117  17.972  21.722  0.1307 -0.0176  0.0107
49216OCT     C198431  15.141   6.754   3.854 -0.2031  0.2518  0.0160
49216OCT     C298432  15.008   6.432   3.508 -0.2158 -0.0267 -0.2570
49217OCT     C198433  16.161  21.056  21.420  0.0196  0.0764 -0.0770
49217OCT     C298434  15.754  20.993  21.163  0.1039 -0.1942 -0.1516
49218OCT     C198435  18.236  22.071   6.333  0.0466 -0.0762 -0.2184
49218OCT     C298436  18.307  22.243   5.933 -0.0304  0.4653  0.2155
49219OCT     C198437  22.551  16.869  19.178  0.1641 -0.0162  0.3154
49219OCT     C298438  22.130  17.045  19.196 -0.2642  0.2729 -0.3563
49220OCT     C198439   1.352   2.449  14.666 -0.1650  0.2771  0.1450
49220OCT     C298440   1.141   2.492  14.201 -0.1676  0.1778 -0.0121
49221OCT     C198441  14.930  17.035   9.067  0.0722 -0.1328 -0.1467
49221OCT     C298442  15.007  16.837   8.608  0.0755  0.1345  0.2729
49222OCT     C198443   0.080  13.228   1.399  0.1077  0.0605 -0.1188
49222OCT     C298444   0.370  13.201   1.118  0.0635 -0.0470  0.0208
49223OCT     C198445  14.911  19.114  21.852  0.3710 -0.1850 -0.0148
49223OCT     C298446  14.686  18.986  21.441 -0.2068  0.2917  0.1163
49224OCT     C198447  17.991  11.477  20.826 -0.2048  0.3215  0.1846
49224OCT     C298448  17.534  11.695  20.704 -0.0811 -0.1287  0.0803
49225OCT     C198449   6.201   1.687   7.765 -0.1058  0.2728 -0.2420
49225OCT     C298450   5.984   1.548   7.435 -0.1040 -0.1091 -0.2630
49226OCT     C198451   3.456  16.664  18.591  0.2807  0.2738 -0.0505
49226OCT     C298452   3.004  16.429  18.678 -0.2021  0.1766  0.0041
49227OCT     C198453  20.413  15.901   0.473  0.3047 -0.1495 -0.0498
49227OCT     C298454  20.056  16.227   0.484  0.2142  0.0885 -0.1095
49228OCT     C198455   5.041   5.024   4.457  0.0499  0.0079  0.0493
49228OCT     C298456   5.045   5.266   4.055 -0.0817  0.0763  0.0601
49229OCT     C198457  22.934  10.532  23.715 -0.2871  0.3454  0.3963
49229OCT     C298458  22.734  10.959   0.073 -0.1486  0.2601 -0.0982
49230OCT     C198459  19.930  18.769  11.182 -0.2165 -0.1073  0.0615
49230OCT     C298460  20.328  19.006  11.089 -0.0980 -0.3365 -0.2538
49231OCT     C198461   4.974   8.318   5.750 -0.1018 -0.0827 -0.3390
49231OCT     C298462   4.728   8.465   6.115 -0.2989 -0.3014 -0.0668
49232OCT     C198463  19.895  10.149  11.092 -0.0180  0.1729  0.0702
49232OCT     C298464  19.437  10.186  11.068  0.2186 -0.4169 -0.2851
49233OCT     C198465  17.451  20.251  20.159 -0.4290 -0.1139  0.2617
49233OCT     C298466  17.104  20.471  20.399 -0.1300 -0.2387 -0.0645
49234OCT     C198467  20.527  20.368   8.720 -0.2800  0.0366 -0.2171
49234OCT     C298468  20.209  20.045   8.716 -0.0362  0.1885 -0.0544
49235OCT     C198469   7.457  15.521  22.645 -0.1404  0.0630 -0.1008
49235OCT     C298470   7.663  15.353  22.301  0.2142 -0.0043 -0.4167
49236OCT     C198471  22.921  14.422   4.027 -0.4497  0.0814  0.2310
49236OCT     C298472  22.730  14.561   4.427  0.3766 -0.0693  0.1052
49237OCT     C198473   4.113   6.252   8.950  0.0496  0.1975  0.1898
49237OCT     C298474   3.716   6.462   8.818 -0.0363  0.1572  0.1791
49238OCT     C198475  22.383  16.538   2.510  0.4566  0.0414 -0.1294
49238OCT     C298476  22.336  16.604   2.051 -0.2895  0.1452 -0.4219
49239OCT     C198477   4.812   5.378  10.631 -0.1421 -0.0052 -0.2836
49239OCT     C298478   4.474   5.524  10.365  0.0136  0.5502 -0.1380
49240OCT     C198479  11.544   3.129  21.682  0.4118 -0.2397  0.1252
49240OCT     C298480  11.647   2.933  22.030  0.0587 -0.2404 -0.1831
49241OCT     C198481  14.806   2.315   8.477  0.1137  0.3194 -0.0084
49241OCT     C298482  14.555   1.967   8.236  0.4747  0.2318  0.5252
49242OCT     C198483  19.303  12.595  21.647  0.2582 -0.1504  0.1264
49242OCT     C298484  19.279  12.120  21.480  0.1859 -0.2076  0.1026
49243OCT     C198485   9.366   8.901  11.596 -0.0966  0.5099  0.2172
49243OCT     C298486   9.567   8.602  11.295  0.4632 -0.2810 -0.0039
49244OCT     C198487   5.668   4.472  16.750  0.1609  0.5082 -0.0151
49244OCT     C298488   5.292   4.226  16.722 -0.0165 -0.4281  0.3478
49245OCT     C198489  12.416  15.200  21.044  0.0337  0.2758  0.2091
49245OCT     C298490  12.089  15.040  20.743 -0.0300  0.2052  0.2628
49246OCT     C198491  19.791   4.244  15.394 -0.0612  0.4901 -0.2544
49246OCT     C298492  19.309   4.015  15.489 -0.2029 -0.0757 -0.1967
49247OCT     C198493  22.914  15.279  18.889 -0.0567 -0.1906 -0.3826
49247OCT     C298494  23.310  15.045  18.993  0.4488  0.0917 -0.0193
49248OCT     C198495  23.472   5.962  14.238  0.3290 -0.0580  0.2827
49248OCT     C298496  23.100   5.886  14.475 -0.0601 -0.0995 -0.0758
49249OCT     C198497   4.961  23.140   9.128 -0.0699  0.3108 -0.2104
49249OCT     C298498   5.352  23.152   8.881  0.0155  0.0763  0.2887
49250OCT     C198499  17.699  23.356  14.033  0.0953 -0.1765  0.0477
49250OCT     C298500  18.101  23.590  14.143  0.2929 -0.3336 -0.0968
49251OCT     C198501  15.624  18.382  16.638  0.2362  0.1121  0.0693
49251OCT     C298502  15.904  18.776  16.705  0.3665 -0.1444 -0.4504
49252OCT     C198503  22.610   0.589  12.040  0.0995  0.2327 -0.0807
49252OCT     C298504  22.650   1.015  12.068  0.3342 -0.0763 -0.0833
49253OCT     C198505  16.169  11.342  10.151  0.2556  0.4527  0.1335
49253OCT     C298506  16.519  11.325   9.869 -0.0060  0.0110 -0.1469
49254OCT     C198507  16.849   9.084  12.345  0.1660 -0.0153 -0.4480
49254OCT     C298508  17.075   8.647  12.192  0.0366  0.3265 -0.0892
49255OCT     C198509   2.359  19.902  18.969 -0.5374 -0.2440  0.2812
49255OCT     C298510   2.674  19.898  18.705 -0.3606  0.0970 -0.3518
49256OCT     C198511  20.124   6.825   7.998 -0.1855  0.1658  0.0770
49256OCT     C298512  19.826   7.121   8.190 -0.0694 -0.3123  0.4165
49257OCT     C198513  13.391   9.495  19.621 -0.0026  0.0815  0.0243
49257OCT     C298514  13.567   9.698  19.206  0.0378 -0.1353 -0.3755
49258OCT     C198515   9.498  15.960  19.637  0.1836  0.3604  0.4279
49258OCT     C298516   9.571  15.757  20.015  0.0064  0.0795 -0.3716
49259OCT     C198517  14.545   4.133  16.146  0.3619 -0.5462 -0.2810
49259OCT     C298518  14.859   4.241  15.907  0.0512 -0.1183 -0.0357
49260OCT     C198519  18.707  15.411   5.525 -0.1124 -0.0654 -0.1440
49260OCT     C298520  18.661  15.884   5.486 -0.1200  0.0845  0.0746
49261OCT     C198521  22.609  21.370   9.602 -0.1753 -0.0503 -0.2773
49261OCT     C298522  22.455  21.785   9.674  0.0134 -0.3827  0.1115
49262OCT     C198523  19.443  16.015   2.981  0.3397  0.0344  0.0215
49262OCT     C298524  19.940  16.197   3.036  0.0443  0.0799  0.1696
49263OCT     C198525   7.843   9.773  21.206  0.1324  0.0854 -0.2620
49263OCT     C298526   8.274   9.964  21.047 -0.1332 -0.0149 -0.1128
49264OCT     C198527   4.390  11.104  21.526  0.0220  0.1720  0.3111
49264OCT     C298528   4.658  11.519  21.423  0.0776  0.4352 -0.0206
49265OCT     C198529  10.715   2.729  18.172 -0.0662 -0.1425 -0.0980
49265OCT     C298530  10.837   3.170  18.087  0.3571 -0.1222  0.1825
49266OCT     C198531   3.687  18.352  12.895  0.2361 -0.0758  0.2427
49266OCT     C298532   3.389  18.705  12.703  0.3728 -0.5541 -0.3504
49267OCT     C198533  19.379  21.884   8.129  0.0949  0.1150 -0.1215
49267OCT     C298534  19.276  21.601   8.503 -0.2635  0.1357  0.2138
49268OCT     C198535   8.676   5.580   5.226  0.1028  0.0028 -0.2731
49268OCT     C298536   8.283   5.820   5.077 -0.1577 -0.1195 -0.0223
49269OCT     C198537  21.099  10.993  17.593 -0.3934  0.2377  0.0126
49269OCT     C298538  21.498  11.248  17.685 -0.1520  0.0770  0.1800
49270OCT     C198539  16.253  20.308   8.753  0.2106  0.0291 -0.1791
49270OCT     C298540  16.109  20.452   9.181  0.0214 -0.2601 -0.2012
49271OCT     C198541   4.701   6.772  21.513  0.1148 -0.0507 -0.2638
49271OCT     C298542   4.684   6.575  21.095 -0.2368  0.4160 -0.3562
49272OCT     C198543  20.111  19.283   7.240 -0.0917  0.0977  0.2252
49272OCT     C298544  19.742  19.539   7.031  0.0781  0.2153  0.3627
49273OCT     C198545  10.939  10.579  17.928 -0.2441 -0.0497 -0.1971
49273OCT     C298546  11.129  10.667  17.535 -0.2062 -0.3452  0.2491
49274OCT     C198547  21.281   0.061  15.945  0.2156  0.1982 -0.4820
49274OCT     C298548  21.299  23.700  16.391  0.0310 -0.1485 -0.0233
49275OCT     C198549  17.803  20.578  12.551 -0.1391 -0.0097  0.1630
49275OCT     C298550  17.584  20.369  12.909  0.1744  0.1407  0.1411
49276OCT     C198551  14.418   5.638   6.921 -0.0782 -0.2740  0.1034
49276OCT     C298552  14.295   5.247   6.726 -0.1241 -0.1035 -0.2620
49277OCT     C198553   7.291  12.848   5.175 -0.0323 -0.0628 -0.2936
49277OCT     C298554   7.423  12.381   5.242  0.1668  0.1884 -0.1000
49278OCT     C198555   0.448   6.136  21.459  0.2384  0.0698  0.3675
49278OCT     C298556   0.491   5.746  21.240  0.3937  0.0182  0.2014
49279OCT     C198557   8.012  17.745  10.675  0.3071 -0.0654 -0.2410
49279OCT     C298558   7.620  17.891  10.752  0.0262 -0.2480  0.0133
49280OCT     C198559   6.428  11.702   5.837  0.1467 -0.0880 -0.4448
49280OCT     C298560   6.091  11.851   6.159  0.1462 -0.0180  0.1650
49281OCT     C198561   3.018  15.677   3.555  0.3167 -0.2173 -0.1432
49281OCT     C298562   2.788  16.110   3.548  0.0219 -0.0795 -0.0635
49282OCT     C198563  18.321  12.997   8.620 -0.3586 -0.0227 -0.0475
49282OCT     C298564  18.325  13.112   9.070  0.2030 -0.2598  0.3969
49283OCT     C198565  16.714   0.680  20.831 -0.1903 -0.1009  0.0362
49283OCT     C298566  16.382   1.021  20.796  0.1261  0.0063  0.4468
49284OCT     C198567  20.171   0.839   7.546 -0.2135 -0.0480  0.1604
49284OCT     C298568  19.874   0.954   7.198  0.0307 -0.0766  0.0909
49285OCT     C198569   7.446   5.257  18.831  0.0610 -0.2903  0.0365
49285OCT     C298570   7.166   5.242  18.437  0.0440  0.1480  0.1425
49286OCT     C198571  17.926   5.561   0.917  0.1028  0.1003  0.0938
49286OCT     C298572  18.395   5.488   0.832 -0.0563 -0.0343 -0.0158
49287OCT     C198573   5.854   7.424   0.992  0.3065 -0.0039 -0.1208
49287OCT     C298574   5.580   7.762   0.988 -0.0141 -0.1301  0.1418
49288OCT     C198575   1.023   6.060  12.455 -0.1448 -0.0405  0.0719
49288OCT     C298576   0.923   6.431  12.663  0.0839  0.0309 -0.0367
49289OCT     C198577  11.073   7.836  13.094 -0.1520  0.0552 -0.0923
49289OCT     C298578  10.642   7.713  13.043 -0.0038 -0.0827 -0.0389
49290OCT     C198579  13.135  20.883   1.038  0.2896  0.0226 -0.1201
49290OCT     C298580  13.005  20.506   0.784  0.0396 -0.0175 -0.4245
49291OCT     C198581  10.105  12.489  19.109 -0.0521  0.0304  0.1528
49291OCT     C298582   9.740  12.734  19.255  0.0484  0.0240 -0.1318
49292OCT     C198583  21.340   5.341  18.801  0.0830 -0.4576  0.0357
49292OCT     C298584  21.741   5.211  19.090  0.1509 -0.1054  0.2683
49293OCT     C198585   9.010  10.844   1.317 -0.0431 -0.0112 -0.1163
49293OCT     C298586   8.998  10.403   1.109 -0.0768  0.1813  0.1699
49294OCT     C198587  15.956   3.293  20.251 -0.2751 -0.1611 -0.1047
49294OCT     C298588  15.616   2.959  20.240 -0.0234  0.1099 -0.1979
49295OCT     C198589   8.715  13.728  14.642  0.0679  0.4653  0.2930
49295OCT     C298590   8.764  14.075  14.377  0.1901 -0.2618  0.2361
49296OCT     C198591   7.518   5.135  11.802  0.0206 -0.3123 -0.1757
49296OCT     C298592   7.468   5.388  11.435 -0.3077 -0.2506 -0.1700
49297OCT     C198593  17.690   4.269   8.594  0.1055  0.0392 -0.3807
49297OCT     C298594  17.825   4.642   8.258  0.0223 -0.2700 -0.2573
49298OCT     C198595   6.716  16.051   0.044 -0.0511 -0.2108  0.0865
49298OCT     C298596   6.373  16.233  23.499 -0.2932  0.1941 -0.0793
49299OCT     C198597  13.380  12.315   1.526  0.5407 -0.1623  0.0959
49299OCT     C298598  13.254  11.844   1.615  0.1170 -0.2113  0.0023
49300OCT     C198599   8.024  16.061  22.717 -0.1222  0.3005  0.2261
49300OCT     C298600   7.723  16.360  22.486  0.1365  0.1535  0.2183
49301OCT     C198601  15.134  14.766  15.522 -0.1671 -0.3090  0.2618
49301OCT     C298602  15.171  14.803  15.965 -0.4976  0.1788  0.1871
49302OCT     C198603  19.520   7.157  17.120 -0.1762  0.1493 -0.2080
49302OCT     C298604  19.936   6.960  16.965 -0.0079  0.1312  0.0850
49303OCT     C198605  17.857  14.297  15.954 -0.2047 -0.0697 -0.2989
49303OCT     C298606  17.449  14.116  16.049 -0.0572 -0.2585  0.0591
49304OCT     C198607  18.782  18.173   2.502  0.1551 -0.2750 -0.1201
49304OCT     C298608  18.588  18.119   2.127 -0.0380 -0.0997  0.2640
49305OCT     C198609  14.178   5.268  19.118  0.3330 -0.1427  0.0669
49305OCT     C298610  13.858   5.645  19.248 -0.0969  0.1283  0.2515
49306OCT     C198611  10.195  14.007  20.720 -0.4535 -0.2668 -0.1506
49306OCT     C298612  10.376  13.622  20.698 -0.0336  0.1746  0.0179
49307OCT     C198613  16.624   5.353   6.306  0.1260  0.0134 -0.4117
49307OCT     C298614  16.724   5.431   5.834  0.4033 -0.3218 -0.0531
49308OCT     C198615  10.824   3.710   6.998 -0.0344 -0.3109 -0.1999
49308OCT     C298616  10.821   3.323   7.144  0.1695  0.0149 -0.0017
49309OCT     C198617   2.203   6.555  11.224  0.0871 -0.2435  0.1353
49309OCT     C298618   2.522   6.248  11.082 -0.0739  0.2379  0.0664
49310OCT     C198619  10.338   0.990   8.383 -0.0694  0.2872 -0.0200
49310OCT     C298620  10.198   0.620   8.127  0.1489 -0.2842  0.2064
49311OCT     C198621  17.361   8.094  19.223 -0.0387 -0.2065  0.0423
49311OCT     C298622  17.209   8.512  19.044  0.1748 -0.3181  0.2578
49312OCT     C198623   8.335   4.190   7.402 -0.2030  0.0549  0.1412
49312OCT     C298624   8.440   3.749   7.362 -0.0797  0.0272 -0.0801
49313OCT     C198625  21.842  23.133   9.158 -0.0505 -0.3907  0.0699
49313OCT     C298626  21.896  23.635   9.199 -0.3357 -0.0651  0.5988
49314OCT     C198627  17.817   4.694   2.434 -0.1367  0.1728 -0.1781
49314OCT     C298628  18.252   4.898   2.598  0.0750 -0.0126 -0.2981
49315OCT     C198629   9.032   5.879  14.437  0.1879  0.0524 -0.0646
49315OCT     C298630   8.947   5.436  14.309  0.3057 -0.1146  0.2051
49316OCT     C198631   7.707  18.317  10.522  0.0625  0.0434  0.0022
49316OCT     C298632   7.684  18.699  10.829 -0.0902 -0.2042  0.3075
49317OCT     C198633  19.773   1.640   5.046  0.1255 -0.2521  0.2806
49317OCT     C298634  19.880   1.384   4.673 -0.1330 -0.0014  0.0397
49318OCT     C198635  22.153  15.414  14.918 -0.4984  0.2303 -0.0756
49318OCT     C298636  22.456  15.574  14.622  0.2592  0.0016 -0.0405
49319OCT     C198637   2.365  13.248  19.026  0.3374 -0.2122  0.4739
49319OCT     C298638   2.515  13.298  19.448 -0.0898  0.0765 -0.0618
49320OCT     C198639  18.075   0.433  12.240 -0.2181  0.2574 -0.1376
49320OCT     C298640  17.782   0.696  12.541  0.1773 -0.0124  0.0342
49321OCT     C198641  13.344  23.391  21.520  0.1556 -0.1855 -0.2578
49321OCT     C298642  13.316   0.017  21.264  0.2979 -0.0142 -0.2165
49322OCT     C198643   4.860  23.578  23.506 -0.1077 -0.1930  0.3781
49322OCT     C298644   4.594  23.394  23.178 -0.0567  0.0209  0.0485
49323OCT     C198645   6.048  21.259  18.172 -0.1254  0.1297 -0.0330
49323OCT     C298646   5.634  21.530  18.066  0.2480  0.0213  0.0923
49324OCT     C198647  14.870   3.152  19.750 -0.0154 -0.3476 -0.2724
49324OCT     C298648  14.602   3.357  19.403 -0.1661 -0.1797  0.0312
49325OCT     C198649  10.308   3.380  19.339  0.3731 -0.2631 -0.0949
49325OCT     C298650   9.840   3.326  19.281  0.1660 -0.0862 -0.2502
49326OCT     C198651   2.799  18.559   2.298  0.1599 -0.0367 -0.1851
49326OCT     C298652   3.174  18.837   2.281 -0.1971  0.1548  0.0603
49327OCT     C198653   2.403  16.068  18.886  0.1460 -0.4564 -0.2493
49327OCT     C298654   2.056  15.986  18.600 -0.1392 -0.0390 -0.3507
49328OCT     C198655  19.351  12.076  16.343 -0.2135 -0.2242  0.0878
49328OCT     C298656  19.652  12.266  15.995  0.2989  0.2595  0.0763
49329OCT     C198657   3.241   3.609  13.873 -0.0899  0.1543  0.0330
49329OCT     C298658   2.790   3.679  13.972  0.1626 -0.1429  0.2969
49330OCT     C198659   3.938   0.718  17.995  0.0771 -0.2139  0.3809
49330OCT     C298660   3.846   1.083  17.808 -0.1016  0.4303  0.2167
49331OCT     C198661   8.415   7.408   6.858  0.1110  0.1870 -0.2991
49331OCT     C298662   8.741   7.338   7.188 -0.1449  0.3515 -0.2297
49332OCT     C198663   1.069  20.939   9.180 -0.0484 -0.1030 -0.0497
49332OCT     C298664   1.276  21.230   9.457  0.0616 -0.1565  0.1223
49333OCT     C198665  15.543  20.214  12.269 -0.0520 -0.1535  0.2696
49333OCT     C298666  15.087  20.146  12.154  0.3079  0.1536 -0.3318
49334OCT     C198667  18.717  15.756   3.909 -0.1762  0.2278  0.2277
49334OCT     C298668  18.505  15.342   3.988  0.1239  0.0229  0.4019
49335OCT     C198669  18.276  16.418   8.740 -0.1560 -0.0220 -0.0162
49335OCT     C298670  18.643  16.192   8.799 -0.2239  0.2352  0.0355
49336OCT     C198671  15.476  14.537   6.245 -0.2146 -0.0339  0.0931
49336OCT     C298672  15.160  14.820   6.031 -0.3126  0.0949 -0.0312
49337OCT     C198673  14.051  21.291   7.062 -0.1844  0.0207 -0.0477
49337OCT     C298674  14.087  20.841   7.039 -0.1074 -0.2306  0.2471
49338OCT     C198675   3.800  18.548   8.123 -0.0805 -0.0090 -0.1146
49338OCT     C298676   3.739  18.616   7.688 -0.1058 -0.0964  0.1129
49339OCT     C198677  18.242  22.534  19.395 -0.1106 -0.3378  0.1882
49339OCT     C298678  18.675  22.491  19.506 -0.0118 -0.2714  0.0119
49340OCT     C198679   9.201   7.664   0.978  0.1841 -0.1963  0.2829
49340OCT     C298680   9.515   7.480   1.265  0.1628  0.3181  0.1229
49341OCT     C198681   3.633  18.311   4.429  0.0824  0.1783 -0.2217
49341OCT     C298682   3.816  18.656   4.700 -0.1137  0.0290  0.1213
49342OCT     C198683  10.955  10.496   1.610 -0.1292  0.2547 -0.0145
49342OCT     C298684  11.204  10.243   1.242  0.0821  0.0954  0.3846
49343OCT     C198685   7.237   8.745  17.360  0.1769  0.1186 -0.1680
49343OCT     C298686   6.816   8.609  17.457 -0.1748  0.2302  0.2192
49344OCT     C198687   4.965   6.050  19.214  0.2157 -0.1680  0.1161
49344OCT     C298688   4.902   6.461  19.323  0.1244 -0.0294  0.0941
49345OCT     C198689   1.947   4.203   1.550  0.1176 -0.0127  0.2829
49345OCT     C298690   1.616   4.389   1.284  0.2006 -0.0574  0.2862
49346OCT     C198691  11.727   3.048  19.144 -0.0769 -0.2550 -0.3924
49346OCT     C298692  11.952   2.944  18.746 -0.2391  0.2010 -0.0544
49347OCT     C198693   1.889  23.522   9.130  0.0320  0.0468  0.2474
49347OCT     C298694   2.035  23.529   8.730  0.0279  0.1534  0.2459
49348OCT     C198695   1.313  13.085  15.333 -0.1296  0.3296 -0.3973
49348OCT     C298696   1.410  12.760  14.967 -0.3366  0.2498 -0.0426
49349OCT     C198697  15.152   9.434  19.247  0.2907 -0.0709  0.0476
49349OCT     C298698  14.866   9.792  19.425  0.3833 -0.0400 -0.0257
49350OCT     C198699  13.562   9.473  11.664  0.1770 -0.0745 -0.3127
49350OCT     C298700  13.237   9.162  11.639 -0.0797  0.4956  0.0216
49351OCT     C198701   2.803  11.018  17.417 -0.2845 -0.1756  0.5109
49351OCT     C298702   2.515  11.329  17.529  0.0197 -0.0414 -0.2205
49352OCT     C198703  13.659  14.788  10.967  0.0006  0.2252  0.1483
49352OCT     C298704  13.570  14.540  10.599  0.1157  0.1475  0.0806
49353OCT     C198705  22.154   7.618  10.298 -0.0260 -0.0672 -0.0579
49353OCT     C298706  21.830   7.659   9.933 -0.1591 -0.2949  0.2969
49354OCT     C198707  20.826   5.179  14.022 -0.0279  0.0124  0.2096
49354OCT     C298708  20.745   5.206  13.583 -0.3637 -0.2995 -0.1972
49355OCT     C198709   8.415  11.671   2.267  0.1982 -0.0523  0.1781
49355OCT     C298710   8.594  12.133   2.182 -0.0569  0.3521 -0.0671
49356OCT     C198711  23.493   3.405   4.723 -0.2282  0.1440 -0.1650
49356OCT     C298712  23.495   2.959   4.894 -0.0064  0.0017 -0.1208
49357OCT     C198713  21.058   3.102   0.122 -0.0954  0.2914  0.2687
49357OCT     C298714  21.076   3.426   0.419  0.0624  0.2288 -0.1057
49358OCT     C198715   5.375  15.680  18.463  0.3837 -0.1380  0.0897
49358OCT     C298716   5.508  15.268  18.496 -0.1091  0.2875  0.0589
49359OCT     C198717   8.346  19.937   1.830  0.1194  0.5783  0.5182
49359OCT     C298718   8.765  20.147   1.867 -0.2052  0.1711 -0.1168
49360OCT     C198719  20.520   4.539  15.917  0.0752  0.1000  0.2073
49360OCT     C298720  20.847   4.257  16.073  0.0416 -0.1365 -0.2164
49361OCT     C198721  11.315  11.205   3.169  0.1209  0.1644 -0.1350
49361OCT     C298722  10.931  11.107   3.351  0.0843 -0.2776 -0.1368
49362OCT     C198723   3.846  22.256  12.136  0.0562 -0.0102  0.2182
49362OCT     C298724   3.872  22.725  12.021 -0.1792 -0.0038  0.4730
49363OCT     C198725  23.147   6.314  22.948  0.2383  0.2362  0.0762
49363OCT     C298726  23.294   6.000  23.204  0.0028  0.1218 -0.0931
49364OCT     C198727  12.951  12.451  12.340 -0.2921  0.0091  0.0378
49364OCT     C298728  12.717  12.233  12.069 -0.1538 -0.1164 -0.2978
49365OCT     C198729   4.906   3.911  22.811  0.1343 -0.0112  0.2423
49365OCT     C298730   4.565   3.614  22.911 -0.4011 -0.2237 -0.1784
49366OCT     C198731   6.552   2.746   0.758 -0.1419 -0.1727  0.1993
49366OCT     C298732   6.440   2.539   1.180 -0.0783  0.0434 -0.0352
49367OCT     C198733  13.214   2.137  18.901  0.0725 -0.3736  0.0415
49367OCT     C298734  12.794   2.167  19.042 -0.0050 -0.0918 -0.0585
49368OCT     C198735  10.525  18.618  22.470 -0.3001  0.0629 -0.1838
49368OCT     C298736  10.395  18.255  22.749  0.3097  0.2801 -0.0090
49369OCT     C198737   4.011   7.135  20.427 -0.4463 -0.0377  0.3519
49369OCT     C298738   3.639   7.350  20.422  0.4735  0.0738  0.1745
49370OCT     C198739   6.499   4.558   1.234 -0.1681 -0.1440  0.0683
49370OCT     C298740   6.433   4.542   0.748  0.2777 -0.1232 -0.1238
49371OCT     C198741  21.204  18.823  15.452 -0.2143  0.0941 -0.4184
49371OCT     C298742  21.359  18.636  15.046 -0.5900  0.0106 -0.1735
49372OCT     C198743  19.856   0.457  13.650 -0.1323 -0.0532  0.1263
49372OCT     C298744  19.630   0.308  13.296  0.1474  0.3090 -0.0151
49373OCT     C198745  14.277  13.693  20.907 -0.0060 -0.1549 -0.1492
49373OCT     C298746  14.372  14.137  20.876  0.2916  0.0466  0.0616
49374OCT     C198747  21.718   1.988  22.606 -0.2379 -0.0514 -0.1679
49374OCT     C298748  21.954   1.693  22.911  0.0502  0.1334 -0.0421
49375OCT     C198749   2.663  19.514  22.357 -0.1595  0.1514 -0.2527
49375OCT     C298750   2.300  19.427  22.638 -0.1035  0.2907 -0.0323
49376OCT     C198751  22.758   9.392   4.309  0.2471 -0.3849 -0.0619
49376OCT     C298752  22.460   9.370   4.682 -0.1819  0.0555 -0.0960
49377OCT     C198753  17.928   2.531  11.999  0.2151 -0.1070  0.0146
49377OCT     C298754  18.117   2.511  12.387 -0.0780  0.1711 -0.3216
49378OCT     C198755   1.812  22.310  14.155  0.0596  0.1021 -0.0030
49378OCT     C298756   1.465  22.082  13.836 -0.2739 -0.2749 -0.2313
49379OCT     C198757   2.921   8.364  19.032  0.1155 -0.1957 -0.1287
49379OCT     C298758   2.523   8.086  18.998 -0.1660  0.3289 -0.0668
49380OCT     C198759  15.229   5.102  23.410 -0.1023  0.0645 -0.2217
49380OCT     C298760  14.790   5.202  23.367  0.0106  0.1365 -0.2990
49381OCT     C198761  22.936   9.097  14.183  0.0108 -0.0495  0.0972
49381OCT     C298762  22.688   9.338  13.885 -0.0140 -0.0372 -0.1591
49382OCT     C198763   5.992  16.740   0.402  0.2382  0.3369 -0.0554
49382OCT     C298764   5.790  16.810  23.722 -0.0504  0.2946 -0.1813
49383OCT     C198765   2.972   8.075   6.637  0.0195  0.0624 -0.2502
49383OCT     C298766   3.283   7.713   6.783  0.3516  0.3292 -0.0775
49384OCT     C198767   7.508  23.592  11.056 -0.2823  0.2158 -0.0326
49384OCT     C298768   7.215  23.375  10.783  0.0121 -0.1118  0.0146
49385OCT     C198769  11.448   3.967   1.853 -0.1321 -0.0879 -0.2753
49385OCT     C298770  11.189   3.526   1.860  0.1252  0.2704 -0.2585
49386OCT     C198771  10.077   2.988   6.752  0.2147 -0.1751 -0.0040
49386OCT     C298772   9.659   3.219   6.790  0.4789  0.1371 -0.1302
49387OCT     C198773   4.242   2.366  14.115  0.1477  0.1673 -0.3464
49387OCT     C298774   4.582   2.034  14.072  0.0072  0.0289  0.0004
49388OCT     C198775   5.883  15.464  10.331 -0.1455 -0.3128 -0.1046
49388OCT     C298776   5.774  15.042  10.469 -0.1130 -0.1732  0.2352
49389OCT     C198777  17.407   7.284   0.466  0.4239 -0.1272  0.1554
49389OCT     C298778  17.726   7.230   0.100 -0.0734 -0.1216 -0.0164
49390OCT     C198779  14.439  10.543  22.175 -0.3738 -0.0897  0.2780
49390OCT     C298780  14.438  10.198  22.561  0.0269  0.1424 -0.3525
49391OCT     C198781  14.576   2.446  16.666 -0.1520  0.2868  0.1501
49391OCT     C298782  14.845   2.192  16.984 -0.0524 -0.0633 -0.0708
49392OCT     C198783   2.872   6.132   7.656  0.4833  0.1697  0.3365
49392OCT     C298784   2.478   5.997   7.944 -0.3089  0.1175  0.2918
49393OCT     C198785  11.708  11.821  11.715  0.0305  0.1462  0.1431
49393OCT     C298786  11.463  11.896  11.306  0.2434 -0.0371  0.0805
49394OCT     C198787  13.028  19.175  17.511  0.1010 -0.3469  0.2406
49394OCT     C298788  12.969  18.786  17.622  0.3254 -0.3955 -0.0790
49395OCT     C198789   7.313  13.159   0.824  0.0298  0.3304  0.2295
49395OCT     C298790   7.111  13.516   0.612  0.0079 -0.3963 -0.0596
49396OCT     C198791   7.260  11.875  20.093  0.2194 -0.0491  0.0782
49396OCT     C298792   7.722  11.916  20.070  0.2153  0.1326 -0.3651
49397OCT     C198793  13.114  15.928  14.847 -0.1322 -0.1029  0.0226
49397OCT     C298794  13.186  16.328  15.079  0.2257  0.3172  0.0869
49398OCT     C198795   4.381  17.095  22.347 -0.0093 -0.0392  0.0231
49398OCT     C298796   4.632  16.742  22.383 -0.0433 -0.2667  0.0307
49399OCT     C198797  10.432   0.713  11.636  0.3565 -0.1256  0.1174
49399OCT     C298798  10.642   0.992  11.421 -0.3576  0.6192  0.4545
49400OCT     C198799  23.715   0.365  11.478 -0.1901  0.1613 -0.1123
49400OCT     C298800  23.408   0.700  11.481  0.0406  0.0242 -0.0222
49401OCT     C198801  23.133   0.407   4.798  0.2652  0.1009  0.1727
49401OCT     C298802  22.812   0.366   4.478  0.0727 -0.1680 -0.2401
49402OCT     C198803   3.133  18.256  17.698 -0.2659 -0.0657 -0.2270
49402OCT     C298804   2.741  18.396  17.556  0.0498  0.2412 -0.0341
49403OCT     C198805  11.211   8.973  12.447 -0.0537 -0.0072 -0.2815
49403OCT     C298806  11.435   9.173  12.102 -0.2621  0.1968  0.1003
49404OCT     C198807  14.211  21.095   6.580 -0.0765 -0.1754 -0.0712
49404OCT     C298808  13.744  21.030   6.629  0.3179 -0.3088 -0.0386
49405OCT     C198809  21.764  14.090  11.593 -0.0592 -0.8627  0.1333
49405OCT     C298810  21.662  14.610  11.624 -0.0080  0.0474 -0.0794
49406OCT     C198811  16.019  19.664  11.878 -0.1247 -0.1137  0.1206
49406OCT     C298812  15.584  19.509  12.021  0.0280 -0.2118 -0.0413
49407OCT     C198813  15.297   8.501   0.910 -0.0826  0.1978 -0.3126
49407OCT     C298814  15.127   8.061   0.802 -0.1828  0.0905  0.0941
49408OCT     C198815  18.695  20.396   8.200 -0.3350  0.0304 -0.1545
49408OCT     C298816  18.998  20.757   8.044 -0.0231  0.0248 -0.2541
49409OCT     C198817  23.401  18.006  21.535  0.0487 -0.1395  0.1575
49409OCT     C298818  22.891  18.045  21.544  0.0702 -0.0878 -0.0579
49410OCT     C198819  19.895   3.860   7.061 -0.1519 -0.2812  0.1009
49410OCT     C298820  20.088   4.270   6.848 -0.2344  0.0083 -0.4354
49411OCT     C198821  10.935  14.758  17.571  0.2830 -0.1073 -0.1217
49411OCT     C298822  10.579  14.452  17.637 -0.0744 -0.1948 -0.1166
49412OCT     C198823  16.114  13.282  16.897  0.0632 -0.3194  0.3541
49412OCT     C298824  16.179  13.349  17.360  0.2423 -0.0252  0.0787
49413OCT     C198825  18.950  10.599  11.230  0.0594 -0.0763 -0.1489
49413OCT     C298826  18.754  10.990  11.071 -0.0845 -0.0292  0.2670
49414OCT     C198827  10.886   9.285  12.273 -0.2165 -0.0728  0.3481
49414OCT     C298828  11.240   9.591  12.335  0.1016 -0.1413 -0.3832
49415OCT     C198829   8.391   4.903  18.533 -0.1022  0.1250 -0.3370
49415OCT     C298830   7.902   4.968  18.615  0.2204  0.1476  0.2397
49416OCT     C198831  10.816   2.926   4.765  0.2277 -0.0978 -0.0753
49416OCT     C298832  10.475   3.157   4.994  0.2112  0.0321 -0.0109
49417OCT     C198833  22.781  14.367  22.856  0.1261 -0.0210 -0.1155
49417OCT     C298834  22.675  14.016  23.157  0.4269  0.0032  0.1848
49418OCT     C198835   4.126   3.595  16.612  0.0528  0.2002  0.3764
49418OCT     C298836   4.137   3.956  16.307  0.2037  0.3364 -0.1517
49419OCT     C198837  16.615  11.720   5.657 -0.1087  0.3039 -0.4403
49419OCT     C298838  16.272  12.025   5.784 -0.2127  0.2862  0.2137
49420OCT     C198839   5.603  10.238   0.752 -0.0525  0.0682  0.1765
49420OCT     C298840   5.709   9.858   1.000  0.2410 -0.1547  0.3795
49421OCT     C198841   2.837  19.267  11.080  0.1415 -0.1412 -0.0295
49421OCT     C298842   3.221  19.130  11.305 -0.0665 -0.0270  0.2184
49422OCT     C198843  11.633  10.983  21.365  0.1815 -0.3031 -0.2496
49422OCT     C298844  12.008  10.698  21.359  0.0443  0.0208 -0.3045
49423OCT     C198845   2.407  16.532  13.359  0.1058  0.0122  0.0940
49423OCT     C298846   2.517  16.936  13.111  0.2808  0.1930  0.0849
49424OCT     C198847  12.027   7.275   5.553  0.0524 -0.0713 -0.4630
49424OCT     C298848  11.667   6.990   5.366 -0.1387  0.4209 -0.1762
49425OCT     C198849  19.796   9.049   4.777 -0.2098 -0.5601 -0.1691
49425OCT     C298850  19.891   8.803   5.138 -0.2572  0.1409  0.1267
49426OCT     C198851  20.640   7.220  20.540 -0.1436 -0.0875 -0.1107
49426OCT     C298852  20.411   7.500  20.847  0.0411 -0.0223  0.2671
49427OCT     C198853   1.910   4.492   9.003  0.2014 -0.3202 -0.3186
49427OCT     C298854   1.728   4.392   8.608 -0.1836 -0.2661 -0.0623
49428OCT     C198855  14.486  16.692   5.404  0.1148  0.2787  0.2142
49428OCT     C298856  14.214  16.948   5.116 -0.1335 -0.0863  0.1146
49429OCT     C198857  17.452   0.343   0.008 -0.0212 -0.0117 -0.1617
49429OCT     C298858  17.402   0.441  23.272  0.2067 -0.0449  0.0107
49430OCT     C198859   2.555   0.895  17.662 -0.1426  0.1341 -0.1740
49430OCT     C298860   2.207   0.576  17.591  0.1108 -0.1710  0.0573
49431OCT     C198861   7.699   1.433   9.909 -0.1478  0.2003  0.4871
49431OCT     C298862   7.463   1.321   9.482  0.0723 -0.0232 -0.1118
49432OCT     C198863   4.590   3.066  16.770 -0.1580  0.3714  0.0032
49432OCT     C298864   4.439   2.968  17.217  0.1904 -0.4653 -0.5374
49433OCT     C198865  16.228  20.231  11.967  0.1952 -0.0570  0.1225
49433OCT     C298866  16.638  20.284  12.148 -0.1860  0.0304  0.0018
49434OCT     C198867  13.170  17.887   9.171 -0.0714 -0.0863 -0.3116
49434OCT     C298868  13.034  18.225   9.442  0.0792 -0.2038  0.0380
49435OCT     C198869   8.183   0.654   3.059 -0.1868 -0.0180 -0.1295
49435OCT     C298870   8.288   0.382   3.399 -0.1821 -0.1189  0.4463
49436OCT     C198871  23.551   0.747  14.828 -0.2483  0.0712  0.0821
49436OCT     C298872  23.322   0.633  15.218 -0.2112  0.3103 -0.2770
49437OCT     C198873  17.924   7.659   9.707 -0.2754 -0.0030  0.4010
49437OCT     C298874  17.645   7.231   9.810 -0.1218 -0.2146 -0.2902
49438OCT     C198875  19.173  17.111   2.482 -0.0149  0.0026  0.0899
49438OCT     C298876  18.774  17.246   2.695  0.1897 -0.2133  0.1131
49439OCT     C198877  10.241  10.120  21.009  0.1229  0.3217 -0.3461
49439OCT     C298878   9.956  10.218  20.652  0.0575  0.2244 -0.1501
49440OCT     C198879  10.394  19.375  17.468  0.3066  0.0833 -0.1702
49440OCT     C298880  10.237  19.346  17.880  0.2555  0.5047  0.0117
49441OCT     C198881  19.152   4.725   6.448 -0.2350 -0.2722  0.0087
49441OCT     C298882  18.998   4.456   6.076  0.1148 -0.0595  0.2607
49442OCT     C198883  13.256  10.857  19.218 -0.2740  0.2449  0.0356
49442OCT     C298884  13.139  10.487  19.507  0.2295  0.1051 -0.3855
49443OCT     C198885  22.095  10.171  22.413 -0.0075  0.0769 -0.2603
49443OCT     C298886  22.427  10.137  22.759  0.0005  0.1775  0.2426
49444OCT     C198887  12.210   3.640   3.583 -0.0178  0.3549 -0.0909
49444OCT     C298888  12.700   3.682   3.739  0.1220 -0.1762  0.1415
49445OCT     C198889  21.904   9.283   3.489 -0.0746  0.1358 -0.0299
49445OCT     C298890  22.131   9.165   3.102 -0.0756 -0.2024 -0.1794
49446OCT     C198891  16.749   2.245  17.347  0.0367 -0.1552 -0.1562
49446OCT     C298892  16.485   1.933  17.509 -0.1085 -0.3004  0.0911
49447OCT     C198893  20.343  23.683  17.076  0.1267  0.0990 -0.3739
49447OCT     C298894  20.180   0.070  17.465 -0.1473 -0.2615 -0.6689
49448OCT     C198895  17.428  15.119  18.908 -0.3791  0.2385 -0.3742
49448OCT     C298896  17.707  15.408  19.193 -0.0478 -0.2409  0.1385
49449OCT     C198897  21.186   9.411  10.940 -0.1472  0.1049 -0.1384
49449OCT     C298898  21.017   9.047  10.644 -0.0087  0.2012 -0.0138
49450OCT     C198899   2.732  14.511  13.463 -0.0171 -0.0102  0.0157
49450OCT     C298900   2.411  14.194  13.223  0.0267  0.0429 -0.0585
49451OCT     C198901  10.796   2.562  11.976 -0.1031  0.2763  0.0442
49451OCT     C298902  10.485   2.558  12.368 -0.2835  0.1633 -0.0955
49452OCT     C198903  23.621   2.804   1.633  0.3731 -0.2047  0.2955
49452OCT     C298904  23.536   2.752   1.166  0.2668 -0.0057 -0.1812
49453OCT     C198905   6.172   4.346  11.478  0.1111 -0.0232 -0.0087
49453OCT     C298906   5.968   4.771  11.404  0.5156  0.1183  0.0804
49454OCT     C198907  10.243   4.480  13.713 -0.0670  0.0647 -0.2292
49454OCT     C298908  10.585   4.513  14.085  0.1628  0.2560  0.1701
49455OCT     C198909  18.791  20.836   5.279 -0.2324  0.2407 -0.1347
49455OCT     C298910  18.699  21.102   4.942  0.5362 -0.2802 -0.0411
49456OCT     C198911  19.970  20.498   7.414 -0.2096 -0.0464 -0.2966
49456OCT     C298912  20.092  20.335   7.799 -0.3734  0.3110 -0.2928
49457OCT     C198913  23.242   0.993  11.125 -0.3045 -0.0642 -0.0237
49457OCT     C298914  23.458   1.232  11.466 -0.1808 -0.1406 -0.0731
49458OCT     C198915   7.892  10.466  10.119 -0.1898 -0.1156 -0.1021
49458OCT     C298916   8.118  10.161   9.871 -0.0022 -0.6247 -0.1668
49459OCT     C198917   0.653   4.075  12.653 -0.0461  0.0979  0.3399
49459OCT     C298918   0.742   4.464  12.932  0.0912 -0.0922  0.0782
49460OCT     C198919  21.409  23.079  17.697  0.0503 -0.0719  0.1437
49460OCT     C298920  21.105  22.803  17.931 -0.0773 -0.1316  0.0852
49461OCT     C198921  19.447  13.582  10.774 -0.2425  0.0740  0.1635
49461OCT     C298922  19.401  14.022  10.907 -0.1856  0.0334  0.2022
49462OCT     C198923   7.778  17.485   0.022 -0.1775 -0.3873  0.0829
49462OCT     C298924   7.598  17.131  23.619 -0.0081  0.2971 -0.0140
49463OCT     C198925  13.167  16.290  22.599  0.0068  0.1176  0.4446
49463OCT     C298926  12.857  16.296  22.251  0.0073 -0.1483 -0.1659
49464OCT     C198927   7.541  18.696  11.301 -0.1047  0.0846  0.0942
49464OCT     C298928   7.968  18.892  11.236 -0.1029 -0.4556  0.0496
49465OCT     C198929  22.907  10.166  10.100 -0.0911  0.2001  0.1227
49465OCT     C298930  23.131  10.466  10.390 -0.3583  0.4043 -0.0643
49466OCT     C198931   6.000   6.918   5.621  0.0956  0.0731 -0.2878
49466OCT     C298932   5.666   6.776   5.375  0.3774 -0.0195  0.4368
49467OCT     C198933   9.214   1.143   0.534  0.0199 -0.2653 -0.1028
49467OCT     C298934   9.389   1.381   0.155 -0.4133 -0.0218 -0.4652
49468OCT     C198935   6.200   2.051   5.917  0.1871 -0.0414  0.1672
49468OCT     C298936   5.887   2.046   6.205  0.0110 -0.5147 -0.1909
49469OCT     C198937  11.234   5.049  22.389  0.0818 -0.1720  0.0863
49469OCT     C298938  11.134   4.842  21.969 -0.1558 -0.1182  0.1064
49470OCT     C198939  14.115  18.409  14.256 -0.0613 -0.0709  0.0268
49470OCT     C298940  14.195  18.680  14.628 -0.2316  0.1886 -0.1132
49471OCT     C198941  14.622  15.146  17.442 -0.2605 -0.2632 -0.0343
49471OCT     C298942  14.381  15.481  17.644  0.3006  0.3200  0.0389
49472OCT     C198943  23.084   4.729   1.206  0.0430  0.0050  0.1467
49472OCT     C298944  23.323   5.093   1.207  0.0302  0.0640 -0.1124
49473OCT     C198945   6.563  11.339  10.829  0.2363 -0.0424  0.2184
49473OCT     C298946   6.305  11.452  10.443  0.0763 -0.2394 -0.1481
49474OCT     C198947   8.351  19.778   2.338 -0.0409  0.1442 -0.2355
49474OCT     C298948   8.549  20.221   2.364 -0.0392  0.0711 -0.0436
49475OCT     C198949   6.531  14.714   8.331 -0.3955  0.0405  0.0160
49475OCT     C298950   6.085  14.904   8.328 -0.1008 -0.2206  0.4368
49476OCT     C198951   5.176   8.822   3.495 -0.1050 -0.2346  0.2008
49476OCT     C298952   4.792   8.587   3.777 -0.1418 -0.1036  0.3419
49477OCT     C198953   0.470  19.434  10.486 -0.0310 -0.3259 -0.2563
49477OCT     C298954   0.963  19.442  10.430 -0.1690  0.2798 -0.0305
49478OCT     C198955  12.944   4.571  10.127 -0.4001 -0.2644  0.2844
49478OCT     C298956  13.387   4.363  10.018  0.0366  0.0518  0.0258
49479OCT     C198957   0.788   3.724  14.133 -0.0307 -0.0155  0.2048
49479OCT     C298958   0.416   3.448  14.200  0.2054  0.0789  0.1578
49480OCT     C198959   4.557  12.420   1.705  0.0075 -0.2114  0.1629
49480OCT     C298960   4.361  12.376   1.267 -0.2264 -0.0500  0.2477
49481OCT     C198961  17.929   9.604   7.733  0.2010  0.4046  0.3663
49481OCT     C298962  17.678   9.771   7.374 -0.3927 -0.0608 -0.1139
49482OCT     C198963   5.187   3.922  18.556  0.0931 -0.1475 -0.0320
49482OCT     C298964   5.150   4.247  18.221 -0.0838 -0.3782  0.0135
49483OCT     C198965  18.384   6.991   4.300  0.0788  0.1382  0.2760
49483OCT     C298966  18.828   6.857   4.447  0.0824 -0.1102 -0.3784
49484OCT     C198967  17.314   7.271  16.466 -0.1400  0.0118 -0.4014
49484OCT     C298968  17.368   7.615  16.200  0.0239 -0.0217  0.3042
49485OCT     C198969  20.731   8.668   9.847  0.0648 -0.3306  0.3477
49485OCT     C298970  20.260   8.697  10.012  0.2542  0.0254  0.0227
49486OCT     C198971  11.228  14.286  17.724 -0.2507  0.1618 -0.0892
49486OCT     C298972  10.950  13.936  17.576 -0.2336  0.2019 -0.0159
49487OCT     C198973  11.766   1.686  17.123  0.0667  0.0344 -0.1431
49487OCT     C298974  11.598   1.714  16.672  0.2815 -0.2443  0.0427
49488OCT     C198975  16.154  17.723  13.528  0.1353  0.0765  0.1576
49488OCT     C298976  15.781  17.819  13.245 -0.1638  0.0030  0.0524
49489OCT     C198977   9.785   0.838  21.640  0.1219 -0.1846  0.2154
49489OCT     C298978   9.988   0.433  21.766 -0.3194 -0.0018 -0.0210
49490OCT     C198979   6.049  23.319  18.776  0.0663  0.0249  0.2922
49490OCT     C298980   5.658  23.032  18.862 -0.0515  0.0078 -0.0401
49491OCT     C198981   0.261  22.409  20.354  0.1671  0.0726 -0.3266
49491OCT     C298982   0.166  22.079  20.078 -0.3315 -0.0685  0.0201
49492OCT     C198983  14.845   7.361   1.694 -0.3242  0.2118  0.0095
49492OCT     C298984  14.628   7.185   1.307 -0.0721  0.1080  0.2528
49493OCT     C198985  17.255   5.444   5.064 -0.4302 -0.4290 -0.0037
49493OCT     C298986  17.404   5.745   4.823 -0.1488  0.0353 -0.1724
49494OCT     C198987   8.694   7.925   5.350  0.0449 -0.0415  0.3205
49494OCT     C298988   8.471   7.554   5.173  0.0902  0.0123  0.0100
49495OCT     C198989   8.879   2.676   2.044 -0.1640 -0.1667  0.0957
49495OCT     C298990   9.317   2.714   1.867  0.0861  0.1134  0.1256
49496OCT     C198991  20.683  21.336  19.981 -0.2336 -0.1657  0.2560
49496OCT     C298992  20.765  21.760  20.200 -0.2225 -0.2239  0.3545
49497OCT     C198993   4.212  18.929  13.216 -0.1592 -0.2794 -0.1940
49497OCT     C298994   4.580  18.838  13.478 -0.2796 -0.1067 -0.1011
49498OCT     C198995  17.247  14.038  14.931  0.3179 -0.1679  0.1322
49498OCT     C298996  17.642  13.781  14.961 -0.6320  0.1964  0.1654
49499OCT     C198997   7.601   9.438  23.428  0.3034 -0.0846 -0.0801
49499OCT     C298998   7.390   9.807  23.614 -0.4810  0.1021  0.3300
49500OCT     C198999   0.988  18.805  23.636  0.0281  0.3539 -0.3532
49500OCT     C299000   0.630  19.101  23.566 -0.2739  0.3040  0.0473
49501OCT     C199001  10.616  23.120   9.452 -0.0380  0.1682  0.1554
49501OCT     C299002  10.742  23.435   9.160  0.0063 -0.2548  0.0111
49502OCT     C199003   4.675   1.017  12.936  0.1849 -0.2779  0.0994
49502OCT     C299004   5.008   1.224  13.231  0.3371  0.3826 -0.3840
49503OCT     C199005  23.413   5.012   5.507 -0.0694 -0.0486  0.2192
49503OCT     C299006   0.017   4.723   5.298  0.0959  0.0693 -0.4556
49504OCT     C199007  18.006   4.969  17.905 -0.1141  0.1391 -0.0861
49504OCT     C299008  18.186   5.356  17.718 -0.3867  0.1127 -0.0777
49505OCT     C199009  20.306  20.839   0.477 -0.0261 -0.0836  0.1591
49505OCT     C299010  19.993  21.136   0.303  0.0998  0.1578  0.2590
49506OCT     C199011  22.360  11.397  11.582  0.0447  0.2788  0.0470
49506OCT     C299012  22.135  11.821  11.595  0.0658 -0.0564 -0.1867
49507OCT     C199013   2.396  18.266   0.295  0.0267 -0.1675 -0.1265
49507OCT     C299014   2.436  18.051   0.698  0.1915  0.0132  0.1109
49508OCT     C199015   8.200  15.536   4.184  0.1426  0.2700 -0.1643
49508OCT     C299016   8.366  15.966   4.138 -0.0407 -0.0717  0.2707
49509OCT     C199017  17.280   0.777  22.069 -0.0643 -0.0346  0.1788
49509OCT     C299018  17.371   0.750  21.622 -0.0309 -0.0454  0.0511
49510OCT     C199019   2.993  23.510  11.194 -0.1116 -0.3244 -0.2054
49510OCT     C299020   3.259   0.075  11.457  0.1721 -0.2272 -0.1817
49511OCT     C199021  20.235   9.615  12.012  0.0453 -0.0051  0.1409
49511OCT     C299022  20.638   9.311  12.143 -0.0105 -0.0379 -0.3104
49512OCT     C199023   0.213  18.398  19.901  0.0683 -0.0881  0.0891
49512OCT     C299024   0.142  18.847  20.098  0.2491  0.1369  0.1814
49513OCT     C199025   7.126   5.206   9.249  0.1645 -0.1280 -0.0017
49513OCT     C299026   7.543   5.443   9.304 -0.1577 -0.2205 -0.1097
49514OCT     C199027  10.950  21.816   5.727  0.0649 -0.1614 -0.1062
49514OCT     C299028  11.167  22.065   5.416  0.0313  0.4039 -0.0174
49515OCT     C199029   3.260  16.019  18.551  0.1442  0.2979 -0.2258
49515OCT     C299030   2.820  16.074  18.407  0.3635  0.2888  0.1133
49516OCT     C199031   1.838   8.245   6.949 -0.5074  0.1634  0.0363
49516OCT     C299032   2.149   7.918   6.806 -0.1356  0.1778  0.0589
49517OCT     C199033  23.431  16.379  18.253  0.2707  0.1326  0.0981
49517OCT     C299034  23.118  16.390  18.563  0.0595 -0.1653 -0.1368
49518OCT     C199035   9.686   1.810   0.910 -0.0737  0.1752  0.0042
49518OCT     C299036   9.605   1.412   0.677  0.0374  0.2921 -0.3177
49519OCT     C199037  20.142   9.514   1.026 -0.0664 -0.1961 -0.0533
49519OCT     C299038  20.153   9.949   1.171  0.3896 -0.2057 -0.0749
49520OCT     C199039  10.567  13.494   2.680 -0.1444  0.1409 -0.1631
49520OCT     C299040  10.710  13.731   2.245  0.1142  0.0961  0.0121
49521OCT     C199041  23.195  18.568  10.852 -0.3042  0.3675 -0.0626
49521OCT     C299042  23.506  18.505  11.224  0.1565 -0.0052 -0.3595
49522OCT     C199043  14.806  10.757   3.545 -0.3914 -0.0080  0.1121
49522OCT     C299044  15.236  10.915   3.635 -0.0535  0.1207  0.3705
49523OCT     C199045   6.654   0.860   0.648 -0.1811  0.0891  0.0168
49523OCT     C299046   6.596   0.666   1.028  0.2298  0.1001 -0.1196
49524OCT     C199047  12.716  10.076  21.868 -0.0773  0.0531  0.0287
49524OCT     C299048  13.099  10.218  22.187  0.2793 -0.2409  0.2021
49525OCT     C199049  16.353  23.688   6.739 -0.2186 -0.3608 -0.0567
49525OCT     C299050  16.441   0.039   6.237  0.0721  0.1263 -0.0661
49526OCT     C199051  15.037  21.829   1.871  0.2163  0.0100 -0.3345
49526OCT     C299052  14.781  22.191   1.688 -0.3323 -0.0454 -0.0457
49527OCT     C199053   9.344   3.856  22.930  0.3108  0.3024 -0.1317
49527OCT     C299054   9.652   3.782  23.262  0.0514 -0.1139  0.0644
49528OCT     C199055  15.779  10.571  15.512  0.0182  0.2586  0.1394
49528OCT     C299056  15.595  10.758  15.146 -0.0426  0.0233 -0.1326
49529OCT     C199057  17.954  21.634  18.955  0.0331 -0.3462  0.2934
49529OCT     C299058  17.574  21.628  18.682 -0.1146 -0.1836 -0.3014
49530OCT     C199059  12.629  19.131  19.480 -0.1549 -0.1164 -0.3734
49530OCT     C299060  12.662  19.330  18.994  0.0941  0.1802  0.1028
49531OCT     C199061   6.127  15.663   6.090 -0.1597  0.0742 -0.0663
49531OCT     C299062   6.277  16.150   5.984 -0.2774  0.1380 -0.2424
49532OCT     C199063  12.817   2.302  12.341 -0.1452  0.2626  0.1057
49532OCT     C299064  12.689   2.475  12.773 -0.2204 -0.2901 -0.2930
49533OCT     C199065  22.152   5.140  22.565  0.2601 -0.0509 -0.0816
49533OCT     C299066  22.233   5.181  22.072 -0.2406 -0.1665  0.1233
49534OCT     C199067  19.164  16.212  21.123 -0.0350 -0.4443 -0.1919
49534OCT     C299068  18.997  16.294  20.683  0.4118 -0.2069 -0.0178
49535OCT     C199069   8.619  12.014   7.016 -0.1688  0.2905  0.4517
49535OCT     C299070   8.969  12.281   7.086  0.1785  0.3313  0.1209
49536OCT     C199071  22.542   8.611  22.048  0.2767 -0.2157 -0.0348
49536OCT     C299072  22.616   8.660  22.504 -0.0490  0.2000  0.0446
49537OCT     C199073  20.558  21.216  15.102 -0.0362 -0.1278 -0.1307
49537OCT     C299074  20.337  21.122  15.527  0.1557 -0.0083 -0.2498
49538OCT     C199075   5.700   1.828  13.383 -0.0210 -0.1878  0.2195
49538OCT     C299076   5.849   1.371  13.320  0.0890  0.6519  0.0391
49539OCT     C199077   0.737   9.606   9.865 -0.1907 -0.2348  0.4088
49539OCT     C299078   0.588  10.038   9.936  0.0562  0.6132  0.3326
49540OCT     C199079  17.857  17.272  22.650  0.0336 -0.4076 -0.4265
49540OCT     C299080  18.285  17.037  22.648  0.1967  0.2571 -0.2663
49541OCT     C199081   1.050   3.313  17.701  0.1804  0.0992 -0.1227
49541OCT     C299082   0.923   2.900  17.823  0.2548  0.2663 -0.5490
49542OCT     C199083  12.224   4.757   1.182  0.2039 -0.1452  0.3917
49542OCT     C299084  11.879   4.474   1.204  0.2077  0.2298  0.0568
49543OCT     C199085  15.534  14.832   0.013 -0.2019  0.2691  0.2253
49543OCT     C299086  15.544  15.090  23.398 -0.1339  0.0297  0.4169
49544OCT     C199087   4.402   9.356  15.480  0.0141  0.0169  0.2011
49544OCT     C299088   4.206   9.325  15.902 -0.0500 -0.0725 -0.0385
49545OCT     C199089   1.421  15.411  14.589 -0.1317  0.2436 -0.0746
49545OCT     C299090   1.791  15.566  14.343  0.0323 -0.1336  0.3667
49546OCT     C199091  18.634  19.827   6.016 -0.3070  0.1234 -0.3881
49546OCT     C299092  18.395  20.107   6.330  0.1168 -0.0271 -0.3719
49547OCT     C199093   1.362   1.330   3.387 -0.0358  0.1892  0.1022
49547OCT     C299094   1.387   1.649   3.728  0.0187 -0.0022  0.0982
49548OCT     C199095   9.489  20.844  19.946  0.0219  0.1408 -0.3765
49548OCT     C299096   9.883  20.705  20.126  0.3161  0.1529 -0.1540
49549OCT     C199097  18.317  12.612  18.827 -0.0672 -0.2136 -0.2888
49549OCT     C299098  18.624  12.934  18.785  0.1949 -0.3300  0.2184
49550OCT     C199099  17.659  23.570  21.612 -0.1803  0.5004 -0.1514
49550OCT     C299100  17.278  23.592  21.991 -0.2544  0.5261  0.1570
49551OCT     C199101  17.544  11.213  16.662  0.0897 -0.0167  0.0159
49551OCT     C299102  17.503  11.519  16.997 -0.3185 -0.1140 -0.2296
49552OCT     C199103  20.488  13.445  14.090 -0.1009  0.0638 -0.3142
49552OCT     C299104  20.536  13.843  13.792 -0.0616 -0.0895  0.2575
49553OCT     C199105   0.552  15.531   5.132 -0.3491 -0.3675  0.0020
49553OCT     C299106   0.495  15.929   4.879  0.0622  0.1193 -0.1072
49554OCT     C199107   9.442  21.741   1.165 -0.0262 -0.1096  0.2967
49554OCT     C299108   9.629  21.474   1.517 -0.2845  0.1140  0.0463
49555OCT     C199109   6.553  14.718  21.079  0.1342  0.1212  0.3937
49555OCT     C299110   6.335  14.492  21.421  0.3473 -0.5062  0.2525
49556OCT     C199111   7.720  22.725  23.296 -0.1427  0.1091  0.2099
49556OCT     C299112   7.310  22.927  23.392  0.0608 -0.0074  0.0814
49557OCT     C199113   9.249   7.113   8.016 -0.1404 -0.4906 -0.0887
49557OCT     C299114   9.088   6.903   8.399  0.2952 -0.2708  0.3942
49558OCT     C199115   1.718  18.450  12.323 -0.1533 -0.1205  0.2369
49558OCT     C299116   1.875  18.602  12.740 -0.0002 -0.0457 -0.0573
49559OCT     C199117  10.372   2.765  16.331 -0.0469  0.1529  0.2915
49559OCT     C299118  10.657   2.865  16.620 -0.1392 -0.0417  0.0077
49560OCT     C199119  10.956  11.564   6.667  0.1104  0.1363  0.0942
49560OCT     C299120  10.561  11.589   6.976  0.1358  0.0298 -0.2373
49561OCT     C199121  18.246  22.461  14.181  0.2441  0.2591  0.2270
49561OCT     C299122  18.079  22.587  14.607 -0.1407 -0.0204 -0.0961
49562OCT     C199123   6.561  18.551  14.377  0.3599 -0.0827 -0.0928
49562OCT     C299124   6.906  18.638  14.032  0.2508  0.0942 -0.1662
49563OCT     C199125   9.706  13.897  12.500  0.0119 -0.1275 -0.2193
49563OCT     C299126  10.182  13.802  12.598 -0.0473 -0.2089  0.0756
49564OCT     C199127   5.748  10.428  19.878 -0.0532  0.1114  0.2169
49564OCT     C299128   5.633  10.874  19.886 -0.0332 -0.0880  0.0525
49565OCT     C199129  17.049  20.323  17.597  0.0272 -0.0924 -0.2324
49565OCT     C299130  17.182  20.553  17.184 -0.0716  0.1138 -0.4044
49566OCT     C199131  13.472  13.474   7.408 -0.2688 -0.1201 -0.2958
49566OCT     C299132  13.278  13.245   7.792  0.2235 -0.3108  0.3652
49567OCT     C199133  16.949  21.482  13.249  0.0934  0.0564 -0.1308
49567OCT     C299134  17.142  21.247  13.597  0.4512 -0.0581 -0.2074
49568OCT     C199135   5.214  11.023  22.385  0.1717  0.0680 -0.1973
49568OCT     C299136   5.610  10.868  22.648  0.5854 -0.0022 -0.0561
49569OCT     C199137  20.833  15.128   0.395  0.2741  0.2518  0.1504
49569OCT     C299138  20.925  14.731   0.621 -0.2564  0.1481 -0.0577
49570OCT     C199139   8.734   3.967   4.776  0.1440 -0.2153  0.1480
49570OCT     C299140   8.273   4.107   4.716  0.1828  0.0201 -0.3166
49571OCT     C199141  15.576  15.962  10.542  0.1777 -0.0688  0.1725
49571OCT     C299142  15.518  15.638  10.915  0.0856  0.2104  0.0236
49572OCT     C199143  20.520   2.925   0.486  0.0243 -0.1265  0.1494
49572OCT     C299144  20.458   2.561   0.286  0.2008 -0.1536 -0.0235
49573OCT     C199145  23.341  18.614   7.213  0.0325 -0.3833 -0.4214
49573OCT     C299146  23.378  18.458   7.639  0.1990 -0.0219 -0.1835
49574OCT     C199147  10.607   7.431  16.198 -0.2120  0.3534 -0.0360
49574OCT     C299148  10.767   7.778  15.949 -0.1070 -0.0242  0.3394
49575OCT     C199149   1.260   2.518  18.399  0.1013  0.0455  0.1365
49575OCT     C299150   1.083   2.199  18.139  0.5443 -0.1122  0.2696
49576OCT     C199151   3.936   4.500   4.791 -0.0693 -0.1512  0.0264
49576OCT     C299152   3.768   4.923   4.626  0.0603  0.1530 -0.0658
49577OCT     C199153  17.787   4.625  22.477  0.3558  0.1607 -0.1670
49577OCT     C299154  17.804   4.795  22.919 -0.1526 -0.1174 -0.0148
49578OCT     C199155   7.805  13.032   9.540 -0.0692 -0.1820 -0.1722
49578OCT     C299156   7.719  12.964   9.992  0.0851  0.0165 -0.1926
49579OCT     C199157  21.364   4.411   2.807  0.3320  0.1662  0.3706
49579OCT     C299158  21.588   4.063   2.782 -0.1281 -0.3303 -0.2251
49580OCT     C199159  20.422  15.854   7.518 -0.0153 -0.1179  0.3194
49580OCT     C299160  20.024  15.848   7.238  0.0825 -0.0310 -0.0997
49581OCT     C199161   4.501  18.540   4.877  0.0459 -0.3603  0.0675
49581OCT     C299162   4.418  18.096   4.760 -0.3318  0.1404 -0.1829
49582OCT     C199163   9.811  20.370  21.596 -0.1999 -0.2967  0.2267
49582OCT     C299164  10.207  20.156  21.412  0.5417  0.1678 -0.3066
49583OCT     C199165   0.069   7.475  18.880  0.0358  0.0203  0.1077
49583OCT     C299166   0.311   7.831  18.966 -0.0408 -0.0176 -0.0764
49584OCT     C199167  22.338  23.255   8.890  0.1625 -0.4715  0.1097
49584OCT     C299168  22.555  22.842   8.964 -0.0165 -0.0965 -0.1366
49585OCT     C199169   9.227   2.179  10.143 -0.0557  0.1916 -0.1204
49585OCT     C299170   9.605   2.461  10.035 -0.1900  0.0171  0.0541
49586OCT     C199171  23.337  19.926  16.382 -0.5308 -0.0421  0.2341
49586OCT     C299172  23.305  20.363  16.195  0.3429 -0.1044  0.1630
49587OCT     C199173  21.471   5.487   4.785  0.2447 -0.2896 -0.5818
49587OCT     C299174  21.736   5.711   5.098 -0.0520 -0.1638  0.2110
49588OCT     C199175  15.722   2.043   5.761 -0.0390 -0.2404 -0.3773
49588OCT     C299176  15.409   2.056   5.383 -0.1104 -0.2006  0.0065
49589OCT     C199177  20.332  11.234  13.484  0.6627 -0.0443 -0.1748
49589OCT     C299178  20.084  10.886  13.688 -0.2310  0.0962  0.1210
49590OCT     C199179   5.051   6.387   6.022  0.2172  0.1440  0.0469
49590OCT     C299180   4.529   6.282   5.958  0.0403  0.2154  0.0220
49591OCT     C199181  12.081  14.726  12.369 -0.0055  0.1398 -0.1003
49591OCT     C299182  12.478  14.521  12.599 -0.2772  0.2711 -0.0318
49592OCT     C199183  12.114   0.018  14.274  0.1557 -0.0300  0.0265
49592OCT     C299184  11.706   0.144  14.471 -0.3110  0.1092  0.5208
49593OCT     C199185   0.514  18.195   1.714 -0.2399  0.5116  0.3201
49593OCT     C299186   0.653  17.748   1.612 -0.4496 -0.0385 -0.3462
49594OCT     C199187   8.789   8.540   2.278 -0.0546 -0.2967  0.1873
49594OCT     C299188   8.308   8.689   2.086 -0.0857  0.1086  0.1526
49595OCT     C199189  19.339   0.296   9.596 -0.0534 -0.1735  0.1032
49595OCT     C299190  19.625   0.348   9.971 -0.1455 -0.0919 -0.1588
49596OCT     C199191   8.859  22.553  20.653  0.1758  0.3611  0.1600
49596OCT     C299192   9.026  22.232  20.951 -0.0381  0.0578  0.1504
49597OCT     C199193   8.130   6.503   8.043  0.2064 -0.0907  0.1501
49597OCT     C299194   8.127   6.831   7.705 -0.2542 -0.0958 -0.0851
49598OCT     C199195  11.316   8.000   0.197  0.0631  0.2429  0.2280
49598OCT     C299196  11.695   7.829   0.389  0.0157  0.3387 -0.1675
49599OCT     C199197  12.686   6.706  13.914  0.4493 -0.1031 -0.0606
49599OCT     C299198  12.725   6.315  14.155  0.0858 -0.2822  0.1835
49600OCT     C199199   3.605   6.530   4.340 -0.0654 -0.3117 -0.1327
49600OCT     C299200   3.714   6.133   4.534 -0.0123 -0.3873  0.1074
49601OCT     C199201  16.172   6.749  15.888  0.2042 -0.4907 -0.2118
49601OCT     C299202  16.503   6.421  15.920 -0.1960 -0.1994  0.2380
49602OCT     C199203  15.547  12.728  23.292  0.1238  0.0551  0.0392
49602OCT     C299204  15.790  12.853  22.904 -0.0604 -0.2500 -0.0434
49603OCT     C199205   2.530   5.919   2.895  0.1007 -0.0061 -0.2983
49603OCT     C299206   2.646   5.514   3.136 -0.0544  0.3102  0.0651
49604OCT     C199207  13.083   2.364  15.609  0.2414  0.1371 -0.0848
49604OCT     C299208  12.813   2.485  15.260  0.1394 -0.2373 -0.2175
49605OCT     C199209  19.173   7.787   3.198 -0.0316 -0.0557 -0.0022
49605OCT     C299210  19.580   7.721   3.008  0.1850 -0.0949 -0.3783
49606OCT     C199211   3.398  19.627  14.454  0.0986  0.1162 -0.2834
49606OCT     C299212   3.301  19.558  14.048 -0.0116 -0.3162 -0.0506
49607OCT     C199213  17.142   7.680  20.364  0.3074 -0.0840 -0.2348
49607OCT     C299214  17.285   8.148  20.344  0.0014 -0.4641  0.3151
49608OCT     C199215  13.412   7.108   7.374 -0.0565  0.2053 -0.0462
49608OCT     C299216  12.939   7.003   7.420 -0.1361 -0.2315 -0.1454
49609OCT     C199217   2.548  22.124  16.693  0.0764  0.0944 -0.2600
49609OCT     C299218   2.899  21.817  16.591 -0.1840 -0.1567 -0.0570
49610OCT     C199219  11.996  23.584  12.368 -0.1213 -0.2304 -0.0165
49610OCT     C299220  12.328  23.662  12.662 -0.1833 -0.0251  0.0659
49611OCT     C199221  11.687  17.911  15.969 -0.0658  0.0928 -0.0237
49611OCT     C299222  11.749  18.348  15.979  0.0563  0.1018 -0.0913
49612OCT     C199223   3.979   2.051   5.999  0.2175 -0.3724  0.0912
49612OCT     C299224   4.003   1.599   5.944 -0.1259 -0.0982 -0.1525
49613OCT     C199225   6.934  20.151   4.467 -0.1395 -0.2612 -0.0176
49613OCT     C299226   6.732  20.274   4.060  0.0015  0.1642 -0.2162
49614OCT     C199227   7.534  18.346   7.413 -0.2520  0.2652  0.0670
49614OCT     C299228   7.919  18.607   7.256 -0.2235 -0.0214 -0.2219
49615OCT     C199229  11.445   4.124   0.012 -0.2471  0.2889  0.4278
49615OCT     C299230  11.652   3.763  23.521 -0.1386 -0.4470  0.2065
49616OCT     C199231  18.944   3.506   9.667 -0.0913  0.1519 -0.2372
49616OCT     C299232  18.879   3.051   9.483 -0.0928  0.1694 -0.0069
49617OCT     C199233   5.539  18.826  19.466 -0.1815 -0.0305  0.0040
49617OCT     C299234   5.957  18.869  19.329  0.1155 -0.0289 -0.2971
49618OCT     C199235  12.967   8.221  14.766  0.0958 -0.3724  0.1355
49618OCT     C299236  13.418   8.323  14.814 -0.0356  0.2806  0.2461
49619OCT     C199237  21.111  21.668  11.243  0.1593  0.2010  0.1577
49619OCT     C299238  21.365  21.243  11.356  0.0414 -0.5735  0.3449
49620OCT     C199239  14.812  23.208   3.743  0.5171  0.0313  0.0107
49620OCT     C299240  14.775  23.134   4.192 -0.0547 -0.0372 -0.0512
49621OCT     C199241   5.891  18.418   2.447 -0.1467  0.0629 -0.0808
49621OCT     C299242   5.753  17.994   2.247  0.1286  0.0314  0.1492
49622OCT     C199243  11.448  15.765  23.195  0.1447 -0.0048  0.3776
49622OCT     C299244  11.659  15.588  23.557  0.0154  0.1653  0.1748
49623OCT     C199245  15.988  15.913   1.153  0.2774 -0.0991 -0.0701
49623OCT     C299246  16.379  15.608   1.275  0.0451  0.1534  0.2867
49624OCT     C199247   5.083   9.810  23.209 -0.2395  0.0269 -0.0794
49624OCT     C299248   4.697  10.043  23.227 -0.2299 -0.2876  0.0036
49625OCT     C199249  21.613   6.138   3.403 -0.0925  0.0824  0.1596
49625OCT     C299250  21.528   6.080   3.872 -0.1747  0.2405  0.0606
49626OCT     C199251  21.147  10.990   7.204 -0.0793 -0.2724 -0.0178
49626OCT     C299252  21.505  11.266   7.231 -0.2411  0.2471  0.1357
49627OCT     C199253  10.711  20.708  15.811  0.3995 -0.0757 -0.1047
49627OCT     C299254  10.371  20.424  15.718  0.0815 -0.1233  0.3269
49628OCT     C199255  17.655   1.997  14.605  0.2380 -0.0199  0.0899
49628OCT     C299256  17.570   1.644  14.285  0.0346  0.1042 -0.3007
49629OCT     C199257  14.975  16.268  12.880 -0.0771  0.1448 -0.2457
49629OCT     C299258  15.023  16.720  12.749 -0.3505  0.1881 -0.2258
49630OCT     C199259   1.608  10.446  11.506 -0.0073  0.1510  0.1295
49630OCT     C299260   1.867  10.562  11.869  0.0837  0.3615  0.0852
49631OCT     C199261  13.178   9.122  15.931  0.2334  0.0713 -0.1554
49631OCT     C299262  12.754   9.050  15.774  0.1443 -0.1547 -0.2901
49632OCT     C199263   0.464   6.455  20.073  0.0245 -0.2630  0.3183
49632OCT     C299264   0.820   6.225  20.011 -0.0365  0.1770  0.2858
49633OCT     C199265   9.088   6.077  11.614  0.2394 -0.2021 -0.2176
49633OCT     C299266   9.251   6.017  11.125 -0.0674  0.0344  0.1402
49634OCT     C199267   8.226  21.325  14.414  0.1910 -0.0914 -0.1471
49634OCT     C299268   7.894  21.553  14.545  0.1175  0.3302  0.2468
49635OCT     C199269  23.563   4.365  15.510 -0.3384  0.0898 -0.3295
49635OCT     C299270   0.259   4.510  15.567  0.1043  0.1942  0.0233
49636OCT     C199271  15.694   5.388   6.586  0.2609 -0.0555  0.1460
49636OCT     C299272  15.822   5.583   6.181  0.0168 -0.0092  0.1683
49637OCT     C199273   7.451  14.040  21.339  0.0119 -0.0791 -0.0163
49637OCT     C299274   7.322  13.828  20.948 -0.0993 -0.1281 -0.2356
49638OCT     C199275   9.520  21.804   6.753  0.0320 -0.2405  0.2063
49638OCT     C299276   9.391  22.004   6.356  0.1001  0.0893 -0.0013
49639OCT     C199277  22.236   6.825   3.028  0.2754  0.0105  0.1043
49639OCT     C299278  22.324   6.956   2.561  0.2856 -0.2534 -0.1231
49640OCT     C199279   5.753  18.244  18.508  0.0650 -0.0393  0.1478
49640OCT     C299280   5.765  18.438  18.059  0.0784 -0.1198  0.2902
49641OCT     C199281  19.470   6.468  17.323  0.0663 -0.1035 -0.1131
49641OCT     C299282  19.937   6.533  17.226  0.1659 -0.3158  0.0705
49642OCT     C199283  14.431  17.451  15.856  0.0463 -0.3164 -0.0673
49642OCT     C299284  14.570  17.259  16.234 -0.0753 -0.0168 -0.0573
49643OCT     C199285   8.777  12.641  18.890 -0.1012  0.2487 -0.1348
49643OCT     C299286   8.695  13.125  18.847  0.2055  0.3965  0.1991
49644OCT     C199287   2.969  13.074   7.730 -0.0305 -0.0973 -0.2792
49644OCT     C299288   3.192  13.044   8.169  0.0078  0.0643 -0.0804
49645OCT     C199289   6.835  23.014  12.193 -0.0149 -0.2067  0.0583
49645OCT     C299290   7.271  22.960  11.972  0.5420 -0.0488  0.0240
49646OCT     C199291   7.067  21.567   6.013  0.0704 -0.0544 -0.1662
49646OCT     C299292   7.481  21.750   5.939 -0.1728 -0.2060 -0.0340
49647OCT     C199293   0.098   8.610  12.263  0.0375  0.0251  0.2666
49647OCT     C299294   0.436   8.366  12.432  0.0620  0.2189 -0.0392
49648OCT     C199295  15.099  19.684   2.586 -0.1565  0.4660  0.0837
49648OCT     C299296  15.496  19.856   2.614  0.0800 -0.0570  0.3616
49649OCT     C199297   0.084  13.265  23.639  0.0041 -0.2746 -0.5214
49649OCT     C299298   0.309  12.813  23.568 -0.2247  0.6220 -0.2726
49650OCT     C199299   5.845  20.866  23.262 -0.2914  0.0623 -0.0603
49650OCT     C299300   5.766  21.053  23.711  0.0525  0.0158  0.1843
49651OCT     C199301   6.941   5.269   5.099 -0.0784 -0.2398 -0.0512
49651OCT     C299302   6.641   5.600   5.332 -0.0513  0.1847 -0.1124
49652OCT     C199303  11.466   6.586  10.310  0.3498  0.1150 -0.3310
49652OCT     C299304  11.145   6.341  10.527  0.3884 -0.0998 -0.5197
49653OCT     C199305  13.894  21.514   9.165  0.0351  0.2830  0.3671
49653OCT     C299306  13.990  21.424   8.726  0.0261  0.3418 -0.1144
49654OCT     C199307   3.098   0.409   8.380 -0.0669  0.4980  0.2849
49654OCT     C299308   2.657   0.596   8.206  0.1153 -0.3036 -0.1748
49655OCT     C199309  20.721  19.057  15.114  0.1129  0.1749 -0.0931
49655OCT     C299310  20.511  18.679  14.872  0.1929 -0.1213 -0.0154
49656OCT     C199311   5.898  20.241   8.528  0.3091  0.2582  0.1354
49656OCT     C299312   5.820  20.712   8.673  0.0891  0.0763  0.0273
49657OCT     C199313  12.295   2.660  15.301  0.2126  0.2949 -0.1863
49657OCT     C299314  12.081   2.209  15.435 -0.0250 -0.0411 -0.4119
49658OCT     C199315  11.087  17.339  16.221  0.2596 -0.0441 -0.1442
49658OCT     C299316  10.845  17.450  16.616 -0.0805  0.0381 -0.0082
49659OCT     C199317  10.880   1.333  17.608  0.0126 -0.1186 -0.0849
49659OCT     C299318  11.279   1.547  17.469  0.3500 -0.3980  0.3067
49660OCT     C199319  19.945  22.589  10.632  0.0554  0.0565  0.1947
49660OCT     C299320  19.847  22.477  10.179  0.0403  0.2566  0.0133
49661OCT     C199321   6.306  19.529  18.127  0.2191  0.3812 -0.1691
49661OCT     C299322   6.102  19.742  17.785 -0.0752 -0.0482  0.0268
49662OCT     C199323  13.630   3.688   9.532  0.5220 -0.2869 -0.0326
49662OCT     C299324  14.086   3.648   9.443  0.3350  0.1566 -0.1181
49663OCT     C199325  18.078  18.935  10.229 -0.1886  0.1830 -0.2839
49663OCT     C299326  17.799  19.141   9.935  0.0467 -0.3113  0.1590
49664OCT     C199327  22.151   5.583   7.374  0.4755 -0.4548 -0.1121
49664OCT     C299328  22.255   5.763   7.751  0.1452  0.0475 -0.1230
49665OCT     C199329   0.153   9.695   1.909  0.0375 -0.3264  0.1781
49665OCT     C299330  23.529   9.908   2.109 -0.0145 -0.0042 -0.4736
49666OCT     C199331  13.593  22.026   7.028  0.0302 -0.2362  0.2448
49666OCT     C299332  13.974  21.853   7.261  0.3261 -0.1439  0.3418
49667OCT     C199333  16.417   0.016   8.657  0.5174  0.0283 -0.0415
49667OCT     C299334  16.368   0.431   8.770  0.0244 -0.4769 -0.0390
49668OCT     C199335  21.722   4.102   4.557  0.4087  0.1866 -0.2965
49668OCT     C299336  21.443   4.107   4.137 -0.1402  0.3985 -0.1137
49669OCT     C199337  14.242  16.831  21.219 -0.3226  0.0656  0.5457
49669OCT     C299338  14.439  16.429  21.420  0.2404  0.1698 -0.3170
49670OCT     C199339  22.088   0.515  16.387 -0.5292 -0.0347 -0.3111
49670OCT     C299340  22.512   0.384  16.468 -0.2533  0.0224 -0.1549
49671OCT     C199341  18.455  15.082  18.042  0.0604  0.3061  0.4110
49671OCT     C299342  18.073  15.150  18.284  0.0241 -0.0573 -0.1196
49672OCT     C199343  20.034  19.668  23.043 -0.0123  0.2915  0.1770
49672OCT     C299344  19.927  19.678  23.516  0.0146  0.2041 -0.3432
49673OCT     C199345  17.374  19.959   1.954  0.3417 -0.1589 -0.2091
49673OCT     C299346  17.331  19.520   2.099  0.1057  0.1746  0.2490
49674OCT     C199347   4.254   5.491  17.033  0.1011  0.1818 -0.4532
49674OCT     C299348   4.706   5.606  17.055 -0.0089  0.1590  0.0607
49675OCT     C199349  20.616  16.662   6.181  0.1625  0.2672 -0.1354
49675OCT     C299350  20.257  16.519   5.989  0.2903 -0.2493 -0.0034
49676OCT     C199351  15.505   7.792  22.957  0.2611  0.0242  0.0676
49676OCT     C299352  15.666   7.835  22.468  0.0891  0.0949  0.0625
49677OCT     C199353  21.240   7.176  20.596  0.2498  0.2356  0.1561
49677OCT     C299354  20.920   6.822  20.562 -0.1315 -0.0334 -0.0852
49678OCT     C199355  10.453  15.511  23.212 -0.0504 -0.2061 -0.2985
49678OCT     C299356  10.472  15.764  23.550 -0.1856 -0.1529 -0.0771
49679OCT     C199357  10.439  19.225  12.617  0.0541  0.2364  0.2297
49679OCT     C299358  10.876  19.454  12.484 -0.1821  0.0304 -0.1224
49680OCT     C199359  16.971  14.766   1.281 -0.1151  0.0747  0.2080
49680OCT     C299360  17.025  14.345   1.424  0.1868 -0.3462  0.2576
49681OCT     C199361   8.218   6.902   1.111  0.1672  0.0085  0.5345
49681OCT     C299362   8.633   6.852   0.850  0.1378 -0.0882 -0.1397
49682OCT     C199363  23.111   5.102  16.224 -0.0887  0.0243 -0.0750
49682OCT     C299364  22.853   5.248  15.859  0.5563 -0.1297 -0.1928
49683OCT     C199365  12.292  10.423  15.951 -0.1399 -0.2421 -0.2848
49683OCT     C299366  12.461  10.673  15.604  0.2015  0.1259  0.2757
49684OCT     C199367   1.135   8.813  23.704 -0.0496 -0.1913  0.0543
49684OCT     C299368   1.539   8.988  23.693 -0.0025 -0.2090  0.0990
49685OCT     C199369   8.975   6.796   9.211 -0.6732  0.2918  0.2280
49685OCT     C299370   9.249   6.929   9.520 -0.0432 -0.1062 -0.2929
49686OCT     C199371  21.033  19.866  18.986  0.1613  0.0518 -0.1308
49686OCT     C299372  21.040  19.441  18.902  0.0349  0.1804 -0.0788
49687OCT     C199373  20.720   7.487   7.400  0.3558 -0.0888 -0.0686
49687OCT     C299374  20.228   7.572   7.418 -0.2979  0.2341 -0.3052
49688OCT     C199375  23.064  12.622  18.102  0.1389  0.0912 -0.1698
49688OCT     C299376  23.245  12.704  17.712 -0.2149  0.1041 -0.0301
49689OCT     C199377  12.642  15.550  12.803  0.0859 -0.3147 -0.0069
49689OCT     C299378  12.534  15.885  13.052  0.2255 -0.5297 -0.1033
49690OCT     C199379   2.415  21.135   9.423 -0.0126  0.2383  0.1834
49690OCT     C299380   2.751  20.814   9.334  0.0640 -0.1032  0.1900
49691OCT     C199381   7.774   0.981  23.554 -0.2889 -0.2502  0.1008
49691OCT     C299382   8.223   0.957  23.562  0.2488 -0.0134 -0.2152
49692OCT     C199383   3.972  22.482  13.881 -0.1645 -0.0158 -0.0475
49692OCT     C299384   3.588  22.228  13.835  0.0629  0.1176 -0.0077
49693OCT     C199385  11.979  21.414  21.832  0.2117 -0.2048 -0.0777
49693OCT     C299386  11.841  21.798  21.761  0.0272 -0.2536  0.3155
49694OCT     C199387  21.256  13.286  10.696 -0.0957 -0.2568  0.2001
49694OCT     C299388  21.102  13.245  10.285 -0.2608 -0.0712 -0.0415
49695OCT     C199389  12.384   5.730   2.582 -0.0473 -0.0824 -0.1491
49695OCT     C299390  12.553   6.111   2.474  0.2613  0.2748  0.0189
49696OCT     C199391  18.900   2.788   1.084  0.0991  0.1778  0.2567
49696OCT     C299392  19.339   2.881   1.240  0.3227 -0.0386 -0.0518
49697OCT     C199393  10.529   8.784  17.566 -0.2420 -0.0439 -0.3928
49697OCT     C299394  10.885   8.962  17.263 -0.0202 -0.0960 -0.2377
49698OCT     C199395  21.315   4.211  20.618 -0.0597 -0.2335  0.0373
49698OCT     C299396  21.631   4.553  20.665 -0.0452  0.0277 -0.2084
49699OCT     C199397  17.384  13.324   5.502  0.1844 -0.1632  0.0681
49699OCT     C299398  17.195  12.925   5.336  0.3432 -0.2244 -0.2114
49700OCT     C199399  23.569  12.013  12.167 -0.1275 -0.0878  0.1684
49700OCT     C299400  23.351  12.138  12.566 -0.1070  0.1676  0.1453
49701OCT     C199401   5.912  16.130   2.843 -0.2086  0.0042 -0.1814
49701OCT     C299402   5.634  16.255   3.189  0.0725 -0.1415  0.1560
49702OCT     C199403  11.162  20.476   0.704  0.4857 -0.0153  0.1443
49702OCT     C299404  10.849  20.210   0.419  0.2531  0.1970 -0.0924
49703OCT     C199405  18.438  17.487   7.668 -0.0772  0.1233 -0.0023
49703OCT     C299406  18.331  17.173   7.968 -0.0232 -0.4870  0.0686
49704OCT     C199407   4.717   0.245  15.914 -0.1615  0.1046 -0.0076
49704OCT     C299408   4.276   0.370  15.735 -0.2772  0.0624 -0.3332
49705OCT     C199409   3.518  14.724  20.219 -0.0060  0.2339  0.0008
49705OCT     C299410   3.439  15.174  20.147  0.4328  0.3190 -0.3418
49706OCT     C199411  16.741  22.095   5.955 -0.1700  0.0319  0.3595
49706OCT     C299412  17.003  22.015   6.392 -0.2278 -0.1634  0.3232
49707OCT     C199413  13.201   1.968  13.967  0.0693  0.2523 -0.1544
49707OCT     C299414  12.788   2.049  13.767 -0.0112 -0.0238  0.0489
49708OCT     C199415  22.617   9.791  10.014 -0.3937 -0.1579 -0.1761
49708OCT     C299416  22.383   9.822  10.437 -0.2305 -0.0239 -0.1479
49709OCT     C199417   2.286   1.845  15.969  0.0658 -0.0143  0.1044
49709OCT     C299418   2.369   1.374  16.049 -0.1066 -0.2824 -0.0591
49710OCT     C199419   7.002   3.023  16.693 -0.4937  0.2238 -0.2016
49710OCT     C299420   6.992   3.434  16.546  0.1026  0.0092  0.2307
49711OCT     C199421  22.312   8.511  13.613 -0.2402 -0.2408  0.3349
49711OCT     C299422  22.381   8.969  13.722  0.3295 -0.1642  0.0733
49712OCT     C199423   2.593  22.520   7.326 -0.3363 -0.0445  0.2553
49712OCT     C299424   2.911  22.584   7.070 -0.1924 -0.5154  0.1306
49713OCT     C199425  19.582   5.569  12.436  0.1106 -0.1819  0.3940
49713OCT     C299426  19.126   5.704  12.386 -0.0678  0.0881 -0.2228
49714OCT     C199427  12.247   3.549  14.038  0.1819 -0.2786 -0.0099
49714OCT     C299428  12.366   3.956  13.844  0.0581  0.0688  0.0546
49715OCT     C199429  12.944  14.462   9.432  0.0253 -0.0298 -0.3589
49715OCT     C299430  12.468  14.486   9.325 -0.0678  0.0203 -0.0724
49716OCT     C199431  14.620  16.077  18.403  0.0710 -0.0591  0.0722
49716OCT     C299432  14.569  16.484  18.115  0.0024 -0.2324  0.0391
49717OCT     C199433   7.105  20.602  21.103 -0.0040 -0.1044  0.1532
49717OCT     C299434   7.100  20.804  21.547  0.0404  0.0250  0.2912
49718OCT     C199435  18.988   2.615   7.177 -0.1909 -0.1226 -0.2250
49718OCT     C299436  18.727   2.358   6.961 -0.0290  0.0406  0.1836
49719OCT     C199437  22.046  19.001  22.836 -0.1858  0.0890  0.2085
49719OCT     C299438  22.049  18.542  22.767 -0.0480 -0.2906 -0.0540
49720OCT     C199439  23.583   0.750   6.767 -0.3833  0.2023  0.4543
49720OCT     C299440  23.158   0.855   6.941 -0.2616  0.0316  0.0205
49721OCT     C199441   8.631   9.926  15.989  0.0752  0.2364 -0.4414
49721OCT     C299442   8.938  10.057  16.306 -0.1764 -0.0880  0.3966
49722OCT     C199443  14.949   9.108   5.758  0.0949 -0.0123  0.3290
49722OCT     C299444  14.951   9.346   6.158  0.1088 -0.0077  0.0938
49723OCT     C199445  21.338  12.536  15.467 -0.0954  0.0280 -0.2709
49723OCT     C299446  20.995  12.490  15.758 -0.0786  0.0490  0.1821
49724OCT     C199447   4.428  14.713   3.684 -0.0126 -0.1154  0.0195
49724OCT     C299448   4.023  14.755   3.905  0.0553  0.1633 -0.1680
49725OCT     C199449   7.270   7.201   5.644  0.3105  0.0548 -0.0002
49725OCT     C299450   7.730   7.268   5.735  0.0126 -0.3801  0.5738
49726OCT     C199451  14.995  16.660  18.224  0.3314  0.3294 -0.3222
49726OCT     C299452  14.769  16.903  17.838  0.0818  0.2179 -0.3643
49727OCT     C199453  11.928  20.587  15.400 -0.0425  0.2167  0.1060
49727OCT     C299454  11.920  20.428  15.744 -0.1799  0.1626  0.1123
49728OCT     C199455  11.294  19.581   6.480  0.1143  0.3430  0.4170
49728OCT     C299456  11.280  19.175   6.339 -0.2234 -0.1218 -0.1525
49729OCT     C199457   4.968  13.093  12.705 -0.2083  0.4051  0.0329
49729OCT     C299458   4.981  13.087  12.277 -0.0054  0.0209 -0.0088
49730OCT     C199459  11.996   3.152  13.519  0.0380  0.1710  0.1918
49730OCT     C299460  11.846   3.553  13.702 -0.1975  0.0749  0.2595
49731OCT     C199461  19.407  16.581  13.076  0.2707  0.0891  0.0310
49731OCT     C299462  19.260  16.309  13.351 -0.2510  0.2562 -0.3966
49732OCT     C199463   0.527   3.630  13.448  0.0266 -0.2621 -0.1351
49732OCT     C299464   0.434   3.933  13.798 -0.0942  0.0098  0.1068
49733OCT     C199465  18.782  19.491  13.454  0.1187 -0.4981  0.0801
49733OCT     C299466  19.109  19.783  13.471  0.0340  0.1959 -0.1815
49734OCT     C199467  11.531  21.182   9.933  0.3483  0.2025 -0.1230
49734OCT     C299468  11.865  20.921   9.769 -0.0624 -0.1894  0.0002
49735OCT     C199469   7.011  11.779   1.129  0.1988 -0.0651  0.2985
49735OCT     C299470   7.331  11.968   0.916 -0.0245 -0.0826  0.2059
49736OCT     C199471  23.520   5.068   3.601 -0.4096 -0.1421 -0.0137
49736OCT     C299472  23.262   4.725   3.329 -0.0534  0.0290 -0.2443
49737OCT     C199473  19.525   1.716   0.337 -0.0128 -0.2538 -0.2842
49737OCT     C299474  19.070   1.707   0.289 -0.3114 -0.2413  0.0743
49738OCT     C199475   9.158  16.458   5.163  0.0242 -0.0865 -0.0287
49738OCT     C299476   9.427  16.728   5.455  0.3340 -0.0654 -0.0348
49739OCT     C199477  21.520   6.242  12.281 -0.1433 -0.0946 -0.2105
49739OCT     C299478  21.201   5.918  12.414  0.0721 -0.3002 -0.0352
49740OCT     C199479   5.678   3.922   2.923 -0.2262 -0.2138  0.3257
49740OCT     C299480   5.228   3.863   2.981  0.2550  0.0886  0.1962
49741OCT     C199481  22.141   5.781   8.418 -0.1813 -0.3597  0.5112
49741OCT     C299482  22.406   5.909   8.744 -0.0775 -0.1137 -0.0895
49742OCT     C199483  23.117  20.540  17.080 -0.2557 -0.3024 -0.0891
49742OCT     C299484  22.637  20.778  17.083 -0.0786  0.2308 -0.2236
49743OCT     C199485  19.238  13.920  19.294  0.3493 -0.1120 -0.2031
49743OCT     C299486  19.196  13.575  19.011  0.4545  0.5979  0.1156
49744OCT     C199487   3.856  12.194  20.490  0.2036 -0.2383 -0.0259
49744OCT     C299488   3.757  11.794  20.619  0.0978 -0.4297  0.2029
49745OCT     C199489  10.377  21.108   2.552 -0.0402  0.0492  0.0854
49745OCT     C299490  10.040  21.347   2.360 -0.0918 -0.3094 -0.0393
49746OCT     C199491  13.740   7.601   0.706 -0.3226  0.0636 -0.0022
49746OCT     C299492  13.616   7.341   1.043  0.0248  0.1277  0.4878
49747OCT     C199493  14.248  12.759  21.832  0.0583 -0.0568  0.1676
49747OCT     C299494  13.937  12.660  21.487 -0.0660  0.1042  0.0767
49748OCT     C199495   8.859   1.055  18.628 -0.2801 -0.0435 -0.1166
49748OCT     C299496   8.656   0.948  19.025  0.5288  0.2026 -0.0116
49749OCT     C199497   7.784  10.119  10.608 -0.0544 -0.1109  0.1013
49749OCT     C299498   7.515  10.524  10.481  0.0265  0.2450 -0.2713
49750OCT     C199499   7.827   4.801  10.721  0.1582 -0.0123  0.0792
49750OCT     C299500   7.581   4.525  11.055  0.0630 -0.3545  0.0540
49751OCT     C199501  15.108  16.084   1.509 -0.1205  0.3741 -0.0788
49751OCT     C299502  15.234  16.122   1.954  0.2728  0.0039  0.0562
49752OCT     C199503  17.353  21.109  13.055 -0.0835  0.3416  0.1336
49752OCT     C299504  17.090  21.389  12.798 -0.0300  0.0156 -0.1940
49753OCT     C199505  12.488  21.102  10.843  0.0486  0.2144  0.0075
49753OCT     C299506  12.398  21.550  10.747 -0.0577 -0.2035  0.1313
49754OCT     C199507  16.016   1.947  17.576 -0.3568  0.1695  0.0505
49754OCT     C299508  16.031   2.310  17.874  0.1199 -0.0441  0.2343
49755OCT     C199509  20.498   3.845   4.219 -0.1913  0.1416  0.0233
49755OCT     C299510  20.141   3.694   3.991 -0.2034 -0.1692  0.0734
49756OCT     C199511   7.022   8.065   9.610 -0.3844 -0.0530 -0.0393
49756OCT     C299512   6.614   7.969   9.788  0.1982  0.0528  0.0751
49757OCT     C199513  23.403  14.888  14.768  0.0196 -0.4610 -0.4480
49757OCT     C299514  22.979  15.074  14.886 -0.0772 -0.0437  0.2304
49758OCT     C199515  16.239  18.134  13.743 -0.0490  0.1245 -0.0031
49758OCT     C299516  16.265  18.554  13.963 -0.1214  0.1634  0.1768
49759OCT     C199517  21.151  16.236   8.017 -0.1523 -0.1099 -0.1811
49759OCT     C299518  21.061  16.581   7.663  0.0278 -0.1584  0.3200
49760OCT     C199519   3.178  16.239   8.960  0.0256  0.0068 -0.0776
49760OCT     C299520   2.761  16.395   9.127  0.0281  0.3047 -0.2452
49761OCT     C199521   7.670  12.200  21.960  0.0542  0.0951  0.0790
49761OCT     C299522   7.274  12.039  22.050 -0.1270 -0.1093  0.1125
49762OCT     C199523  21.948   6.223   4.875 -0.4113  0.0947  0.5684
49762OCT     C299524  22.117   6.254   5.292  0.0903  0.0185  0.2046
49763OCT     C199525  20.694   4.791  16.371  0.1255 -0.3802  0.1680
49763OCT     C299526  21.007   4.731  16.088 -0.2600  0.1018  0.1223
49764OCT     C199527   6.967  23.225  18.684  0.0831  0.0677  0.6141
49764OCT     C299528   6.571  23.503  18.829 -0.5434  0.0853 -0.0325
49765OCT     C199529   8.448  12.306  12.699  0.1744  0.5627  0.2305
49765OCT     C299530   8.269  11.955  12.464 -0.0851  0.2470  0.1238
49766OCT     C199531  14.456   5.705  11.915  0.0615  0.0524 -0.0689
49766OCT     C299532  14.127   5.629  12.221  0.0659  0.0378  0.1736
49767OCT     C199533   7.577   4.038  14.465  0.0812  0.0265 -0.0665
49767OCT     C299534   7.147   4.064  14.602  0.1913  0.1911  0.1962
49768OCT     C199535  13.828   4.794   4.095  0.2903  0.0524  0.2573
49768OCT     C299536  14.131   4.470   4.085  0.0200 -0.3238 -0.2274
49769OCT     C199537   8.763  21.312  10.266  0.0529 -0.0629 -0.1316
49769OCT     C299538   8.539  21.427   9.887 -0.2530 -0.3610 -0.0048
49770OCT     C199539  14.598   5.614  19.133 -0.3076 -0.0621  0.0647
49770OCT     C299540  14.338   5.972  19.281 -0.0701  0.1972  0.2793
49771OCT     C199541   6.575   9.064   1.051 -0.1284  0.4065  0.3698
49771OCT     C299542   6.973   8.958   0.855  0.2742  0.2588 -0.1755
49772OCT     C199543  13.830  13.698   3.457  0.1361 -0.1008 -0.0834
49772OCT     C299544  13.637  14.135   3.386 -0.0926  0.0610  0.1265
49773OCT     C199545   7.562   7.415  22.331 -0.0331  0.1091  0.1354
49773OCT     C299546   7.875   7.121  22.151 -0.4953 -0.1385  0.1539
49774OCT     C199547  10.441  14.455   1.616 -0.0892 -0.0490  0.1026
49774OCT     C299548  10.533  14.911   1.559  0.2329  0.0897 -0.4417
49775OCT     C199549   8.779  23.522  23.340 -0.2404 -0.1457  0.1558
49775OCT     C299550   8.997  23.638  23.733  0.0396 -0.4108 -0.0027
49776OCT     C199551  16.820   3.651  20.658  0.0632 -0.1759 -0.0907
49776OCT     C299552  17.024   4.089  20.707 -0.2137 -0.2446  0.0040
49777OCT     C199553   7.005   5.715  12.586  0.0386  0.2092  0.0566
49777OCT     C299554   7.109   5.674  13.060  0.2084  0.1429  0.2099
49778OCT     C199555   7.731   0.147   2.178  0.0711  0.1852 -0.4533
49778OCT     C299556   8.145   0.351   1.956  0.4259 -0.0294 -0.2272
49779OCT     C199557   9.773  22.102   1.262 -0.1507 -0.1038  0.1776
49779OCT     C299558   9.335  22.252   1.306  0.0720  0.3891  0.0483
49780OCT     C199559  15.279   8.222   1.340  0.2884  0.1268  0.2340
49780OCT     C299560  15.242   8.704   1.369  0.3312 -0.3932  0.0329
49781OCT     C199561  20.058  21.341   8.617  0.1060 -0.1835  0.0719
49781OCT     C299562  19.753  21.642   8.474  0.1263  0.2483  0.1361
49782OCT     C199563  15.885  13.927   4.861  0.4672  0.3243  0.0128
49782OCT     C299564  15.851  13.954   4.391  0.2552  0.6720 -0.0704
49783OCT     C199565  16.128  14.588  23.178 -0.2779  0.1020  0.1519
49783OCT     C299566  15.960  15.008  23.148 -0.0372  0.4848 -0.2488
49784OCT     C199567  21.793  19.529   0.648 -0.0403 -0.1979  0.0074
49784OCT     C299568  21.883  19.386   1.097  0.1741 -0.0652 -0.1342
49785OCT     C199569   7.269  17.430  18.273 -0.2132  0.0934 -0.0514
49785OCT     C299570   7.162  17.848  18.305 -0.3589 -0.2503  0.0985
49786OCT     C199571  13.093  15.882  13.300  0.1442  0.0004 -0.0484
49786OCT     C299572  13.492  16.048  13.118 -0.1422  0.3172 -0.4467
49787OCT     C199573   6.720   5.689   3.068  0.5174 -0.1140  0.1423
49787OCT     C299574   6.674   5.205   3.152 -0.1077 -0.4118  0.3885
49788OCT     C199575   9.366  18.566   8.661  0.0712 -0.0470  0.0738
49788OCT     C299576   9.106  18.815   8.976  0.4189  0.3849  0.0009
49789OCT     C199577   4.067  18.600   1.432  0.2999 -0.2148  0.0889
49789OCT     C299578   4.034  18.320   1.849  0.4611  0.1686 -0.0052
49790OCT     C199579   7.930   5.252  13.891 -0.0831  0.2144 -0.5923
49790OCT     C299580   8.102   5.139  14.308  0.0600 -0.1893  0.0330
49791OCT     C199581  22.473  12.702  23.511 -0.0565 -0.0818 -0.0632
49791OCT     C299582  22.146  12.713   0.188 -0.1184 -0.1768  0.1769
49792OCT     C199583   0.392  23.664  20.547  0.0177  0.3270 -0.2368
49792OCT     C299584   0.228   0.381  20.510 -0.2003 -0.1443 -0.0418
49793OCT     C199585  17.594   8.555  21.643 -0.3870 -0.0870 -0.2342
49793OCT     C299586  17.710   8.658  21.187  0.1325 -0.1331  0.1229
49794OCT     C199587  10.280   7.586  13.592  0.0225  0.0473 -0.1010
49794OCT     C299588  10.431   7.206  13.316  0.3274 -0.3313 -0.0174
49795OCT     C199589  12.127  19.245  18.375 -0.3376  0.1073  0.1346
49795OCT     C299590  12.175  19.053  17.931  0.1004 -0.1469  0.3994
49796OCT     C199591  15.329   5.772  11.479 -0.0392  0.0184 -0.2299
49796OCT     C299592  15.718   5.559  11.216 -0.0432  0.1731  0.1455
49797OCT     C199593   1.121  17.065   2.764 -0.5261 -0.0601  0.1406
49797OCT     C299594   1.334  17.151   2.359  0.5968 -0.3155 -0.3034
49798OCT     C199595  22.237   2.350  18.469  0.0011  0.0141  0.0295
49798OCT     C299596  22.369   2.441  18.050 -0.1425  0.1539 -0.0866
49799OCT     C199597  16.046   0.368  11.337 -0.0167  0.1425  0.3091
49799OCT     C299598  16.186   0.052  11.641  0.1026  0.2877  0.1201
49800OCT     C199599  10.922   4.764   3.980  0.1261  0.4375 -0.2880
49800OCT     C299600  10.952   4.733   4.455  0.1180  0.2069  0.2297
49801OCT     C199601  15.826  23.543  19.752 -0.0714  0.2310 -0.1391
49801OCT     C299602  16.252  23.606  19.549  0.2990 -0.1873  0.0102
49802OCT     C199603   2.707  12.539   0.750  0.1070  0.1723  0.1050
49802OCT     C299604   2.752  12.912   0.431 -0.1422 -0.2869  0.1851
49803OCT     C199605   9.936  20.782  19.104 -0.2079  0.0100  0.0073
49803OCT     C299606   9.687  20.944  18.733 -0.0134 -0.1217  0.0788
49804OCT     C199607  15.228   9.778  16.123 -0.0447 -0.2153 -0.2304
49804OCT     C299608  14.773   9.841  16.299 -0.0586 -0.3147 -0.2382
49805OCT     C199609   0.364  13.502  23.339 -0.2490  0.2127 -0.3992
49805OCT     C299610   0.185  13.111  23.155  0.2431 -0.2582 -0.0531
49806OCT     C199611   6.838  18.915   8.780 -0.2139 -0.1932 -0.3039
49806OCT     C299612   6.529  18.591   8.627 -0.0500  0.3175 -0.2276
49807OCT     C199613  13.612  14.136  17.682 -0.1014  0.0857 -0.2236
49807OCT     C299614  13.652  13.782  17.377  0.1754  0.4002 -0.3663
49808OCT     C199615  10.095   4.715  19.720 -0.2850 -0.0868 -0.0786
49808OCT     C299616   9.782   4.941  19.965  0.0533 -0.2530 -0.1397
49809OCT     C199617  14.492  22.997   6.637  0.3449  0.0966 -0.2165
49809OCT     C299618  14.605  23.453   6.545  0.1621  0.0743 -0.0674
49810OCT     C199619  14.205  22.838  15.096 -0.1751  0.2761  0.1072
49810OCT     C299620  14.382  23.092  15.415  0.1871  0.0470 -0.3421
49811OCT     C199621  13.491  20.932   8.669  0.0595 -0.0700  0.0772
49811OCT     C299622  13.852  20.789   8.863  0.2747 -0.2448 -0.1733
49812OCT     C199623  19.430  11.568  13.104  0.1191 -0.1232  0.0027
49812OCT     C299624  19.923  11.591  13.199 -0.2475 -0.2286  0.0124
49813OCT     C199625   2.314   6.965   0.875  0.2466  0.0971 -0.3038
49813OCT     C299626   2.051   6.889   0.407 -0.4978 -0.2070 -0.1036
49814OCT     C199627  19.662  18.756  22.986 -0.1228 -0.4420 -0.2649
49814OCT     C299628  19.709  19.159  22.720  0.1640  0.0186 -0.1014
49815OCT     C199629  16.225   9.884  14.711  0.0418  0.3673 -0.2761
49815OCT     C299630  16.626   9.593  14.685  0.1195  0.1201 -0.1008
49816OCT     C199631  16.840   9.249  22.360 -0.1317  0.0304 -0.0992
49816OCT     C299632  16.687   9.654  22.175  0.2958 -0.0411  0.0018
49817OCT     C199633   6.387   4.023   6.751 -0.1064 -0.0414 -0.1871
49817OCT     C299634   6.795   3.912   6.984  0.4159  0.0924 -0.2516
49818OCT     C199635   4.541   4.596   6.716  0.2693  0.0454  0.6319
49818OCT     C299636   4.216   4.816   6.975  0.0040 -0.1180  0.0971
49819OCT     C199637  14.249   7.281   1.643  0.1051 -0.2725 -0.2107
49819OCT     C299638  14.119   7.367   1.195 -0.3135  0.0494 -0.4683
49820OCT     C199639  14.386  16.649  13.538 -0.0977 -0.1183  0.2655
49820OCT     C299640  14.426  16.651  13.958  0.1845 -0.0908  0.0684
49821OCT     C199641   6.180   4.338  15.709 -0.0589  0.1098  0.1440
49821OCT     C299642   5.833   4.470  15.426  0.3696 -0.1298 -0.4558
49822OCT     C199643  18.386   9.612   4.264  0.3436 -0.0441 -0.1313
49822OCT     C299644  18.451   9.138   4.258 -0.1653 -0.3017 -0.0659
49823OCT     C199645  20.772  22.640  13.484  0.0885  0.0452 -0.1120
49823OCT     C299646  20.453  22.342  13.736  0.1714 -0.1205 -0.0678
49824OCT     C199647  11.970  14.636  21.635  0.3379 -0.1387 -0.0204
49824OCT     C299648  11.546  14.764  21.800 -0.0439  0.2476  0.6256
49825OCT     C199649   2.366   0.649  23.567 -0.1187 -0.2049  0.2297
49825OCT     C299650   2.583   0.476  23.162  0.1053 -0.2068  0.2556
49826OCT     C199651  10.970   3.031   2.819  0.2287  0.2588  0.1590
49826OCT     C299652  11.396   2.976   2.609  0.3047  0.0059  0.3107
49827OCT     C199653   8.176  20.647   5.149 -0.1513 -0.1776  0.2804
49827OCT     C299654   8.473  20.353   4.928  0.2575 -0.0235  0.0722
49828OCT     C199655   8.305  13.085  13.322  0.2070 -0.4271 -0.0343
49828OCT     C299656   8.755  12.922  13.274  0.0847 -0.1489  0.0236
49829OCT     C199657  17.092   5.324   5.527 -0.3152  0.1762  0.3843
49829OCT     C299658  17.021   5.784   5.598  0.0309 -0.0096 -0.0316
49830OCT     C199659   3.772   0.115  10.649  0.1786  0.2377 -0.2438
49830OCT     C299660   3.427  23.509  10.634 -0.0316 -0.0359  0.0546
49831OCT     C199661  22.497   4.986   4.530 -0.0642 -0.4560  0.0702
49831OCT     C299662  22.043   5.035   4.378  0.1925 -0.3087  0.2409
49832OCT     C199663   2.124   9.187  10.620 -0.0323  0.0321 -0.3528
49832OCT     C299664   2.591   8.975  10.740  0.1943  0.0734  0.3184
49833OCT     C199665   9.532   3.414   7.990 -0.3732 -0.0071  0.0183
49833OCT     C299666   9.746   3.609   7.580  0.0182 -0.2354  0.3256
49834OCT     C199667   5.697  21.379   9.855 -0.1869  0.3695  0.2869
49834OCT     C299668   5.598  21.737   9.610 -0.3142  0.0448 -0.1027
49835OCT     C199669  12.122  19.170   2.702  0.5110 -0.4328 -0.0362
49835OCT     C299670  11.896  18.756   2.818 -0.2793  0.1368 -0.4724
49836OCT     C199671   5.283   8.833  16.289  0.2208 -0.1497  0.0419
49836OCT     C299672   4.842   8.672  16.403 -0.1337  0.1512 -0.0868
49837OCT     C199673   6.528  19.066   9.800 -0.2112 -0.3919 -0.1531
49837OCT     C299674   6.961  19.061  10.007 -0.3057  0.2365 -0.0632
49838OCT     C199675  23.689  21.814  18.676  0.1694 -0.3291 -0.2198
49838OCT     C299676  23.639  21.794  19.168 -0.3244 -0.1048  0.4447
49839OCT     C199677   1.603  20.646   6.619 -0.1599 -0.1019  0.0596
49839OCT     C299678   1.951  20.903   6.376 -0.1860  0.0625  0.2328
49840OCT     C199679   2.199   3.471   4.234  0.0481 -0.1924  0.2209
49840OCT     C299680   2.620   3.518   4.515  0.1569  0.0926 -0.2217
49841OCT     C199681  21.281  17.067   1.502 -0.2095 -0.3342 -0.0808
49841OCT     C299682  21.660  17.194   1.652  0.0831  0.0587 -0.0550
49842OCT     C199683   6.113  19.119  13.796 -0.1367 -0.1454  0.0718
49842OCT     C299684   5.608  19.028  13.736  0.1009  0.3001  0.2158
49843OCT     C199685  18.477  13.890  20.760  0.4510  0.1798  0.0637
49843OCT     C299686  18.460  14.052  21.173  0.1086 -0.2488 -0.0304
49844OCT     C199687  12.893  15.942   8.628 -0.1480 -0.1914  0.0529
49844OCT     C299688  12.752  16.057   8.192 -0.2390 -0.0217  0.0217
49845OCT     C199689  18.604  20.428  13.915 -0.1634 -0.1613 -0.0410
49845OCT     C299690  18.381  20.479  13.457 -0.0166 -0.2515 -0.2559
49846OCT     C199691  21.201   7.193  15.655 -0.2072  0.1171 -0.3999
49846OCT     C299692  21.003   7.083  15.254 -0.0322 -0.1031  0.0085
49847OCT     C199693   4.293   3.349  21.255 -0.0551 -0.2056  0.2827
49847OCT     C299694   4.153   3.253  21.670  0.0359  0.0424  0.0002
49848OCT     C199695   9.520   1.125  15.281  0.0998 -0.0232 -0.1145
49848OCT     C299696   9.833   1.502  15.276  0.0693 -0.1079  0.0348
49849OCT     C199697   3.969  20.786   3.274  0.1757 -0.0671 -0.1552
49849OCT     C299698   4.235  20.411   3.313  0.1941  0.1177 -0.3971
49850OCT     C199699  21.069  22.910   9.803 -0.2602 -0.1314  0.0837
49850OCT     C299700  20.884  22.446   9.709  0.3451 -0.3786 -0.3626
49851OCT     C199701   0.055  14.825   3.004 -0.3190 -0.1271 -0.1426
49851OCT     C299702  23.474  14.768   3.332  0.0616  0.0805 -0.1726
49852OCT     C199703  15.645  19.785  10.190 -0.3137  0.3343 -0.2537
49852OCT     C299704  15.622  19.601   9.842  0.3548 -0.0011  0.1308
49853OCT     C199705   4.317  19.799   9.067 -0.5220 -0.0828  0.0616
49853OCT     C299706   4.255  20.175   9.348 -0.2238  0.1642  0.0911
49854OCT     C199707   6.713  21.948   8.039 -0.1438  0.1617 -0.1110
49854OCT     C299708   6.390  21.634   7.967 -0.1520  0.3652  0.2569
49855OCT     C199709   2.895  19.241  20.550 -0.1273  0.3642  0.1480
49855OCT     C299710   3.286  19.452  20.493  0.0475 -0.0879  0.1796
49856OCT     C199711  11.962   5.946   9.534  0.1874 -0.1968 -0.2212
49856OCT     C299712  11.640   6.298   9.556 -0.1142  0.0305 -0.4504
49857OCT     C199713  12.957  15.067  20.807 -0.4412 -0.2228  0.2317
49857OCT     C299714  12.726  14.707  20.950 -0.1536 -0.1401 -0.0378
49858OCT     C199715  19.864  21.994  17.742  0.0131 -0.1483  0.5528
49858OCT     C299716  20.120  22.281  17.429 -0.0635 -0.1357  0.1901
49859OCT     C199717   6.866  11.688  17.183 -0.1844  0.1512  0.0706
49859OCT     C299718   6.579  11.325  17.050 -0.0253  0.0925  0.3255
49860OCT     C199719  17.187  15.762  17.625 -0.2675  0.0705 -0.0645
49860OCT     C299720  17.488  15.394  17.679  0.0334 -0.0054 -0.1316
49861OCT     C199721   9.069  13.889  22.472 -0.3074 -0.1459 -0.2075
49861OCT     C299722   9.406  13.702  22.225  0.3167  0.2696 -0.0688
49862OCT     C199723   0.442  13.934   3.190  0.3770 -0.3949  0.0892
49862OCT     C299724   0.868  13.932   3.220 -0.1524 -0.3585 -0.2131
49863OCT     C199725  23.708   9.843  19.313  0.0820 -0.1589  0.1298
49863OCT     C299726   0.160  10.185  19.114  0.0787 -0.0474 -0.3319
49864OCT     C199727   9.040  19.639   6.351  0.2922 -0.2166  0.1304
49864OCT     C299728   8.995  19.502   6.825 -0.1716 -0.1905  0.2022
49865OCT     C199729   2.524  14.444   2.968 -0.0196 -0.5922 -0.2003
49865OCT     C299730   2.054  14.587   2.909 -0.2262  0.2419 -0.0159
49866OCT     C199731  17.224  22.313  23.426 -0.1672 -0.2285 -0.0485
49866OCT     C299732  17.321  22.737  23.177 -0.0553 -0.0273 -0.2313
49867OCT     C199733  14.762   2.364   2.901 -0.2112 -0.3320 -0.4082
49867OCT     C299734  14.800   2.341   3.339 -0.3392 -0.0396  0.1342
49868OCT     C199735   5.648  20.315   9.053 -0.2566  0.3146 -0.1628
49868OCT     C299736   5.799  20.084   9.331 -0.0235 -0.0259  0.0250
49869OCT     C199737  11.938  18.052  23.617 -0.0221 -0.0610 -0.2836
49869OCT     C299738  12.191  18.343   0.231  0.2374 -0.2867  0.0048
49870OCT     C199739  16.220  16.675  10.434  0.3458 -0.4013 -0.1375
49870OCT     C299740  16.313  17.049  10.178  0.0184  0.1309 -0.0506
49871OCT     C199741  13.352  20.103   3.826 -0.0924  0.1586  0.0742
49871OCT     C299742  13.150  20.435   3.602  0.5176  0.2404 -0.2086
49872OCT     C199743  16.750   5.430  19.066 -0.3905  0.2131  0.0592
49872OCT     C299744  16.493   5.793  19.215  0.3334  0.3585 -0.2661
49873OCT     C199745  19.471  12.147  23.463 -0.3273  0.1001  0.3287
49873OCT     C299746  19.758  11.990   0.065  0.5603  0.0171  0.0573
49874OCT     C199747  15.469  11.066  16.917  0.0208 -0.1331 -0.1091
49874OCT     C299748  15.127  11.288  16.722 -0.2682 -0.4861 -0.1642
49875OCT     C199749   6.976  18.201  10.139  0.3386  0.1259  0.0085
49875OCT     C299750   6.772  17.998  10.506 -0.2250  0.0639  0.1862
49876OCT     C199751  18.422   7.879   1.844 -0.0038 -0.1529 -0.0290
49876OCT     C299752  18.050   7.652   1.588 -0.5315 -0.0321 -0.7586
49877OCT     C199753  16.502  10.221   0.603  0.0082  0.1431 -0.0298
49877OCT     C299754  16.153  10.088   0.893 -0.1581 -0.0564  0.2207
49878OCT     C199755  14.443  14.616   9.896  0.1317 -0.0644  0.0037
49878OCT     C299756  14.339  14.836   9.563 -0.2796  0.0356  0.0236
49879OCT     C199757   9.513   2.160  12.977 -0.0050  0.4010  0.0405
49879OCT     C299758   9.848   1.926  13.150 -0.0447 -0.3220  0.2528
49880OCT     C199759   3.892   6.102  13.014 -0.0186 -0.0103 -0.1483
49880OCT     C299760   3.902   6.306  13.431  0.0690  0.3172 -0.0052
49881OCT     C199761  10.203  21.720  12.238 -0.3279 -0.0331  0.0273
49881OCT     C299762   9.914  21.380  12.144 -0.2326  0.1743  0.0051
49882OCT     C199763   8.638  21.385  18.732  0.0586 -0.0840  0.1076
49882OCT     C299764   8.858  21.094  18.428 -0.0065  0.0414 -0.1793
49883OCT     C199765  12.342  11.237   6.677  0.0039  0.0478  0.0364
49883OCT     C299766  12.331  11.687   6.906  0.1728  0.1304  0.2119
49884OCT     C199767   1.915  13.254   6.486 -0.1515 -0.0845 -0.1709
49884OCT     C299768   1.564  13.420   6.760 -0.0225  0.4594  0.2412
49885OCT     C199769  20.188   1.381  17.614 -0.1500 -0.2547  0.2196
49885OCT     C299770  20.107   1.017  17.634  0.1082 -0.1500 -0.1255
49886OCT     C199771  12.178   7.079   2.265  0.0561 -0.2175  0.3203
49886OCT     C299772  12.008   7.107   1.822 -0.2500 -0.3216 -0.4375
49887OCT     C199773  10.122  16.385  10.835  0.0770  0.2377  0.0308
49887OCT     C299774   9.900  16.791  10.908 -0.1153 -0.3251 -0.0949
49888OCT     C199775   1.705  13.602  11.230 -0.4022  0.1783  0.0594
49888OCT     C299776   1.299  13.603  11.147 -0.0469  0.0555 -0.0094
49889OCT     C199777  14.007   0.803  17.079 -0.0810 -0.1018  0.3919
49889OCT     C299778  13.544   0.673  17.117  0.2804  0.1167  0.0050
49890OCT     C199779  11.999   3.488  22.809 -0.2207 -0.1001 -0.1630
49890OCT     C299780  12.090   3.677  22.362  0.3270  0.2448 -0.3135
49891OCT     C199781  11.465   0.367   0.869 -0.2706  0.3279  0.2279
49891OCT     C299782  11.784   0.018   0.960 -0.1488  0.0561  0.1603
49892OCT     C199783  12.723  22.942   8.918 -0.3725 -0.0697 -0.0308
49892OCT     C299784  12.636  22.559   9.189 -0.2270  0.2830 -0.3667
49893OCT     C199785   7.720  12.138  19.539  0.2826 -0.0136 -0.1597
49893OCT     C299786   7.972  11.836  19.231  0.0507 -0.1190  0.0831
49894OCT     C199787  22.706   3.790  17.499 -0.2086  0.1005 -0.0784
49894OCT     C299788  22.562   4.267  17.459 -0.0380  0.1958 -0.2386
49895OCT     C199789  16.917   4.284   6.741  0.0315  0.1576  0.1887
49895OCT     C299790  17.267   4.004   6.926  0.1067 -0.4285 -0.2301
49896OCT     C199791   2.940  11.117   3.250 -0.3879  0.1361  0.1516
49896OCT     C299792   3.084  10.908   3.695 -0.3482 -0.1219  0.4228
49897OCT     C199793  23.430   2.521  20.889  0.2372 -0.0501 -0.0741
49897OCT     C299794  23.391   2.609  21.327 -0.0448 -0.0024  0.0082
49898OCT     C199795   4.813   5.296  11.558 -0.1282 -0.0374 -0.0415
49898OCT     C299796   5.096   4.928  11.645  0.0208 -0.0220 -0.1838
49899OCT     C199797  13.250  10.210  14.928  0.2841 -0.1835 -0.3285
49899OCT     C299798  13.047  10.620  15.000 -0.3162 -0.3800 -0.0651
49900OCT     C199799   4.309   3.089   1.843 -0.1720  0.1907  0.1229
49900OCT     C299800   4.028   3.464   2.052 -0.2303  0.0694  0.0214
49901OCT     C199801  10.312  12.085  16.788 -0.3875  0.0505  0.0254
49901OCT     C299802  10.127  12.278  17.224  0.0049  0.0230 -0.1472
49902OCT     C199803  21.051  11.129   6.692 -0.2425  0.0206  0.2301
49902OCT     C299804  20.696  11.404   6.683 -0.0813  0.3135 -0.1955
49903OCT     C199805   3.666  14.467   7.394 -0.0835 -0.1716  0.3398
49903OCT     C299806   3.369  14.325   7.665  0.0615 -0.1542 -0.0843
49904OCT     C199807  22.268  19.454  21.992 -0.1138  0.1911  0.2538
49904OCT     C299808  22.559  19.084  22.201  0.1460  0.1082  0.0621
49905OCT     C199809   9.361   4.632   3.338 -0.0823 -0.1987 -0.1135
49905OCT     C299810   9.012   4.910   3.178  0.0870  0.3759  0.3808
49906OCT     C199811   3.578  15.931  22.658  0.2102 -0.1376 -0.0163
49906OCT     C299812   3.526  16.294  22.926  0.1200 -0.1498 -0.0799
49907OCT     C199813   5.514  10.615  18.104  0.0093  0.0550  0.0788
49907OCT     C299814   5.426  10.895  17.768 -0.1151  0.4387 -0.3817
49908OCT     C199815  14.464   3.305   5.011  0.2570 -0.2164  0.0372
49908OCT     C299816  14.619   2.818   5.040  0.0154  0.3940  0.2525
49909OCT     C199817  21.832  19.455  15.126  0.2015 -0.0036  0.1839
49909OCT     C299818  21.764  19.021  15.214 -0.2829  0.1015  0.2178
49910OCT     C199819  14.985  21.309  21.053  0.0076 -0.0720 -0.0766
49910OCT     C299820  15.116  21.594  21.399 -0.0115 -0.0129 -0.4447
49911OCT     C199821   9.819  21.755  20.649 -0.0081  0.1661  0.0582
49911OCT     C299822   9.631  21.366  20.794 -0.0275  0.0379 -0.3046
49912OCT     C199823  19.038   4.680   5.604 -0.0869 -0.1345  0.1560
49912OCT     C299824  19.442   4.821   5.797  0.2302 -0.0337 -0.4634
49913OCT     C199825  22.013  18.370   6.321  0.0485  0.1740  0.2920
49913OCT     C299826  22.338  18.572   6.052  0.0111  0.1037  0.1550
49914OCT     C199827  17.752  14.685  22.680  0.4570 -0.3241 -0.0368
49914OCT     C299828  17.661  14.313  22.412  0.1073  0.0922 -0.2339
49915OCT     C199829   2.296   3.995  18.779 -0.1727  0.1527  0.0104
49915OCT     C299830   2.083   3.698  19.033  0.0417 -0.0261  0.3160
49916OCT     C199831  23.740   0.009   2.390 -0.0119  0.2047  0.2884
49916OCT     C299832   0.384   0.060   2.476 -0.2872 -0.0870  0.1779
49917OCT     C199833   5.293  10.092   8.403  0.2774  0.2179  0.4178
49917OCT     C299834   5.731  10.180   8.485 -0.2783  0.1322 -0.1078
49918OCT     C199835   8.055  22.030  13.716 -0.2306 -0.2490 -0.0922
49918OCT     C299836   8.083  21.603  13.545 -0.0323 -0.2044  0.0378
49919OCT     C199837  12.478  12.976  21.504 -0.1080 -0.2720 -0.2948
49919OCT     C299838  12.434  12.949  21.032 -0.1314  0.3651  0.1011
49920OCT     C199839   0.869  16.787  13.254  0.0401  0.2486  0.1390
49920OCT     C299840   1.055  16.409  12.997 -0.0541  0.1516 -0.1375
49921OCT     C199841   0.444  13.571  14.974 -0.2805  0.3422  0.3412
49921OCT     C299842   0.869  13.425  15.112 -0.4563  0.2349  0.2305
49922OCT     C199843  23.692  15.839   9.235  0.3655 -0.0169 -0.0343
49922OCT     C299844   0.439  15.955   9.140 -0.1562 -0.1822 -0.0699
49923OCT     C199845   7.293   7.538   2.835 -0.1031  0.0051 -0.1353
49923OCT     C299846   7.603   7.823   2.656  0.3292 -0.0275 -0.2974
49924OCT     C199847   5.746   1.801   3.525 -0.1332 -0.4229 -0.1954
49924OCT     C299848   5.342   1.655   3.739  0.0757 -0.0148 -0.0366
49925OCT     C199849  14.110   1.807   9.070  0.2556 -0.3527  0.2474
49925OCT     C299850  13.890   1.971   9.424  0.1949 -0.0432  0.2322
49926OCT     C199851   5.242  22.451  16.673  0.3177  0.2655 -0.0535
49926OCT     C299852   5.513  22.717  16.984  0.2791 -0.0210 -0.1199
49927OCT     C199853   5.472   4.884  18.590  0.0084  0.0681 -0.0739
49927OCT     C299854   5.891   4.643  18.541  0.1380 -0.1342 -0.1316
49928OCT     C199855   6.611   0.424  14.858  0.3090  0.1692 -0.0198
49928OCT     C299856   6.404   0.500  15.213  0.1949  0.2138 -0.5157
49929OCT     C199857  13.942  13.347  21.031 -0.2184 -0.3875 -0.2066
49929OCT     C299858  14.129  13.199  20.620 -0.0434 -0.1148 -0.1717
49930OCT     C199859  17.365   7.921   0.566  0.4451  0.3362  0.0937
49930OCT     C299860  17.746   7.771   0.349  0.2045 -0.1216  0.0090
49931OCT     C199861  10.051  15.509  18.154  0.3095 -0.0606  0.0732
49931OCT     C299862  10.109  15.103  18.149  0.0447 -0.1267  0.0205
49932OCT     C199863  22.637  22.648  10.783 -0.1118  0.0295 -0.0916
49932OCT     C299864  22.748  22.218  10.609 -0.2452  0.4681  0.2422
49933OCT     C199865   4.035   2.881   0.438 -0.1336  0.0885 -0.2216
49933OCT     C299866   3.591   2.758   0.331 -0.1135 -0.2908 -0.2574
49934OCT     C199867  10.597  23.541   8.095 -0.2684  0.0352  0.2824
49934OCT     C299868  10.372  23.230   7.775  0.0176 -0.0319 -0.1918
49935OCT     C199869   2.439   4.102   1.796  0.1640  0.2419  0.2942
49935OCT     C299870   2.494   3.947   2.231 -0.3429 -0.1434  0.2975
49936OCT     C199871  18.091  16.255   6.884 -0.4970  0.2271 -0.0331
49936OCT     C299872  17.917  16.643   6.864  0.1541 -0.0124  0.1546
49937OCT     C199873  11.759  18.176   2.223 -0.1232 -0.0578  0.1673
49937OCT     C299874  11.948  18.378   2.562  0.4020 -0.1822 -0.0659
49938OCT     C199875  10.641  11.185   4.546 -0.0011 -0.0591  0.1803
49938OCT     C299876  10.514  10.693   4.398 -0.1163  0.1333  0.1858
49939OCT     C199877   3.064  16.685  22.286 -0.0798  0.1984  0.3216
49939OCT     C299878   3.184  16.593  22.735 -0.0491  0.3769 -0.1534
49940OCT     C199879   3.212  20.296   4.450  0.0149 -0.3294 -0.2145
49940OCT     C299880   3.628  20.085   4.537  0.0831 -0.2145  0.1215
49941OCT     C199881   9.147  16.076   1.998  0.2171  0.0210  0.2280
49941OCT     C299882   9.543  16.246   2.219  0.0112 -0.0475 -0.2254
49942OCT     C199883  19.657  10.804   5.500 -0.0972 -0.0017  0.2843
49942OCT     C299884  19.524  10.532   5.880  0.0023 -0.1060  0.0903
49943OCT     C199885  16.684   0.944  10.079  0.1026 -0.1488  0.0563
49943OCT     C299886  17.156   0.871  10.021  0.2570  0.0638 -0.0647
49944OCT     C199887   9.587  11.459   8.420 -0.2060  0.0633 -0.2090
49944OCT     C299888   9.555  11.345   8.004  0.0175 -0.1477  0.0356
49945OCT     C199889   0.266  11.004   7.141 -0.2760 -0.2111 -0.1456
49945OCT     C299890   0.280  10.537   6.977  0.5170 -0.3170  0.1278
49946OCT     C199891  15.356  18.291   0.587 -0.0466 -0.0436 -0.2662
49946OCT     C299892  15.695  18.479   0.825  0.3569 -0.1451  0.2608
49947OCT     C199893  16.053   9.393   8.201  0.1936  0.2380  0.1303
49947OCT     C299894  16.089   9.875   8.123  0.0935  0.1949  0.0128
49948OCT     C199895   3.712   7.351   5.919  0.4399  0.0494  0.1384
49948OCT     C299896   3.802   7.502   6.354 -0.0665 -0.2566  0.1255
49949OCT     C199897   4.597  18.253  18.619 -0.1348  0.0377  0.0347
49949OCT     C299898   4.172  18.242  18.721  0.0923 -0.0255 -0.0847
49950OCT     C199899  14.773   0.546   4.043 -0.2963  0.0848  0.3484
49950OCT     C299900  14.886   0.924   3.837  0.2460 -0.2086 -0.0064
49951OCT     C199901  20.735  22.826   1.161  0.3916 -0.0887 -0.1857
49951OCT     C299902  20.316  22.629   1.252 -0.1027  0.0169  0.0211
49952OCT     C199903   4.957   1.822   3.436 -0.0738 -0.0920  0.4621
49952OCT     C299904   5.106   1.892   2.982 -0.2215 -0.0381 -0.1176
49953OCT     C199905   7.481   8.160   7.848 -0.4336 -0.5245  0.0300
49953OCT     C299906   7.641   8.496   7.569  0.2409 -0.0241  0.1866
49954OCT     C199907  21.752   5.706  23.166 -0.2675  0.0013 -0.0208
49954OCT     C299908  21.835   5.448  22.807 -0.0405  0.0484  0.3182
49955OCT     C199909  18.736  14.818  15.666  0.1633  0.2146 -0.1731
49955OCT     C299910  18.912  15.075  15.358  0.1514 -0.1913  0.1592
49956OCT     C199911   8.908  18.647  17.132  0.1524  0.1350  0.1724
49956OCT     C299912   9.341  18.553  17.107  0.1275 -0.1921  0.0149
49957OCT     C199913   3.054   9.291   5.607  0.0913 -0.1041  0.1679
49957OCT     C299914   2.865   9.735   5.485  0.2844  0.0212  0.1081
49958OCT     C199915  13.026  13.200  22.107 -0.1522 -0.2205 -0.2440
49958OCT     C299916  12.673  12.908  22.224 -0.0883  0.2252  0.1088
49959OCT     C199917   4.311   6.745  16.355 -0.0586 -0.1293 -0.2274
49959OCT     C299918   4.379   6.490  16.731  0.3691 -0.1585  0.0886
49960OCT     C199919  13.714   3.455   2.722  0.0981  0.1382 -0.5699
49960OCT     C299920  14.007   3.801   2.834 -0.3319  0.0181  0.0095
49961OCT     C199921  13.614   4.666   1.165 -0.0149  0.4504 -0.2131
49961OCT     C299922  13.921   4.316   1.032 -0.0930 -0.0302 -0.0517
49962OCT     C199923   6.092  19.244  18.714  0.2565  0.1463 -0.2392
49962OCT     C299924   5.697  19.269  18.960  0.2077  0.0694  0.2675
49963OCT     C199925   7.504  19.010  16.163 -0.0137 -0.0100 -0.1594
49963OCT     C299926   7.621  19.281  16.515 -0.2934 -0.0064 -0.1569
49964OCT     C199927  17.382  23.558  20.598  0.4155  0.0129 -0.1226
49964OCT     C299928  17.165  23.321  20.901 -0.1873  0.1364  0.3890
49965OCT     C199929  14.114  19.914  18.903  0.1103  0.0637  0.2671
49965OCT     C299930  13.978  20.228  19.253 -0.1007 -0.0589  0.0225
49966OCT     C199931   9.165   3.848  16.419 -0.2631 -0.0800  0.3583
49966OCT     C299932   9.174   3.934  15.986  0.4502  0.2859  0.4134
49967OCT     C199933   2.041   5.478  11.945  0.2805  0.0023  0.2279
49967OCT     C299934   2.194   5.585  11.540 -0.0452  0.1493  0.4619
49968OCT     C199935  13.563  16.949  10.117 -0.4219  0.2577  0.3722
49968OCT     C299936  13.876  16.963  10.510 -0.4536 -0.0017 -0.3768
49969OCT     C199937  13.190   3.566  13.360  0.1078  0.1778 -0.0248
49969OCT     C299938  12.755   3.725  13.418  0.1228 -0.2938  0.0330
49970OCT     C199939  22.087   2.590  11.111  0.5035  0.1895 -0.2161
49970OCT     C299940  21.878   2.595  10.744  0.0324  0.1541  0.0621
49971OCT     C199941  10.347  21.536   4.846  0.1251 -0.1426  0.1854
49971OCT     C299942  10.585  21.625   5.266  0.2787 -0.3441 -0.1714
49972OCT     C199943  21.242   5.492   1.750  0.4771  0.1510  0.0446
49972OCT     C299944  21.406   5.634   1.310  0.3036 -0.4100 -0.3194
49973OCT     C199945   4.543  19.721  14.796  0.2238  0.1983  0.2653
49973OCT     C299946   4.262  19.976  14.997  0.0696 -0.4102  0.0970
49974OCT     C199947   8.769  16.500  10.615  0.1991  0.2125  0.1526
49974OCT     C299948   8.465  16.585  10.304  0.3308  0.0816 -0.4268
49975OCT     C199949  13.705   5.606  17.128 -0.0445 -0.0474  0.1115
49975OCT     C299950  13.346   5.584  17.315  0.3646  0.1106 -0.1493
49976OCT     C199951  12.803  20.859  21.540 -0.0662  0.2929 -0.1135
49976OCT     C299952  12.863  20.468  21.233 -0.2453  0.0202 -0.0969
49977OCT     C199953  18.470  12.736   1.638 -0.1340  0.0222  0.1541
49977OCT     C299954  18.580  12.811   2.129 -0.0847  0.0538  0.0763
49978OCT     C199955  20.090  12.029   5.535 -0.0850 -0.2322  0.3872
49978OCT     C299956  20.068  12.466   5.771  0.1851  0.3413  0.0538
49979OCT     C199957   3.349   4.773   2.103  0.0887  0.1171  0.0148
49979OCT     C299958   2.948   4.768   2.446  0.4019 -0.4716  0.0881
49980OCT     C199959   8.695   0.622  16.694 -0.0656  0.0619  0.1704
49980OCT     C299960   8.448   0.403  17.025 -0.0694 -0.0538 -0.1065
49981OCT     C199961  19.317   4.485   7.697  0.1543  0.1468  0.0989
49981OCT     C299962  19.493   4.885   7.804 -0.1425 -0.2020 -0.2682
49982OCT     C199963   1.525   6.272  17.764 -0.0909  0.0377 -0.1330
49982OCT     C299964   1.548   6.071  17.354  0.2322  0.1293  0.2564
49983OCT     C199965   5.633  20.530   0.126 -0.2151  0.3334  0.1119
49983OCT     C299966   5.814  20.845   0.421  0.3047  0.3197 -0.0291
49984OCT     C199967  18.291  22.711  13.555 -0.1803 -0.4043  0.2035
49984OCT     C299968  17.976  23.078  13.646  0.1216  0.0045 -0.0893
49985OCT     C199969  18.149   0.248  15.867 -0.1866  0.0464  0.1409
49985OCT     C299970  17.996   0.694  15.837 -0.0841  0.0647 -0.0707
49986OCT     C199971   9.187  12.231  10.246 -0.0965  0.0009  0.2881
49986OCT     C299972   9.039  12.446  10.629 -0.0026 -0.1580 -0.2687
49987OCT     C199973  21.259   7.895   9.483  0.0299 -0.1697 -0.0489
49987OCT     C299974  21.711   7.957   9.310 -0.2114 -0.2322 -0.3320
49988OCT     C199975  17.503  22.579   3.575 -0.0570 -0.0817  0.0928
49988OCT     C299976  17.243  22.717   3.912 -0.1337  0.3348 -0.1953
49989OCT     C199977  21.519   4.490  11.951 -0.0368  0.1924 -0.1069
49989OCT     C299978  21.526   4.584  11.477 -0.4175  0.2376 -0.2127
49990OCT     C199979   9.412   9.079  12.643 -0.3345  0.1091  0.2560
49990OCT     C299980   9.034   8.796  12.640  0.1243 -0.1175 -0.2590
49991OCT     C199981  17.343  23.641  11.079 -0.2728 -0.1273  0.2664
49991OCT     C299982  16.907  23.481  10.962  0.0514 -0.3953 -0.1468
49992OCT     C199983  10.597  23.124  19.973 -0.0867 -0.0206  0.0469
49992OCT     C299984  11.046  23.001  19.812 -0.1454  0.0297  0.3163
49993OCT     C199985   1.415  18.563   1.614  0.0966 -0.1921  0.0361
49993OCT     C299986   1.604  18.345   1.958 -0.2313 -0.0551  0.1146
49994OCT     C199987   0.802   7.563   3.707 -0.1481 -0.2512 -0.0158
49994OCT     C299988   0.947   7.474   4.144  0.1879  0.0967 -0.0817
49995OCT     C199989  11.575   9.150  18.128  0.3859  0.1276  0.1406
49995OCT     C299990  11.342   8.717  18.260  0.1726 -0.1342 -0.0377
49996OCT     C199991   4.488  12.942  23.603 -0.0234  0.0256 -0.0341
49996OCT     C299992   4.434  12.628  23.269  0.0992  0.1460 -0.0726
49997OCT     C199993  20.416  18.931  10.490  0.0765  0.3511 -0.2963
49997OCT     C299994  20.171  19.004  10.110 -0.1930  0.1283  0.1135
49998OCT     C199995   5.630  12.110   5.191 -0.1352 -0.4087 -0.1134
49998OCT     C299996   6.038  12.304   5.126 -0.0029  0.1344  0.0197
49999OCT     C199997   4.306  21.346  17.339 -0.0709  0.1844 -0.3689
49999OCT     C299998   3.919  21.158  17.214 -0.0020 -0.1089 -0.4444
50000OCT     C199999   3.170   2.337  21.020 -0.2962  0.1779 -0.2004
50000OCT     C2    0   3.169   2.595  21.378  0.0442 -0.1498  0.1101
50001OCT     C1    1  17.024   2.658  16.583  0.3251  0.3995 -0.0537
50001OCT     C2    2  16.945   2.966  16.240 -0.0607  0.0229  0.0038
50002OCT     C1    3  12.083  19.088   3.222  0.2833  0.4824  0.1713
50002OCT     C2    4  12.447  18.910   3.070  0.2996  0.0068 -0.2468
50003OCT     C1    5  10.635   2.862  10.178  0.0358 -0.1959 -0.0981
50003OCT     C2    6  10.441   2.486  10.333  0.0973  0.0240  0.0720
50004OCT     C1    7  13.267  19.169   0.129  0.0060  0.1038  0.2015
50004OCT     C2    8  13.631  19.041  23.639 -0.0631  0.2238  0.1213
50005OCT     C1    9  21.561   0.202  18.196  0.2890 -0.2039  0.0873
50005OCT     C2   10  21.441  23.570  18.518  0.1564  0.0320 -0.2303
50006OCT     C1   11  21.581  20.586  13.468 -0.2465  0.1431 -0.0787
50006OCT     C2   12  21.902  20.273  13.588 -0.1754  0.3044  0.2063
50007OCT     C1   13  19.673  21.112  18.255 -0.2377 -0.6585 -0.1825
50007OCT     C2   14  19.193  21.130  18.384  0.0008 -0.1018  0.1805
50008OCT     C1   15  21.350  17.175   2.408 -0.2935  0.1050 -0.3980
50008OCT     C2   16  21.180  17.244   1.941 -0.0647 -0.1496 -0.2071
50009OCT     C1   17   6.327  18.359  22.989  0.0242  0.1479 -0.2129
50009OCT     C2   18   6.747  18.173  23.045 -0.0981  0.1477  0.1524
50010OCT     C1   19  15.706   1.576   6.891 -0.2049  0.3782  0.0411
50010OCT     C2   20  16.164   1.668   6.994 -0.1087  0.1901  0.0228
50011OCT     C1   21   0.517   1.467   4.332 -0.1074 -0.1224  0.0737
50011OCT     C2   22   0.329   1.667   4.765 -0.0071  0.5061  0.0525
50012OCT     C1   23   2.616  11.619  15.603 -0.0726  0.0997 -0.1048
50012OCT     C2   24   2.869  11.255  15.585 -0.3012  0.0392  0.0433
50013OCT     C1   25   8.432  15.599   2.340 -0.0035  0.1762  0.3623
50013OCT     C2   26   8.359  16.008   2.112  0.4461  0.0662 -0.0670
50014OCT     C1   27  12.514   7.086   7.746 -0.0151  0.1664 -0.1669
50014OCT     C2   28  12.071   6.964   7.506  0.0157  0.2434 -0.3372
50015OCT     C1   29  19.565  12.037  20.360 -0.0310  0.2285 -0.1251
50015OCT     C2   30  19.538  11.664  20.626  0.0277  0.0926 -0.5875
50016OCT     C1   31  17.654   7.743  13.173 -0.0534 -0.2634 -0.1490
50016OCT     C2   32  17.885   7.919  13.564 -0.0912  0.1232  0.0318
50017OCT     C1   33   8.185  13.128  12.019  0.3397 -0.2162  0.0956
50017OCT     C2   34   8.270  12.902  11.581  0.1435 -0.1097 -0.1838
50018OCT     C1   35   4.490  12.027   5.186  0.0505  0.0425  0.0081
50018OCT     C2   36   4.771  12.346   5.021  0.1970  0.2346 -0.0733
50019OCT     C1   37   9.385  12.980  19.757 -0.1380  0.0943  0.0191
50019OCT     C2   38   9.479  12.525  19.666  0.1102  0.1673 -0.1348
50020OCT     C1   39   0.971   0.280  15.543 -0.3657  0.0785 -0.0444
50020OCT     C2   40   0.860   0.255  15.978  0.0042  0.0919 -0.3002
50021OCT     C1   41   8.336  22.404   2.157  0.0502 -0.2194  0.0198
50021OCT     C2   42   8.729  22.504   2.404  0.4010  0.3772 -0.4091
50022OCT     C1   43   7.575   6.460   8.805  0.2330  0.1804 -0.3987
50022OCT     C2   44   7.672   6.489   8.351 -0.2060 -0.0965  0.3293
50023OCT     C1   45  20.892  13.095  22.884  0.4970 -0.1658 -0.3377
50023OCT     C2   46  20.960  13.551  23.022 -0.1786 -0.1633 -0.0009
50024OCT     C1   47  10.664  16.064   6.250 -0.0875 -0.1445 -0.0865
50024OCT     C2   48  11.190  16.120   6.248 -0.1572  0.3883  0.3509
50025OCT     C1   49  13.271  17.645   1.266  0.3447  0.3702  0.2287
50025OCT     C2   50  13.649  17.356   1.145  0.1446  0.1186  0.2681
50026OCT     C1   51  14.213   0.422   5.938  0.0442 -0.0615 -0.1118
50026OCT     C2   52  14.450   0.429   6.342 -0.5993  0.0406 -0.0585
50027OCT     C1   53   2.787   4.970  18.326 -0.1557 -0.1072  0.0932
50027OCT     C2   54   2.831   4.496  18.271 -0.4005 -0.1970 -0.4585
50028OCT     C1   55  22.247   0.952  16.406  0.2927 -0.3204  0.3098
50028OCT     C2   56  22.346   0.782  16.829  0.1806  0.1332 -0.2216
50029OCT     C1   57  13.022  11.464   5.659 -0.1384 -0.1356  0.5503
50029OCT     C2   58  12.659  11.215   5.720  0.2954  0.0367 -0.0747
50030OCT     C1   59   6.350  19.875  14.438 -0.1820 -0.1784  0.0120
50030OCT     C2   60   6.755  19.936  14.532  0.2460  0.3390  0.1731
50031OCT     C1   61  18.518  21.403   8.501  0.0280 -0.3234  0.1831
50031OCT     C2   62  18.808  21.760   8.712  0.0081  0.0577  0.0615
50032OCT     C1   63   3.007  20.444  22.120  0.0422 -0.0538  0.0203
50032OCT     C2   64   3.207  20.480  22.535  0.2144 -0.0108 -0.0305
50033OCT     C1   65   9.291  14.605  15.297 -0.0358 -0.3318 -0.4060
50033OCT     C2   66   9.497  14.328  14.974  0.3158  0.3907  0.0551
50034OCT     C1   67  23.667  17.176  12.229 -0.0845 -0.0791  0.3014
50034OCT     C2   68   0.262  16.909  12.241 -0.0921 -0.0742 -0.0636
50035OCT     C1   69   0.628   3.622  11.538 -0.1163  0.3383  0.2043
50035OCT     C2   70   0.718   3.936  11.197 -0.3378  0.2542 -0.1848
50036OCT     C1   71   5.495   7.579   4.829 -0.0491  0.2560 -0.3221
50036OCT     C2   72   5.011   7.670   4.807 -0.1953  0.2455  0.3279
50037OCT     C1   73   6.251  22.148  10.264 -0.0466  0.2636  0.2063
50037OCT     C2   74   5.875  22.404  10.376 -0.2369  0.1956 -0.2032
50038OCT     C1   75  15.704   8.021   3.188  0.4916 -0.1926  0.0377
50038OCT     C2   76  15.439   7.900   2.847  0.2989 -0.0532 -0.3117
50039OCT     C1   77  21.056  23.258   4.940 -0.0278 -0.2605 -0.4271
50039OCT     C2   78  21.124  22.868   5.170  0.0352 -0.0393 -0.0172
50040OCT     C1   79  23.337  21.405   3.194 -0.0767  0.3886 -0.1092
50040OCT     C2   80  23.025  21.092   3.184  0.4137  0.0420 -0.1457
50041OCT     C1   81  11.713  12.940  18.706  0.0057  0.0953 -0.4322
50041OCT     C2   82  11.480  12.599  18.822  0.1283  0.1771  0.0713
50042OCT     C1   83   4.824  16.429  13.504  0.0141  0.0414 -0.0091
50042OCT     C2   84   4.932  15.993  13.378 -0.0627  0.2217 -0.3307
50043OCT     C1   85   5.389   6.005   8.591 -0.2533 -0.2337 -0.0969
50043OCT     C2   86   5.469   6.442   8.658  0.0813 -0.1476  0.0482
50044OCT     C1   87  19.689   8.244  14.779  0.0384  0.0134 -0.1729
50044OCT     C2   88  19.237   8.077  14.679 -0.0949 -0.2109 -0.1430
50045OCT     C1   89   0.176   1.785   9.432  0.2476 -0.1030 -0.1225
50045OCT     C2   90   0.051   1.430   9.736  0.6063 -0.3755 -0.3281
50046OCT     C1   91  13.871  13.841  14.441  0.3672  0.0087 -0.0497
50046OCT     C2   92  13.642  13.433  14.634 -0.0315  0.1579  0.2308
50047OCT     C1   93   5.803   9.885   9.996 -0.0304 -0.1427  0.3463
50047OCT     C2   94   5.501  10.228  10.152  0.2398  0.1225 -0.3662
50048OCT     C1   95   9.320  14.747  11.989 -0.2157  0.3133 -0.0923
50048OCT     C2   96   9.784  14.875  11.978  0.0272 -0.1033 -0.1140
50049OCT     C1   97   5.925  12.897   0.522  0.2660 -0.1351  0.3951
50049OCT     C2   98   6.035  13.129   0.883 -0.1682  0.0171 -0.0246
50050OCT     C1   99  10.412   8.507  20.150  0.0393  0.0423 -0.1413
50050OCT     C2  100  10.836   8.236  20.101  0.1020  0.1962  0.0453
50051OCT     C1  101  10.496   3.648   7.978  0.1807  0.0147  0.1587
50051OCT     C2  102  10.707   3.260   7.801 -0.2162  0.1987 -0.0375
50052OCT     C1  103  13.738  13.280  18.257 -0.4032  0.0328  0.1790
50052OCT     C2  104  13.445  13.029  18.372  0.0453  0.0930  0.1370
50053OCT     C1  105   3.295  11.103   6.226  0.0057 -0.2768 -0.0184
50053OCT     C2  106   3.503  10.777   5.997 -0.2690  0.1248 -0.0607
50054OCT     C1  107  10.655  18.694  17.848 -0.0084  0.3843  0.1486
50054OCT     C2  108  10.274  18.929  17.690 -0.0559  0.0917 -0.0468
50055OCT     C1  109   3.426   2.984   6.098  0.1539 -0.2536  0.0122
50055OCT     C2  110   3.564   3.277   5.796  0.0329 -0.2293  0.2087
50056OCT     C1  111   0.169  21.778   2.016  0.1039 -0.1134 -0.1082
50056OCT     C2  112  23.655  21.901   2.374  0.0476  0.0841 -0.1263
50057OCT     C1  113   4.560  13.437  22.945  0.2130 -0.2490 -0.0660
50057OCT     C2  114   4.630  13.328  23.369  0.1035  0.0126 -0.1874
50058OCT     C1  115   6.884  13.760   6.662  0.2042  0.0406  0.0684
50058OCT     C2  116   7.279  13.536   6.518 -0.2262  0.0102  0.4051
50059OCT     C1  117   4.712  10.790  19.014  0.0804  0.1229 -0.3216
50059OCT     C2  118   4.654  11.284  19.060  0.2612 -0.2037 -0.1745
50060OCT     C1  119   5.082   9.593   4.759 -0.0502  0.1398  0.2987
50060OCT     C2  120   4.933   9.762   4.315  0.0140  0.0960 -0.5990
50061OCT     C1  121   7.361   2.105  21.947 -0.1179  0.0475 -0.6176
50061OCT     C2  122   7.076   1.647  21.870  0.5968 -0.2181 -0.0545
50062OCT     C1  123  15.802   9.889  19.288  0.0392 -0.2618 -0.0053
50062OCT     C2  124  15.925  10.231  19.060  0.2688  0.0606 -0.1917
50063OCT     C1  125   4.719  22.283  18.509 -0.0370  0.0498  0.4583
50063OCT     C2  126   4.867  22.597  18.214 -0.5130  0.2474 -0.1301
50064OCT     C1  127  18.891  13.659  21.847  0.0236 -0.2038  0.0148
50064OCT     C2  128  19.239  13.805  22.110  0.1257 -0.1620  0.0664
50065OCT     C1  129   2.920  14.272   9.259 -0.3908  0.0570 -0.1866
50065OCT     C2  130   3.354  14.146   9.514 -0.3427  0.2752  0.3899
50066OCT     C1  131   7.273  21.533  19.597 -0.1972 -0.0602 -0.2247
50066OCT     C2  132   7.696  21.298  19.543 -0.3026  0.1512 -0.0220
50067OCT     C1  133  18.116  19.595  23.079  0.3900  0.1606 -0.2639
50067OCT     C2  134  17.996  19.335  23.462 -0.0886  0.2266 -0.1117
50068OCT     C1  135  14.296   2.106   5.490 -0.0387 -0.0083  0.0467
50068OCT     C2  136  14.266   1.877   5.890 -0.4307 -0.2736  0.4268
50069OCT     C1  137  15.695   0.568  15.188  0.1519 -0.0984 -0.0916
50069OCT     C2  138  15.560   0.249  14.887  0.0601  0.1572  0.2516
50070OCT     C1  139  22.326  19.494  12.478 -0.1191  0.0643 -0.2629
50070OCT     C2  140  22.765  19.681  12.384  0.1340  0.0798  0.0553
50071OCT     C1  141  21.529   6.006  12.819  0.0511  0.1114 -0.0267
50071OCT     C2  142  21.121   5.845  12.888  0.0317  0.0106  0.0072
50072OCT     C1  143   2.820  23.672  21.731 -0.2029 -0.4390 -0.1203
50072OCT     C2  144   3.322   0.022  21.601  0.2464 -0.2605  0.0317
50073OCT     C1  145  20.260  10.065  23.397  0.1966  0.0188  0.1931
50073OCT     C2  146  20.263   9.634  23.262 -0.0773 -0.2225 -0.1507
50074OCT     C1  147  11.947  20.416   5.385 -0.1752  0.2930  0.1224
50074OCT     C2  148  12.071  20.870   5.414  0.2088  0.2414 -0.0328
50075OCT     C1  149   8.630   0.570  20.374 -0.0962  0.0642  0.3012
50075OCT     C2  150   8.326   0.310  20.135 -0.1835 -0.0231 -0.0141
50076OCT     C1  151  13.875   2.520   7.238 -0.0295 -0.1002 -0.3897
50076OCT     C2  152  13.496   2.308   7.225  0.0461 -0.0599 -0.1495
50077OCT     C1  153  18.438   9.778  19.683 -0.2030  0.1751 -0.2293
50077OCT     C2  154  18.637   9.604  20.010 -0.3933  0.0218  0.0820
50078OCT     C1  155  21.015   6.594  18.630  0.0628 -0.1106  0.0064
50078OCT     C2  156  20.552   6.439  18.811  0.1298 -0.3978 -0.1932
50079OCT     C1  157  21.057  18.398  16.087 -0.3888 -0.0163 -0.0584
50079OCT     C2  158  20.818  18.769  16.074 -0.3044  0.1813 -0.0229
50080OCT     C1  159  18.050   2.082   0.103  0.0028  0.6941 -0.1125
50080OCT     C2  160  18.131   1.817  23.471 -0.1169 -0.3021  0.1475
50081OCT     C1  161   3.007  18.789  13.014  0.0418 -0.2551 -0.2042
50081OCT     C2  162   3.076  18.444  13.377  0.2429  0.4985 -0.1067
50082OCT     C1  163   3.904   7.219   1.198  0.0304 -0.2082  0.2514
50082OCT     C2  164   3.524   7.496   1.155 -0.1868  0.2098  0.1043
50083OCT     C1  165   2.243  14.532   6.407 -0.0045  0.4393 -0.0902
50083OCT     C2  166   2.667  14.554   6.638  0.3878  0.3678  0.0587
50084OCT     C1  167   0.802   5.221  23.532  0.0611  0.5307 -0.3500
50084OCT     C2  168   0.614   5.612  23.372 -0.1774 -0.2468  0.1331
50085OCT     C1  169   3.526   8.828  22.204 -0.0314  0.3989  0.1378
50085OCT     C2  170   3.691   8.634  22.549 -0.2332 -0.2105 -0.3912
50086OCT     C1  171  18.279  20.835  12.047  0.1385 -0.0146 -0.0534
50086OCT     C2  172  17.870  20.621  12.050  0.0472  0.0454 -0.3272
50087OCT     C1  173  14.530  22.630   6.086  0.0262 -0.1067  0.0372
50087OCT     C2  174  14.089  22.435   6.184 -0.1295  0.1563 -0.1062
50088OCT     C1  175   3.472   9.002  15.663 -0.1289  0.0877 -0.0311
50088OCT     C2  176   3.300   9.434  15.500  0.0859  0.1714 -0.2889
50089OCT     C1  177   7.354   7.837  21.878  0.2492  0.1065 -0.0350
50089OCT     C2  178   7.120   7.652  21.548 -0.1566  0.3545  0.1685
50090OCT     C1  179  19.168  16.056  23.080 -0.0348 -0.1295 -0.0127
50090OCT     C2  180  19.279  15.856  23.501  0.0281  0.2485  0.1463
50091OCT     C1  181   6.980  18.474  16.697 -0.0238 -0.0388  0.2154
50091OCT     C2  182   7.003  18.593  16.241 -0.0726  0.0077  0.1684
50092OCT     C1  183   9.054  22.089   4.485 -0.0961  0.0386 -0.1575
50092OCT     C2  184   9.174  22.487   4.301  0.3618  0.1181  0.1382
50093OCT     C1  185  11.475   3.797  12.096 -0.1283  0.2110 -0.0565
50093OCT     C2  186  11.728   3.690  12.496 -0.1474 -0.3255 -0.2367
50094OCT     C1  187  10.689   1.032   0.873 -0.0806 -0.0594  0.3310
50094OCT     C2  188  10.574   1.330   0.562 -0.1322  0.1677 -0.2698
50095OCT     C1  189  21.889   7.738  18.636  0.1107 -0.2610  0.1545
50095OCT     C2  190  22.308   7.625  18.800 -0.3568  0.2474  0.0192
50096OCT     C1  191  21.341   7.741   1.379 -0.1923  0.3513 -0.1294
50096OCT     C2  192  20.886   7.708   1.297 -0.0148 -0.4015  0.2377
50097OCT     C1  193   6.186  15.201  13.038 -0.1124 -0.1323 -0.3275
50097OCT     C2  194   5.895  14.896  12.832 -0.2389 -0.0826  0.0221
50098OCT     C1  195  16.120   1.647   5.746  0.1315  0.0599 -0.2845
50098OCT     C2  196  15.696   1.628   5.528 -0.2461 -0.2617 -0.2813
50099OCT     C1  197  16.723  19.403  16.439  0.4449 -0.0247 -0.0321
50099OCT     C2  198  16.851  19.175  16.790 -0.1054  0.1128  0.3860
50100OCT     C1  199  19.240   5.544  20.959 -0.0742  0.0676 -0.0630
50100OCT     C2  200  19.187   5.601  20.488  0.0567  0.6040  0.0072
50101OCT     C1  201   4.021   0.947   3.425 -0.0198  0.0068  0.0473
50101OCT     C2  202   3.932   1.298   3.716 -0.0365  0.1190  0.3655
50102OCT     C1  203   4.110  14.409   1.900 -0.2468  0.0166 -0.2677
50102OCT     C2  204   3.863  14.027   2.041  0.0050  0.3778 -0.1111
50103OCT     C1  205  15.657   7.275   0.528 -0.2397 -0.0865  0.0377
50103OCT     C2  206  15.772   7.605   0.177 -0.0148  0.1784 -0.1571
50104OCT     C1  207  22.181   0.993  14.532 -0.1961 -0.0853  0.0101
50104OCT     C2  208  22.065   0.814  14.116  0.1024  0.1031  0.0455
50105OCT     C1  209  19.690  15.237  15.781 -0.1284 -0.0628 -0.1409
50105OCT     C2  210  19.644  15.722  15.799 -0.1238 -0.0188 -0.0915
50106OCT     C1  211   5.157  21.898   4.994 -0.2813  0.0097  0.4224
50106OCT     C2  212   4.702  21.927   5.070 -0.0949 -0.0459 -0.0471
50107OCT     C1  213  17.888   6.055   0.771  0.0161  0.0325 -0.1720
50107OCT     C2  214  17.879   6.441   0.514  0.1388 -0.1032  0.1646
50108OCT     C1  215  17.699   7.855  18.971 -0.1798  0.3186 -0.0773
50108OCT     C2  216  17.637   8.305  18.822 -0.0612  0.1453 -0.1219
50109OCT     C1  217  10.397  12.898   9.406 -0.0269 -0.1068 -0.4218
50109OCT     C2  218  10.501  13.349   9.579  0.0072  0.0358 -0.1040
50110OCT     C1  219  12.524  11.546  14.356  0.0545 -0.1964  0.3751
50110OCT     C2  220  12.990  11.594  14.480 -0.0572  0.2569  0.2011
50111OCT     C1  221   1.518   3.288  14.657 -0.0370  0.0636 -0.0637
50111OCT     C2  222   1.247   2.888  14.515  0.2544 -0.5891  0.0442
50112OCT     C1  223  22.241  22.708  16.477  0.2705 -0.1005  0.2017
50112OCT     C2  224  22.257  22.757  15.989  0.3286 -0.0863  0.0083
50113OCT     C1  225  14.696   3.551   8.255 -0.6131  0.1748  0.0728
50113OCT     C2  226  14.989   3.685   7.866  0.1296 -0.0833  0.5078
50114OCT     C1  227   2.337  18.705  22.106  0.1890 -0.6711 -0.0621
50114OCT     C2  228   2.225  19.148  22.220 -0.2027  0.3944  0.0382
50115OCT     C1  229  11.100   3.901   1.529 -0.1349 -0.0699 -0.3846
50115OCT     C2  230  10.645   3.739   1.480  0.1943  0.1270 -0.0729
50116OCT     C1  231  18.133  13.004  23.460  0.1165 -0.0234 -0.3210
50116OCT     C2  232  18.629  12.917  23.464 -0.2848 -0.1569 -0.1631
50117OCT     C1  233  19.408   0.324   7.143 -0.0466  0.2809 -0.2009
50117OCT     C2  234  19.454   0.701   7.445 -0.1414 -0.2081 -0.5057
50118OCT     C1  235  22.862   2.241   7.329  0.1914 -0.0949 -0.1899
50118OCT     C2  236  23.166   1.929   7.437  0.3866 -0.3622 -0.1273
50119OCT     C1  237   8.564  14.796  19.754 -0.2918  0.2056 -0.0787
50119OCT     C2  238   8.893  14.946  20.000  0.2136 -0.0511 -0.1540
50120OCT     C1  239   2.203  17.129  10.716 -0.1044 -0.0538 -0.3800
50120OCT     C2  240   2.522  17.417  10.929 -0.3552  0.1416 -0.0265
50121OCT     C1  241   9.163   2.037   4.835  0.1386  0.0136 -0.3915
50121OCT     C2  242   8.862   1.691   4.740  0.0539 -0.0476 -0.1581
50122OCT     C1  243  10.597  15.859  16.743 -0.3790  0.0834 -0.1303
50122OCT     C2  244  10.671  15.767  17.208 -0.1272  0.1163  0.0910
50123OCT     C1  245  15.603   4.699   8.272 -0.3415  0.0247  0.0653
50123OCT     C2  246  15.315   4.438   7.998  0.2659 -0.0992 -0.0906
50124OCT     C1  247  17.017  21.482   4.184  0.0959 -0.2165  0.0219
50124OCT     C2  248  17.016  21.505   4.658 -0.0595 -0.1287 -0.2051
50125OCT     C1  249  21.061   6.293  18.194 -0.1520 -0.0510  0.1948
50125OCT     C2  250  20.786   6.417  17.795 -0.3638 -0.0402  0.1219
50126OCT     C1  251   2.204  12.750   3.644  0.0834 -0.0017  0.0429
50126OCT     C2  252   2.299  12.319   3.551 -0.1696  0.1456 -0.0503
50127OCT     C1  253   6.896   1.144  21.591  0.1906  0.2092  0.3855
50127OCT     C2  254   6.678   0.906  21.913 -0.2953  0.0739  0.0200
50128OCT     C1  255   4.270  15.106  11.325 -0.1309 -0.1488 -0.0492
50128OCT     C2  256   4.466  14.723  11.087 -0.2805  0.0311  0.2629
50129OCT     C1  257  16.633   1.589   5.000 -0.6065 -0.0743  0.0219
50129OCT     C2  258  16.971   1.866   4.854 -0.0188  0.1876  0.0659
50130OCT     C1  259   4.917  15.330  19.601  0.0384 -0.2866 -0.4972
50130OCT     C2  260   4.770  15.572  19.252 -0.1651 -0.0657 -0.0871
50131OCT     C1  261  12.332  15.940   6.578  0.0776  0.1417 -0.0205
50131OCT     C2  262  12.420  16.089   6.117  0.0252  0.1814  0.0562
50132OCT     C1  263  17.404   2.977   2.465  0.1076 -0.0827 -0.2003
50132OCT     C2  264  17.570   2.593   2.754  0.3870  0.4133 -0.2718
50133OCT     C1  265   2.618  19.490  19.779  0.1283  0.1531 -0.1624
50133OCT     C2  266   2.758  19.152  19.478  0.0705  0.0912  0.0723
50134OCT     C1  267   9.839  19.484  15.545 -0.0686  0.1190 -0.5308
50134OCT     C2  268   9.563  19.125  15.557 -0.1394  0.0423 -0.0521
50135OCT     C1  269  22.566   4.003  23.411  0.1152 -0.0791  0.2780
50135OCT     C2  270  22.585   4.061  22.937 -0.1585  0.4483 -0.3885
50136OCT     C1  271   8.664   1.260  10.646  0.1518  0.0374 -0.3125
50136OCT     C2  272   8.506   1.624  10.735  0.2869  0.2622 -0.0967
50137OCT     C1  273  14.418   4.655   7.976  0.2261  0.1286  0.0038
50137OCT     C2  274  14.794   4.523   8.273  0.0525  0.0699 -0.1142
50138OCT     C1  275   4.356   9.361  22.630  0.1465 -0.2596 -0.1493
50138OCT     C2  276   4.347   9.327  22.162  0.2315 -0.0590 -0.4091
50139OCT     C1  277  20.833   9.511  10.649  0.2953  0.1043 -0.0049
50139OCT     C2  278  20.953   9.693  10.217 -0.2211 -0.0380  0.0887
50140OCT     C1  279  22.540   4.595  12.534  0.0649 -0.1605  0.0559
50140OCT     C2  280  22.732   4.214  12.597 -0.0227  0.4745 -0.2631
50141OCT     C1  281   0.144   3.833   6.961 -0.0973  0.0511  0.0473
50141OCT     C2  282   0.277   3.412   7.129  0.2517 -0.1642 -0.0194
50142OCT     C1  283   2.239  18.319  23.222 -0.2251  0.0422  0.4460
50142OCT     C2  284   1.873  18.673  23.319  0.0719 -0.1289  0.1813
50143OCT     C1  285   9.731  20.490  14.148 -0.0884  0.1609  0.2051
50143OCT     C2  286   9.609  20.186  14.531  0.0085 -0.4687  0.0172
50144OCT     C1  287  18.228  15.858   4.077 -0.1540 -0.0824 -0.0705
50144OCT     C2  288  18.424  15.630   4.402  0.0263  0.4333 -0.2320
50145OCT     C1  289  20.423   3.014  15.886  0.5331 -0.2943  0.0138
50145OCT     C2  290  20.188   3.159  15.516 -0.1172  0.0881 -0.2459
50146OCT     C1  291  22.196  14.462   5.277 -0.2400 -0.1514 -0.0118
50146OCT     C2  292  21.989  14.791   5.505 -0.0103  0.1531  0.1743
50147OCT     C1  293  12.249   9.673   3.805  0.0070 -0.0153  0.2373
50147OCT     C2  294  11.852   9.865   3.963  0.2381  0.1307 -0.0937
50148OCT     C1  295   1.992  22.723   9.576  0.2998  0.0613 -0.1560
50148OCT     C2  296   1.546  22.844   9.445 -0.0714 -0.2697  0.0698
50149OCT     C1  297   4.535  14.131   3.744 -0.1584 -0.1709  0.1955
50149OCT     C2  298   4.689  14.478   4.030  0.3096 -0.1016  0.0784
50150OCT     C1  299   3.623  13.262   4.249 -0.0911  0.0399  0.0364
50150OCT     C2  300   3.898  13.285   3.833  0.2585 -0.0094  0.0263
50151OCT     C1  301   6.447   1.838   7.010 -0.1285  0.2040 -0.0751
50151OCT     C2  302   6.767   2.192   7.089  0.0594 -0.0671 -0.2443
50152OCT     C1  303  19.571   2.053  17.396 -0.0856 -0.2205  0.0210
50152OCT     C2  304  19.613   1.974  16.978 -0.1584 -0.2461  0.1957
50153OCT     C1  305  22.043   9.606   4.940 -0.0534 -0.3204  0.0232
50153OCT     C2  306  21.615   9.673   5.022 -0.3468 -0.1715 -0.2233
50154OCT     C1  307  10.733   6.357  21.500 -0.1374  0.6989  0.0055
50154OCT     C2  308  10.938   6.265  21.082  0.0745  0.3108  0.2480
50155OCT     C1  309  13.556   1.073  14.543 -0.1065 -0.0342  0.0262
50155OCT     C2  310  13.512   1.413  14.202 -0.0030 -0.0030  0.1765
50156OCT     C1  311   8.188  13.416  19.179  0.0071  0.2572 -0.1363
50156OCT     C2  312   8.292  13.725  19.539  0.3046  0.5185  0.2665
50157OCT     C1  313   1.691   5.488   6.553  0.2888  0.1764  0.1306
50157OCT     C2  314   2.198   5.641   6.479 -0.1498  0.3763 -0.1795
50158OCT     C1  315   1.982  10.733   0.986 -0.5345  0.1105  0.1497
50158OCT     C2  316   1.641  10.407   0.773 -0.1717  0.0092  0.0973
50159OCT     C1  317   9.905  20.927  21.790 -0.0758  0.2090 -0.6414
50159OCT     C2  318  10.352  20.971  21.862  0.2983  0.1615 -0.1134
50160OCT     C1  319   6.787  15.415  14.147  0.2107 -0.4575 -0.1348
50160OCT     C2  320   7.089  15.261  14.494  0.1096  0.1090  0.0859
50161OCT     C1  321  16.437  10.146  23.381 -0.1065  0.1507 -0.0421
50161OCT     C2  322  16.062  10.395  23.360 -0.2886 -0.0000  0.3099
50162OCT     C1  323   5.743  16.311   0.181  0.1987  0.3963 -0.3214
50162OCT     C2  324   5.813  16.335  23.488  0.1100  0.0035  0.2622
50163OCT     C1  325   1.453   3.821  22.818  0.1358  0.2812 -0.0816
50163OCT     C2  326   1.858   3.562  22.830  0.1488 -0.1489  0.0317
50164OCT     C1  327   3.322   6.542   0.061 -0.4996 -0.0752  0.1995
50164OCT     C2  328   3.812   6.580   0.154  0.0440  0.3955  0.0865
50165OCT     C1  329  14.646  12.132  19.777 -0.3453 -0.0073  0.1664
50165OCT     C2  330  14.809  12.569  19.974  0.1513  0.5073  0.0093
50166OCT     C1  331  18.079   8.001  15.063 -0.0366 -0.1262  0.0713
50166OCT     C2  332  18.386   8.013  14.691  0.1104  0.2670 -0.0651
50167OCT     C1  333   3.480   7.797  23.118 -0.1514  0.2137  0.3666
50167OCT     C2  334   3.846   7.769  22.778 -0.0662  0.1455  0.0595
50168OCT     C1  335  22.444  23.448  18.304  0.0025  0.3209  0.0605
50168OCT     C2  336  22.337   0.087  18.537  0.0035 -0.4434  0.2516
50169OCT     C1  337  22.000   0.202  15.437 -0.2116 -0.0083  0.0728
50169OCT     C2  338  22.171  23.585  15.662  0.0043  0.0378  0.7720
50170OCT     C1  339  11.494  21.243   4.887 -0.2049  0.2304  0.1213
50170OCT     C2  340  11.695  21.555   4.591 -0.1907 -0.1311 -0.2681
50171OCT     C1  341  21.832  14.207   9.385  0.1491  0.0969 -0.1298
50171OCT     C2  342  21.916  14.657   9.413 -0.4505  0.0298  0.0108
50172OCT     C1  343  11.764   6.190  21.080  0.0857  0.3457  0.0906
50172OCT     C2  344  12.076   6.381  21.352 -0.1101 -0.1833  0.1529
50173OCT     C1  345  10.037   9.389   6.757 -0.1622  0.3528 -0.2047
50173OCT     C2  346   9.809   9.617   6.432  0.3467  0.1098 -0.0231
50174OCT     C1  347  14.995   6.070   0.937 -0.1604 -0.1962  0.2623
50174OCT     C2  348  14.839   6.295   0.604 -0.1490  0.1058 -0.1205
50175OCT     C1  349   9.618  15.458  21.054  0.2261  0.4528  0.1204
50175OCT     C2  350   9.368  15.264  21.350 -0.1021  0.1803  0.0928
50176OCT     C1  351   8.759   7.369   8.846 -0.3543 -0.2680 -0.1333
50176OCT     C2  352   8.578   7.617   8.416 -0.2076 -0.3446  0.2972
50177OCT     C1  353  21.612  10.080   6.756  0.1105 -0.0850  0.1118
50177OCT     C2  354  21.192  10.087   7.008  0.1421 -0.0102 -0.0209
50178OCT     C1  355  14.081   8.330   5.780 -0.0371  0.0922  0.0567
50178OCT     C2  356  14.338   8.355   5.439 -0.0027 -0.0200  0.0414
50179OCT     C1  357   3.839   1.325   2.613 -0.0104  0.0965 -0.1835
50179OCT     C2  358   4.036   1.030   2.948  0.0880 -0.2862  0.1561
50180OCT     C1  359   4.168  19.428   8.809 -0.0148 -0.0243  0.0293
50180OCT     C2  360   3.862  19.039   8.763  0.1693  0.2115 -0.0610
50181OCT     C1  361   6.352  14.986   0.086  0.2636  0.4245  0.0461
50181OCT     C2  362   6.559  15.026   0.505  0.2569  0.2116 -0.4716
50182OCT     C1  363   8.951  17.917   6.711 -0.3078 -0.3107 -0.1484
50182OCT     C2  364   9.322  18.227   6.759  0.0504  0.2222  0.5822
50183OCT     C1  365   1.106   1.685  18.173  0.2891 -0.1990 -0.2423
50183OCT     C2  366   0.906   1.331  18.288  0.0499  0.0605  0.1871
50184OCT     C1  367   4.586   6.073  22.587 -0.0550 -0.1803 -0.1516
50184OCT     C2  368   4.846   6.001  22.958 -0.0824 -0.2785 -0.0908
50185OCT     C1  369  13.219  15.688  13.751 -0.0077  0.0368 -0.3828
50185OCT     C2  370  13.303  15.588  14.266  0.2789 -0.4003  0.0895
50186OCT     C1  371  23.675  23.346  15.445 -0.3659  0.1981 -0.1810
50186OCT     C2  372  23.484  23.109  15.092  0.2060  0.0975 -0.2114
50187OCT     C1  373   0.143  14.432   3.899  0.0310  0.1005 -0.2161
50187OCT     C2  374  23.505  14.701   3.945 -0.0851  0.0456 -0.0255
50188OCT     C1  375   0.788   0.467  17.428  0.2428 -0.1408 -0.2189
50188OCT     C2  376   1.152   0.729  17.564 -0.2962  0.1218  0.0466
50189OCT     C1  377   8.525  21.758  10.272 -0.1908  0.1677 -0.0069
50189OCT     C2  378   8.289  21.941   9.998 -0.0011 -0.1729 -0.4498
50190OCT     C1  379   4.897  11.588   1.511 -0.1622  0.0478  0.0040
50190OCT     C2  380   4.480  11.850   1.563 -0.2288 -0.1116  0.1172
50191OCT     C1  381  14.742   0.613  16.698 -0.1409 -0.1339 -0.0718
50191OCT     C2  382  14.308   0.536  16.560 -0.2089  0.0824 -0.1161
50192OCT     C1  383  11.669   8.643  12.817  0.2862  0.3330 -0.0129
50192OCT     C2  384  11.564   8.492  12.344  0.1971 -0.0057 -0.0450
50193OCT     C1  385   9.777  10.623  23.072 -0.3679  0.3337 -0.0003
50193OCT     C2  386  10.062  10.238  23.096 -0.0162  0.1926  0.1506
50194OCT     C1  387  20.319   3.066  23.363  0.0712  0.1512 -0.1521
50194OCT     C2  388  20.416   2.663  23.546 -0.0183 -0.0970  0.1861
50195OCT     C1  389  14.101  15.878  12.517 -0.2243 -0.0298  0.2156
50195OCT     C2  390  13.845  15.679  12.828 -0.1759  0.1086  0.1262
50196OCT     C1  391   1.946  12.390   4.518 -0.1216  0.2347  0.1210
50196OCT     C2  392   2.362  12.402   4.350  0.4506 -0.2003  0.0585
50197OCT     C1  393  21.632  10.093   7.233  0.1678  0.1773 -0.1635
50197OCT     C2  394  22.099   9.868   7.120  0.2915 -0.0469 -0.0824
50198OCT     C1  395   1.723  13.646   7.777 -0.0531 -0.1405 -0.1444
50198OCT     C2  396   2.029  13.967   7.918 -0.3275 -0.3010  0.1282
50199OCT     C1  397  21.889  18.378  16.440 -0.0125  0.1771  0.0257
50199OCT     C2  398  21.953  18.673  16.122 -0.1682 -0.0110 -0.0898
50200OCT     C1  399  13.020  21.210   5.190 -0.2508 -0.5196  0.1045
50200OCT     C2  400  12.892  21.140   4.780  0.0329  0.0110  0.3921
50201OCT     C1  401  13.729   6.478   5.604  0.0915  0.2104  0.2042
50201OCT     C2  402  14.124   6.257   5.527  0.1618 -0.0197  0.2108
50202OCT     C1  403   1.278   3.812  22.189  0.0382 -0.0303  0.1141
50202OCT     C2  404   1.161   4.138  22.518 -0.2701  0.0094 -0.1109
50203OCT     C1  405  20.709  12.771   5.919  0.1018 -0.0063 -0.2600
50203OCT     C2  406  20.370  13.029   5.785 -0.0612  0.1515 -0.0637
50204OCT     C1  407   0.348   7.806  18.454  0.2108 -0.0728 -0.0760
50204OCT     C2  408   0.726   8.035  18.375  0.1311  0.2251  0.3364
50205OCT     C1  409  13.840  18.037   8.907  0.0391  0.2131  0.3924
50205OCT     C2  410  13.618  18.068   9.345 -0.2091 -0.0411 -0.0157
50206OCT     C1  411  13.861  16.417   5.368 -0.1563 -0.0347  0.0912
50206OCT     C2  412  13.494  16.647   5.153  0.0158 -0.0834 -0.0532
50207OCT     C1  413   0.906   1.694  22.607  0.1964  0.2621  0.0728
50207OCT     C2  414   0.562   1.893  22.885  0.4398 -0.0528 -0.1995
50208OCT     C1  415   2.071  16.482   1.479  0.1667 -0.2632 -0.3287
50208OCT     C2  416   2.402  16.234   1.678  0.4268 -0.0405 -0.0813
50209OCT     C1  417   7.148  23.080  17.660 -0.0233  0.1724  0.2452
50209OCT     C2  418   6.707  23.169  17.467  0.0029  0.2090  0.1190
50210OCT     C1  419  22.339   0.393  10.448  0.0746 -0.1608  0.2893
50210OCT     C2  420  22.110   0.768  10.319  0.2466  0.1971  0.1468
50211OCT     C1  421  13.603  17.557  10.545 -0.0671  0.0333 -0.1106
50211OCT     C2  422  13.689  17.862  10.874  0.0890  0.1152  0.1879
50212OCT     C1  423  19.377   7.900   8.701  0.1801 -0.0203  0.3014
50212OCT     C2  424  19.020   8.200   8.804 -0.2424 -0.0247  0.3781
50213OCT     C1  425   4.654   3.183  14.479 -0.0171 -0.1777 -0.3844
50213OCT     C2  426   4.224   3.235  14.722 -0.0644 -0.3075 -0.2350
50214OCT     C1  427   5.810  11.386  14.803  0.2251 -0.0360 -0.2809
50214OCT     C2  428   5.976  11.732  14.555 -0.1680  0.1743  0.1111
50215OCT     C1  429  11.103   5.267   0.502  0.0741 -0.0269  0.3110
50215OCT     C2  430  11.239   4.928   0.760  0.1960  0.1366  0.1607
50216OCT     C1  431  14.289  16.979  16.626  0.0331  0.0531 -0.1767
50216OCT     C2  432  14.110  16.636  16.358  0.1287  0.2002 -0.0480
50217OCT     C1  433   3.795   6.426  21.548  0.2815  0.3382 -0.1672
50217OCT     C2  434   3.392   6.117  21.574 -0.1229 -0.3250 -0.2240
50218OCT     C1  435   3.586   7.568  12.849 -0.1340 -0.2554 -0.1621
50218OCT     C2  436   3.692   7.194  13.102  0.3663 -0.0972 -0.3173
50219OCT     C1  437   3.448  13.963  21.127  0.0742  0.0157  0.1844
50219OCT     C2  438   3.893  13.888  20.924 -0.0202 -0.3565  0.2013
50220OCT     C1  439   2.850  13.634   7.255 -0.0433  0.2858 -0.2803
50220OCT     C2  440   3.243  13.401   7.360 -0.0392 -0.2180  0.1617
50221OCT     C1  441  16.189   9.815  21.977 -0.1132  0.0391  0.0459
50221OCT     C2  442  16.531   9.750  21.676 -0.0700 -0.0043  0.2543
50222OCT     C1  443   8.018   0.408   4.549 -0.1291 -0.0693  0.0589
50222OCT     C2  444   7.719   0.731   4.393  0.3905 -0.2874 -0.1897
50223OCT     C1  445   2.873  16.352  16.424 -0.4177 -0.0235 -0.0442
50223OCT     C2  446   3.306  16.544  16.526  0.1761  0.2622  0.2679
50224OCT     C1  447   5.915  16.912  15.161  0.2140 -0.1003  0.0656
50224OCT     C2  448   5.884  16.509  15.446  0.1672  0.1575 -0.0291
50225OCT     C1  449  17.210   4.270   4.546 -0.0082 -0.3034 -0.0486
50225OCT     C2  450  17.110   3.824   4.490 -0.0885  0.1919 -0.0393
50226OCT     C1  451  20.494   6.020   9.529 -0.1971  0.0566 -0.3736
50226OCT     C2  452  20.743   6.370   9.767 -0.2481  0.2203  0.0534
50227OCT     C1  453   3.409   7.258   7.142  0.0461  0.1333 -0.0480
50227OCT     C2  454   2.969   7.388   7.021 -0.0935  0.0491 -0.2122
50228OCT     C1  455   9.516  19.383  19.041  0.0170 -0.0534  0.1375
50228OCT     C2  456   9.464  19.855  19.064 -0.0770  0.0161 -0.0329
50229OCT     C1  457  12.861  15.145   3.505 -0.0712  0.3654  0.1692
50229OCT     C2  458  12.376  15.093   3.505  0.0452  0.1089  0.2676
50230OCT     C1  459   1.231   9.925   2.363 -0.4415 -0.2721  0.0897
50230OCT     C2  460   1.267  10.122   1.967  0.0144 -0.1485  0.0317
50231OCT     C1  461   7.277  22.490  13.754  0.2471 -0.4470  0.1323
50231OCT     C2  462   7.089  22.195  14.027 -0.0399 -0.4140  0.0615
50232OCT     C1  463   4.926   4.707   4.807  0.1819  0.1443  0.0671
50232OCT     C2  464   4.652   4.715   5.215 -0.4533 -0.0392  0.5049
50233OCT     C1  465  14.268   7.017   4.646 -0.1694 -0.1965  0.1538
50233OCT     C2  466  13.914   7.239   4.959 -0.1314  0.0062  0.0836
50234OCT     C1  467   9.365   5.303  13.420 -0.2306 -0.2555  0.1085
50234OCT     C2  468   9.719   5.555  13.634 -0.0619 -0.3178  0.3679
50235OCT     C1  469   8.248  15.643  18.216  0.2316 -0.0992 -0.0123
50235OCT     C2  470   8.759  15.675  18.031  0.1446  0.1145  0.1143
50236OCT     C1  471   0.777  19.684  13.794  0.1438 -0.0732  0.0425
50236OCT     C2  472   0.386  19.605  13.477  0.1487 -0.1398 -0.3490
50237OCT     C1  473  19.520  13.604  11.236  0.1297  0.1120 -0.1570
50237OCT     C2  474  19.655  13.602  11.731  0.1438 -0.1202 -0.2008
50238OCT     C1  475  19.479   8.403   8.662 -0.1259  0.4719 -0.0526
50238OCT     C2  476  19.696   8.618   8.276 -0.2562 -0.1757 -0.0755
50239OCT     C1  477  20.568  19.463   9.449 -0.0218  0.0066  0.0817
50239OCT     C2  478  20.394  19.818   9.637 -0.1194 -0.1738  0.2503
50240OCT     C1  479   6.408   3.070  12.622 -0.3097 -0.2126  0.0929
50240OCT     C2  480   6.234   3.440  12.820  0.0128  0.3385  0.4828
50241OCT     C1  481  16.404   0.384  19.314  0.3091  0.0620  0.0533
50241OCT     C2  482  16.187   0.331  19.720  0.0838 -0.1971  0.0455
50242OCT     C1  483   5.671   9.359  10.906  0.0367  0.2233 -0.0455
50242OCT     C2  484   5.442   9.800  11.020  0.0275  0.3021  0.0091
50243OCT     C1  485  14.063  15.889   6.807  0.1850 -0.2307 -0.0994
50243OCT     C2  486  14.414  16.146   6.889 -0.0422  0.1050  0.1721
50244OCT     C1  487   5.684  14.866   3.979  0.3978  0.3022 -0.2570
50244OCT     C2  488   5.423  15.192   3.731 -0.0262  0.0865  0.1789
50245OCT     C1  489   8.962   6.452   2.836 -0.0670 -0.1141 -0.1165
50245OCT     C2  490   8.786   6.783   2.495 -0.0708  0.0195 -0.2208
50246OCT     C1  491   6.373   3.618   3.549  0.0401  0.4328  0.0942
50246OCT     C2  492   6.535   3.944   3.404 -0.2782 -0.0100  0.3120
50247OCT     C1  493   5.971   1.947  20.024  0.3565  0.0507  0.2489
50247OCT     C2  494   5.526   1.813  20.070  0.1914 -0.0825  0.1493
50248OCT     C1  495  12.960   9.252  10.649  0.1092 -0.1175 -0.1160
50248OCT     C2  496  12.622   9.293  10.954  0.1178  0.0559 -0.1507
50249OCT     C1  497   6.535   1.188  18.199 -0.1618 -0.2146  0.1636
50249OCT     C2  498   6.736   0.956  17.831 -0.3528 -0.1835  0.0164
50250OCT     C1  499  10.148   7.393   8.883  0.2314  0.0009  0.1362
50250OCT     C2  500   9.830   7.044   8.805  0.0490  0.0664  0.0570
50251OCT     C1  501   5.133  13.783   7.734  0.1416 -0.0568 -0.2745
50251OCT     C2  502   5.131  14.251   7.613  0.1407 -0.1485  0.0299
50252OCT     C1  503  20.334  19.008   4.124 -0.0243 -0.0379 -0.0013
50252OCT     C2  504  20.121  18.929   4.519 -0.3627  0.3851  0.3772
50253OCT     C1  505  14.355  14.152   4.722  0.0082 -0.1838  0.1666
50253OCT     C2  506  14.473  14.637   4.830 -0.1526 -0.2774 -0.0387
50254OCT     C1  507   1.709   0.408   2.089  0.3165 -0.2354  0.0176
50254OCT     C2  508   1.839   0.018   2.079 -0.3151 -0.1777  0.4345
50255OCT     C1  509   0.892   8.702   9.474  0.1588  0.1180  0.1699
50255OCT     C2  510   1.078   9.099   9.338  0.0366 -0.1878 -0.0736
50256OCT     C1  511   9.722  23.209  17.036  0.0627  0.1535 -0.4055
50256OCT     C2  512   9.900  23.377  16.663 -0.1269 -0.2913 -0.0950
50257OCT     C1  513  11.451  19.692   7.676 -0.1822  0.0068 -0.3265
50257OCT     C2  514  11.674  19.369   7.969  0.1897 -0.1284  0.1898
50258OCT     C1  515   2.776  12.070  11.760  0.0843  0.0684 -0.3182
50258OCT     C2  516   2.369  11.951  11.882 -0.0548 -0.1677  0.1101
50259OCT     C1  517   8.841  17.022  19.129 -0.2382  0.2045 -0.1432
50259OCT     C2  518   8.945  16.800  18.700 -0.3248 -0.1869 -0.0045
50260OCT     C1  519   1.146   3.077   6.150 -0.2103 -0.1901 -0.1604
50260OCT     C2  520   1.034   3.552   6.126 -0.1759  0.0161 -0.2813
50261OCT     C1  521   6.619  17.754   3.656 -0.0468 -0.0082  0.5668
50261OCT     C2  522   6.203  17.688   3.927 -0.1464 -0.1995  0.2398
50262OCT     C1  523  10.196  18.943  16.135 -0.0555 -0.1740 -0.1129
50262OCT     C2  524   9.774  18.826  16.112  0.0637  0.0440 -0.0387
50263OCT     C1  525  11.475  22.032  15.654 -0.3873  0.1412 -0.0650
50263OCT     C2  526  11.028  21.951  15.447  0.1060  0.0715  0.3747
50264OCT     C1  527   7.299  11.097  18.489 -0.0719 -0.0368 -0.0420
50264OCT     C2  528   7.441  11.342  18.102  0.6173 -0.1473 -0.1988
50265OCT     C1  529  14.037  12.584   1.739 -0.0048 -0.2221 -0.0385
50265OCT     C2  530  14.086  12.707   1.307 -0.1444  0.0689 -0.0532
50266OCT     C1  531  14.737  12.334   9.378 -0.0963  0.0405  0.4477
50266OCT     C2  532  14.580  11.926   9.388 -0.0039  0.3675 -0.2464
50267OCT     C1  533  21.415  19.552   9.640  0.0031 -0.1081 -0.2054
50267OCT     C2  534  21.194  19.825   9.967 -0.2047 -0.2717 -0.0193
50268OCT     C1  535  21.948  17.198  15.193 -0.0280 -0.0126  0.0821
50268OCT     C2  536  22.065  17.658  15.231 -0.2391 -0.2539 -0.0863
50269OCT     C1  537  23.216   4.214  15.816 -0.0774 -0.1802 -0.1476
50269OCT     C2  538  23.581   3.960  15.845 -0.1501 -0.1532 -0.1785
50270OCT     C1  539  21.512  21.251  13.577  0.4614 -0.1251  0.1638
50270OCT     C2  540  21.589  21.564  13.912 -0.0057 -0.2074 -0.3373
50271OCT     C1  541  17.436  17.414   2.905 -0.5406 -0.1742  0.0086
50271OCT     C2  542  17.021  17.592   3.015  0.1379  0.0714 -0.2064
50272OCT     C1  543  13.154  18.017   4.051  0.0248  0.3268  0.0441
50272OCT     C2  544  13.272  17.988   3.605  0.0137 -0.3666 -0.1707
50273OCT     C1  545  20.575  15.944  17.875 -0.0748  0.0134 -0.0421
50273OCT     C2  546  20.396  15.924  17.426 -0.5091  0.1795 -0.2517
50274OCT     C1  547  16.215  19.389  11.479 -0.0228 -0.2129  0.3119
50274OCT     C2  548  16.511  19.048  11.531 -0.2809  0.1094  0.0851
50275OCT     C1  549  12.336   4.350  21.882 -0.6691 -0.0601 -0.4139
50275OCT     C2  550  12.478   4.470  21.417 -0.0743  0.1096 -0.4592
50276OCT     C1  551  10.634  15.565  11.896 -0.0547  0.5732  0.2534
50276OCT     C2  552  10.186  15.507  12.066  0.4933  0.0752  0.1435
50277OCT     C1  553   4.953  17.866   8.715  0.0290 -0.0341 -0.0952
50277OCT     C2  554   4.671  18.004   8.435  0.0519 -0.1386 -0.0825
50278OCT     C1  555  15.140  18.596  16.707  0.0472 -0.3976 -0.3415
50278OCT     C2  556  15.324  18.227  17.022 -0.0913 -0.2861  0.4541
50279OCT     C1  557  14.356  20.661  16.291 -0.2942 -0.1401 -0.0964
50279OCT     C2  558  14.135  20.542  16.655 -0.2056  0.3832 -0.4236
50280OCT     C1  559  22.115   8.259  17.111  0.0536  0.1134 -0.1408
50280OCT     C2  560  21.810   8.283  17.510  0.1524 -0.2809 -0.3199
50281OCT     C1  561   1.540   7.670  13.976  0.1301  0.0530 -0.1448
50281OCT     C2  562   1.228   7.738  14.317  0.0044  0.0673 -0.0952
50282OCT     C1  563  18.919   8.434   0.044  0.1465 -0.3208 -0.3282
50282OCT     C2  564  18.657   8.165   0.362 -0.1158 -0.1260  0.0383
50283OCT     C1  565  10.376  11.361   2.463  0.0106 -0.0169  0.0341
50283OCT     C2  566  10.154  11.094   2.757 -0.0590  0.1495 -0.1808
50284OCT     C1  567   9.627  15.092  10.208 -0.0463 -0.0013 -0.1051
50284OCT     C2  568  10.003  14.937  10.350  0.0812  0.0943 -0.1697
50285OCT     C1  569  17.324  15.152  10.512 -0.1798  0.1178  0.0156
50285OCT     C2  570  16.990  15.236  10.842  0.1230 -0.0462 -0.0736
50286OCT     C1  571  14.030   9.442  19.629 -0.1390  0.1678 -0.0833
50286OCT     C2  572  13.804   9.243  19.303 -0.1079  0.0169  0.0157
50287OCT     C1  573   0.951  17.670  14.129  0.0595 -0.2610 -0.2573
50287OCT     C2  574   1.335  17.427  13.983 -0.0962 -0.0982 -0.0015
50288OCT     C1  575   5.248   8.778   5.095  0.0033  0.2797  0.1100
50288OCT     C2  576   4.957   8.449   5.063 -0.1846 -0.2189 -0.2567
50289OCT     C1  577   4.425  11.336   1.569 -0.0353 -0.0904 -0.2116
50289OCT     C2  578   4.505  11.059   1.904  0.0662  0.1233 -0.3277
50290OCT     C1  579  15.206   8.979  21.084 -0.1422  0.0237 -0.1545
50290OCT     C2  580  15.454   9.056  21.479 -0.1541 -0.0890 -0.2920
50291OCT     C1  581  20.007  20.870  14.256 -0.0369  0.1749 -0.2601
50291OCT     C2  582  20.097  21.000  13.780  0.1111  0.1645  0.1307
50292OCT     C1  583  20.079  15.941  11.935 -0.0329 -0.0076 -0.0187
50292OCT     C2  584  20.176  15.606  11.596 -0.1025 -0.0017  0.3712
50293OCT     C1  585  10.341  19.129  11.803 -0.0691 -0.0932  0.0713
50293OCT     C2  586  10.483  18.691  11.993 -0.1976 -0.0031 -0.1805
50294OCT     C1  587   3.313   0.147  14.713  0.1038 -0.0761 -0.0594
50294OCT     C2  588   3.344   0.413  14.328  0.1702 -0.1618  0.1622
50295OCT     C1  589  21.311  21.963  12.983  0.3828  0.0693 -0.1933
50295OCT     C2  590  21.369  21.737  13.384  0.2779 -0.1714  0.3509
50296OCT     C1  591   8.569  11.837   8.745  0.0392  0.1220  0.3272
50296OCT     C2  592   8.744  12.256   8.876  0.0244 -0.1437 -0.0174
50297OCT     C1  593  10.284  19.914  15.944  0.0327  0.0697 -0.0041
50297OCT     C2  594  10.620  19.573  15.905  0.1548  0.0092  0.0921
50298OCT     C1  595  20.386   9.966  15.874  0.3340  0.1388 -0.0740
50298OCT     C2  596  20.559  10.027  15.489 -0.1318  0.1718 -0.0128
50299OCT     C1  597  18.383   1.718  16.540  0.2439 -0.5065  0.3038
50299OCT     C2  598  18.328   2.072  16.185  0.2381 -0.2410  0.0717
50300OCT     C1  599  15.339  15.505  23.162  0.1599  0.3376 -0.2360
50300OCT     C2  600  15.763  15.446  23.022 -0.0692 -0.0238  0.2992
50301OCT     C1  601  21.900  11.579  22.991  0.0277  0.0301 -0.3209
50301OCT     C2  602  21.372  11.583  23.157  0.0571 -0.4439  0.1748
50302OCT     C1  603   3.716   6.996  21.633  0.1988 -0.4776 -0.0393
50302OCT     C2  604   3.769   7.302  21.302 -0.2110  0.1501 -0.1874
50303OCT     C1  605  12.566  11.598  12.081  0.3472  0.2295  0.1574
50303OCT     C2  606  12.807  11.407  11.756  0.1629  0.2311 -0.0293
50304OCT     C1  607  19.024   3.868  23.185 -0.0120 -0.1778  0.1455
50304OCT     C2  608  18.942   3.429  23.148  0.1861  0.1876  0.2651
50305OCT     C1  609   6.148  10.230  22.884 -0.4209 -0.1656  0.1122
50305OCT     C2  610   6.370  10.433  23.245 -0.2885 -0.2482  0.0521
50306OCT     C1  611   6.157   9.171  11.365 -0.1517 -0.0507 -0.2056
50306OCT     C2  612   5.817   9.447  11.370 -0.3987 -0.3063  0.0693
50307OCT     C1  613   5.408   2.913   8.222  0.0400  0.0223  0.4224
50307OCT     C2  614   5.036   2.927   8.502 -0.3025 -0.1330 -0.0625
50308OCT     C1  615  15.275  12.140   4.659  0.0500 -0.1111  0.1870
50308OCT     C2  616  15.540  12.164   4.227 -0.2227  0.0068 -0.1292
50309OCT     C1  617  19.514  18.321  11.004  0.2403  0.0081  0.1707
50309OCT     C2  618  19.243  18.137  11.385 -0.3267  0.0138  0.0265
50310OCT     C1  619   1.262  15.063   3.914 -0.3912 -0.1153 -0.2376
50310OCT     C2  620   0.816  15.026   3.903 -0.1290 -0.1813 -0.1010
50311OCT     C1  621  21.617   5.156   6.073  0.0929  0.2965 -0.0713
50311OCT     C2  622  21.695   5.483   5.719  0.3168  0.4508 -0.0049
50312OCT     C1  623   6.320  21.114   5.059  0.1980  0.1226  0.0659
50312OCT     C2  624   6.516  21.387   4.702 -0.1228  0.2377 -0.4028
50313OCT     C1  625   0.072   6.734   9.194 -0.1472 -0.2731  0.3858
50313OCT     C2  626   0.022   7.009   8.810  0.0263  0.1689  0.1254
50314OCT     C1  627  18.829   5.570  15.855 -0.0488 -0.0876  0.0654
50314OCT     C2  628  18.938   5.664  15.378 -0.1166 -0.0865 -0.1566
50315OCT     C1  629  15.937   0.618  10.238  0.0267  0.2369 -0.0183
50315OCT     C2  630  15.741   0.995  10.232 -0.1845 -0.3640  0.1126
50316OCT     C1  631  12.776  19.881   7.532  0.1364  0.0021  0.2837
50316OCT     C2  632  12.977  20.264   7.695  0.1322 -0.1419 -0.0114
50317OCT     C1  633   6.339  23.484   6.994 -0.0132  0.1696  0.0093
50317OCT     C2  634   6.090  23.100   7.070 -0.1258 -0.1094 -0.0239
50318OCT     C1  635   9.337   0.525  12.246  0.2970  0.0713  0.1604
50318OCT     C2  636   8.932   0.409  12.038  0.2802  0.2919  0.0167
50319OCT     C1  637  19.547  17.139   6.868  0.1902  0.0517  0.2882
50319OCT     C2  638  19.909  17.349   7.085 -0.2843  0.3454 -0.1098
50320OCT     C1  639  16.188  12.509  18.875 -0.0402  0.1001 -0.0520
50320OCT     C2  640  16.534  12.868  18.988 -0.0518 -0.0096 -0.1017
50321OCT     C1  641   9.313  18.813  10.074  0.1309 -0.0482  0.1018
50321OCT     C2  642   9.523  18.875   9.668  0.0162 -0.1657  0.0872
50322OCT     C1  643  15.758  11.581  20.048 -0.1267 -0.0764  0.1646
50322OCT     C2  644  15.923  11.276  19.681 -0.0633  0.2616 -0.0935
50323OCT     C1  645  12.572   3.958  21.628 -0.0443 -0.0398  0.2565
50323OCT     C2  646  12.324   3.843  21.952  0.1664 -0.3208 -0.0774
50324OCT     C1  647  15.972  22.505   0.869 -0.1695  0.3431  0.1669
50324OCT     C2  648  15.645  22.199   0.698  0.1598  0.3558 -0.0369
50325OCT     C1  649  13.432  19.493  11.428  0.2024 -0.1308 -0.1014
50325OCT     C2  650  13.527  19.014  11.570 -0.0752 -0.5405 -0.1452
50326OCT     C1  651  10.255   5.897  14.951 -0.3974  0.1025 -0.1122
50326OCT     C2  652  10.695   5.967  15.114  0.0903 -0.3111  0.0556
50327OCT     C1  653  14.180  12.498   4.149 -0.1864  0.2282 -0.3815
50327OCT     C2  654  14.301  12.292   4.518 -0.6801  0.0688 -0.5137
50328OCT     C1  655  19.350  15.022  15.542  0.2078 -0.2089 -0.2015
50328OCT     C2  656  19.574  14.683  15.751  0.0169  0.3248  0.3318
50329OCT     C1  657   0.254  15.829   7.034 -0.0014 -0.5704  0.3995
50329OCT     C2  658   0.464  16.200   7.222 -0.1953  0.2464  0.0215
50330OCT     C1  659   9.938   7.081   0.181 -0.0698  0.3575  0.1813
50330OCT     C2  660   9.559   6.819   0.047 -0.1551 -0.1561 -0.1357
50331OCT     C1  661   9.239  18.114  20.745 -0.0968 -0.0166  0.0566
50331OCT     C2  662   9.640  18.056  20.498 -0.0549 -0.1866 -0.1010
50332OCT     C1  663   6.030   3.188  22.086  0.1325 -0.0748  0.3371
50332OCT     C2  664   6.253   2.865  21.807 -0.0063  0.2618 -0.2198
50333OCT     C1  665  11.382   5.257   9.015 -0.2826 -0.1070  0.0268
50333OCT     C2  666  11.432   5.657   8.808 -0.3374 -0.1591 -0.1748
50334OCT     C1  667   6.754  15.603   8.914 -0.0212 -0.0241 -0.3468
50334OCT     C2  668   6.538  15.560   9.297  0.0367  0.3118 -0.2879
50335OCT     C1  669   3.575  19.328  18.975  0.0595  0.1520 -0.0689
50335OCT     C2  670   3.860  18.938  19.076  0.0499  0.1530 -0.0208
50336OCT     C1  671  20.359  12.108   1.401 -0.1675 -0.2988  0.2387
50336OCT     C2  672  20.652  12.450   1.227 -0.0473  0.4715 -0.0504
50337OCT     C1  673   9.886  21.787  17.061 -0.1316  0.3283 -0.1239
50337OCT     C2  674   9.659  21.841  17.433  0.0395 -0.1062 -0.1734
50338OCT     C1  675   6.628   2.021  15.039  0.0528  0.1753  0.0951
50338OCT     C2  676   6.628   1.567  14.903  0.0959 -0.0376 -0.1549
50339OCT     C1  677  17.999  21.562  11.217 -0.3368  0.1651  0.2653
50339OCT     C2  678  17.676  21.780  10.942 -0.1307 -0.3482  0.0774
50340OCT     C1  679  19.674  17.571   1.648  0.1287 -0.2833  0.0400
50340OCT     C2  680  20.114  17.621   1.784 -0.0340  0.0456 -0.1089
50341OCT     C1  681  21.775  21.547   1.460 -0.0088 -0.1808 -0.2858
50341OCT     C2  682  21.699  21.307   1.882 -0.0483  0.1972  0.1073
50342OCT     C1  683   0.411   0.197  14.558 -0.1156  0.1330 -0.0482
50342OCT     C2  684   0.722  23.627  14.632 -0.0022  0.3864  0.0112
50343OCT     C1  685  12.472  10.099   2.677  0.2732  0.1396  0.0290
50343OCT     C2  686  12.228   9.696   2.802  0.1658  0.1959  0.1233
50344OCT     C1  687  20.301  16.432   5.424 -0.1495  0.4267 -0.4879
50344OCT     C2  688  20.414  16.851   5.705 -0.1872  0.1658 -0.1996
50345OCT     C1  689  13.883  14.925   9.200  0.1827 -0.1742 -0.2405
50345OCT     C2  690  13.849  14.636   8.803  0.3966  0.1500 -0.0199
50346OCT     C1  691  10.847  10.773   3.936 -0.3282  0.1037 -0.1035
50346OCT     C2  692  11.307  10.708   4.023 -0.1141  0.1387 -0.0477
50347OCT     C1  693  21.840  11.509  20.463 -0.0436  0.1022  0.0259
50347OCT     C2  694  21.544  11.157  20.420 -0.2653  0.1743  0.2981
50348OCT     C1  695  18.834  20.641   3.150  0.0686 -0.0243  0.1512
50348OCT     C2  696  19.042  20.499   2.692  0.3282  0.0473  0.1706
50349OCT     C1  697   2.914  17.126  17.408  0.3247 -0.0777 -0.1684
50349OCT     C2  698   3.275  16.860  17.477 -0.3642  0.2044  0.0477
50350OCT     C1  699   0.014  21.526   1.272  0.3275 -0.2181 -0.2484
50350OCT     C2  700   0.257  21.859   1.130 -0.2163 -0.1338  0.5219
50351OCT     C1  701  21.362   1.428   7.200  0.1358 -0.2496 -0.2820
50351OCT     C2  702  21.335   1.028   7.057  0.3219  0.3621  0.2426
50352OCT     C1  703   3.561   6.744   5.029  0.3883  0.5487 -0.0144
50352OCT     C2  704   3.426   6.968   4.631  0.1296  0.1387 -0.1460
50353OCT     C1  705  11.575   5.841  13.869  0.1739  0.4201  0.2770
50353OCT     C2  706  11.333   6.193  13.794  0.1286  0.0896  0.0335
50354OCT     C1  707  16.932   3.099  13.859 -0.2052 -0.3672 -0.0599
50354OCT     C2  708  17.254   2.819  13.708  0.2882 -0.0568  0.0061
50355OCT     C1  709  15.005   3.954   0.460 -0.2205  0.2040 -0.2184
50355OCT     C2  710  14.658   4.258   0.240  0.2184  0.0984 -0.3032
50356OCT     C1  711   8.824   6.258  15.164  0.0709 -0.1774  0.0104
50356OCT     C2  712   8.606   6.078  15.551  0.1378  0.1860 -0.0195
50357OCT     C1  713  14.765  22.916  22.832  0.2801 -0.1779 -0.0687
50357OCT     C2  714  14.894  23.023  22.397 -0.1459 -0.1085  0.3110
50358OCT     C1  715   0.591  23.445   4.180 -0.1590 -0.1477 -0.2497
50358OCT     C2  716   0.993  23.610   4.439  0.1064  0.0547 -0.0859
50359OCT     C1  717  23.337  19.383  13.126 -0.0360 -0.1608 -0.2359
50359OCT     C2  718  23.607  19.780  13.123  0.0617  0.0838 -0.2619
50360OCT     C1  719   1.106   6.572   5.444  0.1773  0.1248  0.1650
50360OCT     C2  720   1.454   6.816   5.233 -0.1398 -0.0011 -0.1133
50361OCT     C1  721  18.613  17.600  23.388  0.0307 -0.2002 -0.3371
50361OCT     C2  722  18.398  17.743   0.029  0.0108 -0.1572 -0.1000
50362OCT     C1  723   9.025   8.165  14.345 -0.0307 -0.1503  0.0100
50362OCT     C2  724   9.471   8.043  14.250 -0.0207  0.0728 -0.1276
50363OCT     C1  725  13.424   4.166  14.529 -0.1829  0.0569 -0.1368
50363OCT     C2  726  13.188   4.324  14.201 -0.1227  0.0317  0.5030
50364OCT     C1  727   8.933  14.694  21.009 -0.1782  0.1366 -0.0903
50364OCT     C2  728   9.374  14.747  21.197 -0.6388 -0.1849 -0.0268
50365OCT     C1  729  12.256  17.796   0.802  0.1355 -0.4503  0.3432
50365OCT     C2  730  12.288  18.122   1.122  0.0112  0.3022  0.0896
50366OCT     C1  731  19.410  12.913  22.625 -0.1113  0.0764  0.0863
50366OCT     C2  732  19.540  12.939  23.049 -0.4536  0.4254  0.0721
50367OCT     C1  733   9.660   0.923   0.200 -0.1706  0.0847 -0.0329
50367OCT     C2  734   9.797   1.179  23.581 -0.0897 -0.1551 -0.0438
50368OCT     C1  735  13.947   5.350  18.032  0.0868  0.0093 -0.0776
50368OCT     C2  736  13.545   5.345  18.292  0.0199  0.0576 -0.0100
50369OCT     C1  737  13.436   0.478  22.162  0.3243 -0.2936 -0.1834
50369OCT     C2  738  13.566   0.685  21.700 -0.1465  0.1360 -0.1119
50370OCT     C1  739  22.857   0.137   7.973 -0.5948  0.3542  0.0311
50370OCT     C2  740  22.608   0.014   8.333 -0.0569  0.2596 -0.1913
50371OCT     C1  741  16.763   0.318   4.519 -0.4040 -0.3410  0.0969
50371OCT     C2  742  17.028   0.193   4.116 -0.1795 -0.0672  0.0361
50372OCT     C1  743  12.230   4.315  20.799  0.0953 -0.2198 -0.0899
50372OCT     C2  744  12.156   4.832  20.767 -0.1858 -0.1319  0.0033
50373OCT     C1  745   7.226  16.764   2.813  0.0017  0.1253  0.2264
50373OCT     C2  746   6.916  17.105   2.627 -0.1055  0.0019 -0.0928
50374OCT     C1  747  17.015  17.875   8.619  0.4826 -0.1280  0.0118
50374OCT     C2  748  16.547  17.961   8.740 -0.2229  0.2533  0.3128
50375OCT     C1  749  22.392  21.308  10.636  0.0441  0.0097 -0.3299
50375OCT     C2  750  22.409  21.822  10.519  0.1856 -0.1219  0.0940
50376OCT     C1  751  20.836  16.770   9.255  0.3318 -0.0729  0.1291
50376OCT     C2  752  20.439  16.866   9.491  0.1117  0.2289 -0.0683
50377OCT     C1  753  18.263   5.126   8.979 -0.1733 -0.2172 -0.4020
50377OCT     C2  754  18.216   4.773   9.264  0.5277 -0.0408  0.0470
50378OCT     C1  755   5.912  21.725  20.306 -0.1321  0.2650 -0.0880
50378OCT     C2  756   5.844  21.971  19.922  0.2780 -0.1100  0.1472
50379OCT     C1  757   8.599  14.305   2.128 -0.0976  0.0869 -0.0524
50379OCT     C2  758   9.019  14.518   1.902  0.1558 -0.0212 -0.1758
50380OCT     C1  759  19.126   8.315  11.377 -0.1644  0.4433  0.1678
50380OCT     C2  760  19.250   8.322  10.924  0.0167 -0.3904 -0.0391
50381OCT     C1  761  20.433   4.845  13.843  0.0359  0.0638 -0.1086
50381OCT     C2  762  20.360   5.039  13.357 -0.0229  0.0269 -0.2898
50382OCT     C1  763   1.135  18.947  16.173 -0.0396  0.3469  0.0159
50382OCT     C2  764   1.291  19.192  15.764 -0.0666 -0.1249  0.0314
50383OCT     C1  765  22.599   0.002   1.785 -0.2164  0.1793  0.1963
50383OCT     C2  766  22.929   0.391   1.731 -0.3385  0.2695 -0.4006
50384OCT     C1  767   8.258  22.542  19.870 -0.1331 -0.2109 -0.1370
50384OCT     C2  768   8.671  22.776  19.973  0.0878  0.1483  0.0923
50385OCT     C1  769   1.095  10.688  19.433 -0.0236 -0.1520 -0.1397
50385OCT     C2  770   1.356  10.487  19.091  0.3052 -0.2206 -0.1367
50386OCT     C1  771   0.013   9.302  19.153  0.0514 -0.2580 -0.0197
50386OCT     C2  772  23.350   9.569  19.013  0.2196 -0.2275 -0.1746
50387OCT     C1  773  19.807  22.706   1.310  0.0655 -0.1136 -0.0780
50387OCT     C2  774  19.863  22.405   1.651  0.0528  0.0370  0.0756
50388OCT     C1  775  16.229   6.150  22.604  0.1285  0.1701 -0.1591
50388OCT     C2  776  15.952   6.417  22.916 -0.0410  0.1559  0.2790
50389OCT     C1  777   3.018  13.469   2.928 -0.0435 -0.0284 -0.0504
50389OCT     C2  778   3.401  13.452   3.207  0.0030 -0.1527  0.0053
50390OCT     C1  779   1.051  10.138   0.995 -0.1918 -0.1406  0.2298
50390OCT     C2  780   1.094  10.514   0.766  0.2307  0.2177  0.0119
50391OCT     C1  781  11.420   0.160   6.342 -0.1419 -0.1101  0.3957
50391OCT     C2  782  11.641  23.610   6.067 -0.0163 -0.1352  0.0041
50392OCT     C1  783  12.657  19.307  16.011 -0.2287 -0.0188  0.4590
50392OCT     C2  784  12.222  19.216  16.213  0.0353  0.3340  0.2041
50393OCT     C1  785  15.991  22.345  13.670  0.1170 -0.1524  0.0568
50393OCT     C2  786  16.008  22.698  13.382  0.0561  0.3200 -0.0612
50394OCT     C1  787  22.664   0.468   2.762  0.4348  0.2875  0.2388
50394OCT     C2  788  22.332   0.610   2.440 -0.0037 -0.0511 -0.0018
50395OCT     C1  789  20.305   9.657  14.300 -0.1621 -0.2441  0.0887
50395OCT     C2  790  20.094   9.217  14.303 -0.1433  0.0528  0.1353
50396OCT     C1  791   1.595  19.218   7.333 -0.3115  0.1390  0.0197
50396OCT     C2  792   1.386  19.095   6.987 -0.1426 -0.0091 -0.2353
50397OCT     C1  793  18.826   6.513  11.183  0.1731  0.3576 -0.0707
50397OCT     C2  794  19.126   6.584  11.573  0.1295 -0.4109  0.2567
50398OCT     C1  795   9.381   7.729  18.541  0.2643 -0.2696 -0.0561
50398OCT     C2  796   9.796   7.570  18.507  0.1683 -0.0121  0.0181
50399OCT     C1  797   7.693  13.526  12.426 -0.0510  0.4708 -0.0062
50399OCT     C2  798   7.345  13.288  12.210  0.2167  0.0113  0.0617
50400OCT     C1  799  19.729   2.754  22.497 -0.2275 -0.1980 -0.1830
50400OCT     C2  800  19.821   2.897  22.033  0.0273 -0.1826  0.3123
50401OCT     C1  801  10.070   8.244  10.613  0.1027 -0.1285  0.1068
50401OCT     C2  802   9.620   8.181  10.480 -0.1078 -0.1393  0.0660
50402OCT     C1  803  21.068   7.903  21.703 -0.0645  0.1011 -0.2482
50402OCT     C2  804  21.176   8.284  21.985 -0.1263  0.0178  0.1410
50403OCT     C1  805  14.888   5.370  11.239 -0.1076 -0.0663 -0.3170
50403OCT     C2  806  14.515   5.113  11.168  0.4134 -0.0779  0.0667
50404OCT     C1  807  23.608  17.685  17.856  0.0413  0.0790  0.1804
50404OCT     C2  808  23.317  17.766  17.513 -0.0810 -0.0074  0.0157
50405OCT     C1  809  14.165   1.316  21.146  0.0819 -0.1191  0.2107
50405OCT     C2  810  14.112   1.345  20.682  0.1159 -0.2300 -0.0654
50406OCT     C1  811   1.584   2.315   0.267  0.1003 -0.0125 -0.1613
50406OCT     C2  812   1.276   2.306  23.688 -0.3568  0.0735 -0.0753
50407OCT     C1  813  15.460   7.317  22.691  0.4086  0.1999  0.1162
50407OCT     C2  814  15.084   7.201  22.369  0.0158  0.1203  0.0608
50408OCT     C1  815  23.482  18.713  15.003 -0.1612  0.3981 -0.0304
50408OCT     C2  816   0.044  18.410  15.073 -0.3292  0.2110  0.3373
50409OCT     C1  817   7.697   6.298  21.670  0.2744 -0.2268  0.3520
50409OCT     C2  818   7.503   5.883  21.630 -0.2108  0.0097  0.1581
50410OCT     C1  819   6.097  17.938  12.235 -0.0303  0.0863  0.0474
50410OCT     C2  820   6.535  18.205  12.346 -0.0729 -0.0829 -0.2293
50411OCT     C1  821  13.144  13.049   8.528 -0.2625  0.2057  0.1969
50411OCT     C2  822  13.023  13.151   9.002 -0.0155  0.0456  0.2848
50412OCT     C1  823   8.863   1.711   6.030  0.4065 -0.0364 -0.1163
50412OCT     C2  824   9.098   1.916   5.629  0.2248 -0.1136  0.0859
50413OCT     C1  825  20.545  17.355  12.172 -0.2868  0.0941 -0.0804
50413OCT     C2  826  20.927  17.117  12.228  0.1895  0.1266  0.2308
50414OCT     C1  827   2.441  11.674  22.560 -0.1202  0.1971  0.1046
50414OCT     C2  828   2.253  12.036  22.323  0.2483  0.2909  0.2633
50415OCT     C1  829   8.689  15.003   9.061 -0.4772 -0.1068 -0.4892
50415OCT     C2  830   9.026  14.863   9.384 -0.0199 -0.0149  0.0296
50416OCT     C1  831  20.629   7.069  12.866 -0.1285  0.0029  0.2260
50416OCT     C2  832  21.032   6.774  12.865 -0.0214  0.1550 -0.3242
50417OCT     C1  833  13.699  23.365   8.302 -0.0664  0.1136 -0.0197
50417OCT     C2  834  13.751  23.582   8.707 -0.4448 -0.1862 -0.1816
50418OCT     C1  835  10.963  14.549   3.027  0.1260  0.0544 -0.0468
50418OCT     C2  836  10.483  14.604   2.946 -0.0294 -0.1651 -0.0741
50419OCT     C1  837  15.609  12.651   4.014  0.0349  0.0981  0.1800
50419OCT     C2  838  15.237  12.455   3.871 -0.1049  0.1705  0.1380
50420OCT     C1  839  11.080  15.840   3.832  0.1983 -0.1798  0.2699
50420OCT     C2  840  10.827  16.065   3.557  0.0692  0.0468 -0.3318
50421OCT     C1  841   3.581  20.191   2.296 -0.2093  0.1143 -0.1474
50421OCT     C2  842   3.297  20.132   1.902 -0.1190 -0.1056 -0.0043
50422OCT     C1  843  20.511   5.602  18.522  0.3497  0.1453 -0.2893
50422OCT     C2  844  20.455   5.153  18.358 -0.0880 -0.0249  0.1429
50423OCT     C1  845  23.293   3.758   2.809 -0.0918 -0.0176  0.0468
50423OCT     C2  846  23.160   4.148   2.634  0.5410  0.2708  0.1933
50424OCT     C1  847  13.960   2.344  18.148 -0.1520  0.2266 -0.0594
50424OCT     C2  848  14.111   2.158  18.611  0.1014 -0.0863  0.1273
50425OCT     C1  849  15.844   5.283  17.477  0.2618 -0.0933 -0.1036
50425OCT     C2  850  15.545   5.481  17.174 -0.2426  0.0009  0.0411
50426OCT     C1  851   8.064  22.987  12.607  0.2127  0.1456  0.1099
50426OCT     C2  852   8.521  22.910  12.581  0.1578  0.1462 -0.5525
50427OCT     C1  853   0.640   9.389  22.516 -0.1178  0.0737  0.1875
50427OCT     C2  854   0.820   9.400  22.076  0.2852 -0.0591  0.1043
50428OCT     C1  855   2.331   0.384  16.079  0.2313 -0.0876  0.0868
50428OCT     C2  856   2.365   0.775  15.771 -0.5382 -0.0315  0.2054
50429OCT     C1  857  16.475   3.585   5.478 -0.0919  0.0423 -0.1992
50429OCT     C2  858  16.530   3.138   5.395 -0.1091  0.0940 -0.2945
50430OCT     C1  859   0.374  17.200  13.085 -0.0877  0.0940  0.0436
50430OCT     C2  860   0.353  16.776  13.289  0.2393 -0.0594 -0.1826
50431OCT     C1  861  21.709   7.294  15.660  0.2436 -0.1788 -0.3414
50431OCT     C2  862  22.089   7.028  15.851  0.1854  0.0980  0.2440
50432OCT     C1  863   0.804   6.391  18.419 -0.1931  0.2398 -0.1871
50432OCT     C2  864   1.081   6.640  18.165  0.1490 -0.3067  0.0777
50433OCT     C1  865   9.521   0.819   1.741  0.1506  0.4607  0.1355
50433OCT     C2  866   9.165   0.561   1.946  0.1669 -0.1370  0.2845
50434OCT     C1  867   5.888  17.026  16.503  0.2083 -0.4671  0.2693
50434OCT     C2  868   6.323  16.852  16.298 -0.0827 -0.0464 -0.0401
50435OCT     C1  869  21.382  21.566   5.031 -0.0261  0.2694 -0.2948
50435OCT     C2  870  21.640  21.331   4.665 -0.1533  0.3803 -0.0195
50436OCT     C1  871   4.723  20.985  11.426  0.1032  0.1356  0.0235
50436OCT     C2  872   4.520  20.584  11.440 -0.1053 -0.2059 -0.1319
50437OCT     C1  873  16.257  12.666   8.992  0.1174  0.1364  0.0808
50437OCT     C2  874  16.237  12.547   9.500  0.3572 -0.1558 -0.0626
50438OCT     C1  875   9.404  18.704   0.825  0.2269  0.4173 -0.0740
50438OCT     C2  876   9.351  19.129   0.712  0.2253  0.1659 -0.1787
50439OCT     C1  877   7.488   3.728  20.876 -0.3113  0.0189  0.0651
50439OCT     C2  878   7.407   4.191  20.803 -0.0504 -0.1570  0.3295
50440OCT     C1  879   7.125   0.451  22.711  0.1685  0.1992 -0.0088
50440OCT     C2  880   7.251   0.127  23.027  0.1838 -0.0424  0.1368
50441OCT     C1  881  14.425  11.512   9.108  0.0895  0.1606  0.4023
50441OCT     C2  882  14.124  11.788   9.155 -0.1140 -0.0411 -0.1760
50442OCT     C1  883   3.661  13.701   8.918 -0.1068  0.1302 -0.3576
50442OCT     C2  884   3.880  13.932   9.266  0.1380 -0.0654  0.0780
50443OCT     C1  885   6.897  15.649   4.855 -0.0480  0.3056  0.1757
50443OCT     C2  886   7.341  15.732   4.791 -0.1066  0.2639  0.1263
50444OCT     C1  887   2.399   3.530  16.716 -0.0165  0.0965  0.0353
50444OCT     C2  888   2.082   3.850  16.518  0.0244  0.1164  0.0449
50445OCT     C1  889  11.130  22.430   1.150 -0.0530 -0.0085  0.1303
50445OCT     C2  890  10.940  22.546   0.734  0.3568  0.2060 -0.0866
50446OCT     C1  891   8.527  15.690   7.583  0.1378 -0.1816 -0.0500
50446OCT     C2  892   8.985  15.813   7.602  0.1256  0.2389 -0.1376
50447OCT     C1  893  23.124   7.205  20.391 -0.1490  0.2074  0.0944
50447OCT     C2  894  23.341   6.821  20.504  0.4662  0.1757  0.2893
50448OCT     C1  895   8.407  21.996  18.219  0.3157 -0.2043  0.3920
50448OCT     C2  896   8.087  21.719  18.400  0.3406 -0.1098  0.1367
50449OCT     C1  897   7.476   3.735  18.877 -0.1747 -0.2172 -0.2563
50449OCT     C2  898   7.314   4.039  18.535  0.1884 -0.0174  0.2541
50450OCT     C1  899  14.788   8.157   1.232  0.1920  0.0155 -0.1174
50450OCT     C2  900  15.033   7.744   1.313  0.3391  0.0114  0.0585
50451OCT     C1  901   2.138  23.524   3.367  0.2176  0.2375  0.3238
50451OCT     C2  902   2.041   0.261   3.221  0.0711  0.3361  0.4613
50452OCT     C1  903  21.696   7.544   3.531 -0.0564  0.0013 -0.1235
50452OCT     C2  904  21.359   7.644   3.181 -0.0835 -0.1411 -0.0256
50453OCT     C1  905   9.459  21.264  12.068 -0.1961 -0.3656  0.0181
50453OCT     C2  906   9.645  21.306  11.689  0.1650  0.4939 -0.3528
50454OCT     C1  907   4.276   3.154   2.439  0.0772  0.2896 -0.1113
50454OCT     C2  908   4.093   3.295   2.843  0.0073 -0.1502 -0.0854
50455OCT     C1  909   6.400  17.284  20.996  0.1960 -0.3555 -0.1498
50455OCT     C2  910   6.100  17.586  20.763 -0.2488  0.3046 -0.1727
50456OCT     C1  911  17.172   2.046  15.845 -0.0235  0.0055  0.0010
50456OCT     C2  912  17.065   2.216  15.474 -0.0210  0.0168 -0.1625
50457OCT     C1  913   6.205   9.424  17.923  0.0543 -0.0464  0.1671
50457OCT     C2  914   6.110   9.017  18.108 -0.1555 -0.1124  0.0668
50458OCT     C1  915   4.040   6.641   9.363  0.1123  0.3812  0.1991
50458OCT     C2  916   4.179   6.742   9.760 -0.0605 -0.1537  0.1228
50459OCT     C1  917  20.212  16.491  22.393  0.0701 -0.0514  0.3244
50459OCT     C2  918  20.357  16.519  21.960 -0.1023  0.1659 -0.0681
50460OCT     C1  919  12.800  19.841   2.902 -0.2241  0.0263  0.1928
50460OCT     C2  920  12.507  19.870   3.202 -0.0106 -0.1054 -0.1105
50461OCT     C1  921   6.650  22.555  17.383 -0.1187  0.2317 -0.1512
50461OCT     C2  922   6.630  22.825  17.011  0.1421  0.2047  0.0653
50462OCT     C1  923   9.062  19.049  18.997  0.2146  0.2421 -0.0741
50462OCT     C2  924   9.504  18.876  18.778 -0.1991 -0.0121 -0.4398
50463OCT     C1  925   2.683  10.286  20.589  0.2357 -0.1981  0.0291
50463OCT     C2  926   2.704  10.675  20.372 -0.0890 -0.1778 -0.1118
50464OCT     C1  927   3.835   1.101   0.679 -0.1745 -0.2498 -0.1331
50464OCT     C2  928   4.187   1.482   0.826  0.1535 -0.1443 -0.2743
50465OCT     C1  929   1.994  23.005   5.275  0.0047 -0.1846  0.1102
50465OCT     C2  930   1.868  22.812   5.781 -0.3153 -0.2030 -0.0285
50466OCT     C1  931  12.229  19.364  19.147 -0.1434 -0.2913 -0.0884
50466OCT     C2  932  12.008  19.103  19.525  0.3792 -0.2060 -0.0051
50467OCT     C1  933   7.864  15.342  18.637  0.3053  0.1553  0.0042
50467OCT     C2  934   7.988  15.173  18.228  0.1528  0.0660  0.0110
50468OCT     C1  935  21.625  22.951   5.041 -0.0920  0.2158  0.2264
50468OCT     C2  936  21.332  22.866   4.716  0.0545  0.2747  0.0062
50469OCT     C1  937  18.934  14.396   5.372 -0.1057  0.0875  0.2410
50469OCT     C2  938  18.578  14.450   5.670  0.0414  0.3245 -0.0227
50470OCT     C1  939   2.050   7.900   5.775 -0.1456  0.1087  0.3846
50470OCT     C2  940   2.278   7.853   5.361  0.0114 -0.1901 -0.5472
50471OCT     C1  941  16.370   8.684   7.874 -0.0913  0.1222  0.3075
50471OCT     C2  942  16.013   8.536   8.103  0.0722  0.1930 -0.1416
50472OCT     C1  943  21.288  23.701   0.435  0.2887 -0.3228 -0.2163
50472OCT     C2  944  21.131   0.357   0.242  0.0139 -0.0174  0.3026
50473OCT     C1  945  23.538  13.234  21.250  0.0555 -0.2228  0.1289
50473OCT     C2  946  23.425  13.020  20.870 -0.0088 -0.0791 -0.6115
50474OCT     C1  947   0.585   4.385  16.838 -0.0478  0.0217 -0.2062
50474OCT     C2  948   0.684   4.735  17.212  0.3971 -0.0029 -0.1343
50475OCT     C1  949  11.108   0.999   5.894  0.0929  0.2111  0.0283
50475OCT     C2  950  11.202   1.480   5.711  0.1726  0.0542 -0.0511
50476OCT     C1  951  23.009   4.567   9.576 -0.1657 -0.2605  0.1274
50476OCT     C2  952  22.689   4.312   9.343 -0.2229 -0.3430 -0.0920
50477OCT     C1  953  22.077   8.297   9.037  0.2060 -0.0663 -0.0788
50477OCT     C2  954  21.997   8.501   9.498 -0.5300  0.1188 -0.4160
50478OCT     C1  955  17.528  22.681   5.123 -0.2185  0.2985 -0.2734
50478OCT     C2  956  17.052  22.607   4.902  0.1508 -0.2820 -0.2457
50479OCT     C1  957  16.338  13.580   6.863 -0.1292  0.3451  0.2196
50479OCT     C2  958  16.316  13.123   6.862 -0.1314  0.0108 -0.2868
50480OCT     C1  959   7.910   8.387   6.775 -0.1929  0.0280  0.3162
50480OCT     C2  960   7.508   8.607   6.704 -0.1394  0.1704 -0.0043
50481OCT     C1  961  12.968  17.761  20.449  0.0111 -0.0265  0.3636
50481OCT     C2  962  12.853  18.091  20.146  0.1035  0.2208 -0.3411
50482OCT     C1  963   7.617   6.176  21.187  0.4541  0.0486  0.0550
50482OCT     C2  964   7.557   5.676  21.166  0.0130  0.1839 -0.0609
50483OCT     C1  965   4.627   4.240  10.861  0.0343  0.2517  0.1672
50483OCT     C2  966   4.200   4.200  10.645 -0.0574  0.1010  0.4726
50484OCT     C1  967  11.565  13.924   0.524  0.3592 -0.0882 -0.2159
50484OCT     C2  968  11.176  13.678   0.491  0.2039  0.1513  0.0978
50485OCT     C1  969   5.090   7.013   8.026 -0.1206  0.2933  0.1432
50485OCT     C2  970   5.485   6.757   7.917 -0.2115  0.1055 -0.3160
50486OCT     C1  971  21.853  14.096   3.201 -0.0664  0.2235  0.1398
50486OCT     C2  972  21.440  14.271   2.970 -0.4828  0.0354 -0.0762
50487OCT     C1  973  21.790   2.848   5.414 -0.0678 -0.2214 -0.0062
50487OCT     C2  974  21.597   2.662   5.030  0.5829  0.1129  0.1161
50488OCT     C1  975   9.317  19.393  22.659  0.3607  0.2254  0.3688
50488OCT     C2  976   8.906  19.268  22.833  0.0493  0.1495  0.1463
50489OCT     C1  977  19.068   7.608   8.403  0.1122  0.2133  0.3316
50489OCT     C2  978  19.464   7.677   8.157  0.0274 -0.4024 -0.1974
50490OCT     C1  979  20.615  20.507   1.278  0.3721  0.2282  0.0758
50490OCT     C2  980  20.563  20.835   0.955 -0.1608  0.0492 -0.2384
50491OCT     C1  981  19.881   3.389  11.157  0.1031  0.1038  0.1586
50491OCT     C2  982  19.984   3.895  11.070 -0.0988 -0.1634 -0.0022
50492OCT     C1  983   2.793   7.948   4.087 -0.2781  0.0096 -0.2211
50492OCT     C2  984   3.060   7.912   3.712  0.0418  0.0302 -0.0920
50493OCT     C1  985  23.428  15.811   1.104  0.2209 -0.0642 -0.1359
50493OCT     C2  986  23.635  15.659   1.538  0.2945  0.0511 -0.0556
50494OCT     C1  987   3.712  15.471  19.473 -0.3484 -0.0405 -0.3127
50494OCT     C2  988   3.292  15.421  19.713 -0.1571  0.0351 -0.2583
50495OCT     C1  989  10.107   1.750  22.140 -0.2173  0.4908  0.1487
50495OCT     C2  990   9.773   2.010  22.236 -0.2336 -0.2571 -0.1195
50496OCT     C1  991  22.613   2.219   0.972  0.4125  0.0108 -0.3458
50496OCT     C2  992  22.762   1.791   0.706  0.2654  0.1375 -0.0899
50497OCT     C1  993  18.190   6.106  10.269  0.1482 -0.2564  0.1361
50497OCT     C2  994  18.527   6.415  10.168 -0.1415 -0.1244  0.0948
50498OCT     C1  995  12.383  12.201  19.777 -0.1046  0.0710  0.0659
50498OCT     C2  996  12.589  12.125  20.129 -0.2074 -0.1281  0.0153
50499OCT     C1  997   9.849   8.725  22.945 -0.0477 -0.3092  0.4034
50499OCT     C2  998   9.426   8.947  22.780  0.2234  0.1224 -0.0789
50500OCT     C1  999  11.003  11.947  11.111 -0.1758  0.2794 -0.2726
50500OCT     C2 1000  10.865  11.921  11.580 -0.1157 -0.0364  0.3952
50501OCT     C1 1001   0.697  19.791   4.257 -0.3720  0.0079  0.0830
50501OCT     C2 1002   0.821  20.194   4.030  0.1081  0.2191  0.1049
50502OCT     C1 1003  14.742  18.086  17.861  0.0460 -0.0274  0.0248
50502OCT     C2 1004  14.794  17.668  17.918 -0.1463 -0.0512 -0.1487
50503OCT     C1 1005  10.989   4.318  17.728 -0.1933  0.0139  0.3724
50503OCT     C2 1006  10.685   4.607  17.994  0.0007  0.0509 -0.1623
50504OCT     C1 1007  17.350  12.393  18.082 -0.0281 -0.1602  0.0176
50504OCT     C2 1008  17.361  12.344  18.600 -0.3812  0.0326  0.1195
50505OCT     C1 1009  23.714  15.191  12.332 -0.0675 -0.1533  0.3568
50505OCT     C2 1010  23.501  15.525  12.062 -0.1997 -0.2662  0.0236
50506OCT     C1 1011   9.514  18.388  13.093  0.0954  0.2092 -0.4721
50506OCT     C2 1012   9.267  18.186  12.789  0.2736  0.2947  0.0029
50507OCT     C1 1013  12.245  14.145  11.155  0.2310  0.2859 -0.1087
50507OCT     C2 1014  12.113  14.183  11.569  0.4069  0.0493  0.2081
50508OCT     C1 1015   1.922  20.635  11.455  0.0557 -0.2405 -0.1380
50508OCT     C2 1016   1.918  20.954  11.790 -0.1981  0.3352  0.2333
50509OCT     C1 1017  20.670  11.292  10.238 -0.0738 -0.2955  0.2393
50509OCT     C2 1018  20.571  11.529   9.820 -0.0947 -0.1279 -0.4079
50510OCT     C1 1019  12.408   9.361   6.050  0.1987 -0.0673  0.2748
50510OCT     C2 1020  12.678   9.770   5.980 -0.2870  0.0301  0.0281
50511OCT     C1 1021   0.948  18.924  16.938  0.2892 -0.1667 -0.0387
50511OCT     C2 1022   1.371  18.919  16.803 -0.1558  0.0187 -0.0663
50512OCT     C1 1023  20.775  12.942  21.935  0.3057  0.3694 -0.1529
50512OCT     C2 1024  20.919  12.585  22.269  0.1606  0.0734  0.1095
50513OCT     C1 1025   4.217  17.931   9.428  0.0315 -0.2428  0.3075
50513OCT     C2 1026   3.824  18.094   9.133  0.1165  0.2125  0.0230
50514OCT     C1 1027  13.724  13.332  13.010 -0.1171 -0.1304  0.1515
50514OCT     C2 1028  13.404  13.633  13.209  0.2067  0.0464 -0.5696
50515OCT     C1 1029  18.275   6.423  17.804  0.0212  0.0014 -0.0774
50515OCT     C2 1030  18.373   6.033  17.502  0.2174 -0.4268  0.0811
50516OCT     C1 1031   5.654   2.236  23.311  0.0094 -0.0174 -0.3637
50516OCT     C2 1032   5.366   2.440  22.961  0.0699 -0.3103  0.0632
50517OCT     C1 1033  17.989  11.265  12.326  0.0253  0.1111  0.2363
50517OCT     C2 1034  18.185  11.678  12.283 -0.0320  0.2629  0.3040
50518OCT     C1 1035  21.621  12.357  10.606 -0.4290  0.3191 -0.2016
50518OCT     C2 1036  21.898  12.235  10.300  0.0622 -0.0408 -0.1475
50519OCT     C1 1037   4.328  13.193  18.314 -0.1278  0.2214 -0.2224
50519OCT     C2 1038   4.353  13.535  18.622  0.1037 -0.0586  0.1837
50520OCT     C1 1039  20.581  11.785   7.086  0.3114 -0.2843 -0.0828
50520OCT     C2 1040  20.218  11.569   6.902  0.1918 -0.3037 -0.2363
50521OCT     C1 1041   9.512   7.144  18.727  0.1711 -0.2259 -0.0824
50521OCT     C2 1042   9.433   7.392  19.076  0.0511  0.4068  0.0262
50522OCT     C1 1043  23.309   4.707  20.696  0.2849  0.0446  0.0395
50522OCT     C2 1044  22.912   4.491  20.745 -0.0390 -0.1969 -0.2516
50523OCT     C1 1045  19.715  21.707  14.774  0.1595  0.3132  0.1806
50523OCT     C2 1046  19.691  21.711  15.225  0.0581  0.3723  0.1742
50524OCT     C1 1047  12.506  13.812   0.864  0.1313 -0.2072 -0.1053
50524OCT     C2 1048  12.255  14.191   1.100 -0.0618 -0.3099 -0.0587
50525OCT     C1 1049  12.363  16.394   3.909  0.1755  0.3393 -0.0762
50525OCT     C2 1050  12.155  15.963   3.800 -0.0381 -0.1835 -0.2205
50526OCT     C1 1051   0.900  14.484   0.943 -0.0333  0.4501 -0.0839
50526OCT     C2 1052   0.717  14.776   0.613 -0.4009  0.1882 -0.1632
50527OCT     C1 1053  14.970   1.154  15.064 -0.1538  0.3205  0.2753
50527OCT     C2 1054  14.978   1.203  14.638  0.1637 -0.1569 -0.0225
50528OCT     C1 1055  16.758   2.395  12.483 -0.1332  0.0323 -0.0631
50528OCT     C2 1056  16.270   2.528  12.469 -0.2107 -0.1633 -0.3875
50529OCT     C1 1057  23.499   3.471  18.790  0.0163 -0.1054  0.1438
50529OCT     C2 1058  23.513   3.156  18.467 -0.0416 -0.0539  0.2563
50530OCT     C1 1059  20.995  21.632  16.832 -0.1196 -0.0879 -0.0625
50530OCT     C2 1060  21.320  21.920  16.827  0.1424 -0.1052  0.1691
50531OCT     C1 1061  22.659   2.023   4.472 -0.4364 -0.1758 -0.1386
50531OCT     C2 1062  22.558   2.483   4.454  0.0878  0.1821  0.0637
50532OCT     C1 1063   4.592  10.883   3.850  0.0677  0.1561 -0.0112
50532OCT     C2 1064   4.640  10.443   3.787  0.2211 -0.3927 -0.1687
50533OCT     C1 1065  15.388   4.389  15.963  0.4556 -0.2299 -0.0258
50533OCT     C2 1066  15.159   4.235  16.305 -0.2088  0.1487 -0.2149
50534OCT     C1 1067   0.665  12.261   9.329  0.0543 -0.0742  0.1891
50534OCT     C2 1068   0.916  12.495   9.717 -0.1773 -0.2824 -0.0274
50535OCT     C1 1069  15.926  12.597  17.717  0.5489  0.1351  0.0275
50535OCT     C2 1070  15.747  12.299  18.095  0.2117  0.0910 -0.1029
50536OCT     C1 1071   7.155  20.866  12.116  0.1149  0.0103 -0.1929
50536OCT     C2 1072   6.748  20.793  11.974 -0.1680 -0.0172 -0.0597
50537OCT     C1 1073  10.189   5.123  19.954  0.2926 -0.3128  0.2392
50537OCT     C2 1074  10.085   5.574  19.944  0.0372 -0.0903 -0.2197
50538OCT     C1 1075  21.416  17.177   5.944  0.1972 -0.0942  0.2164
50538OCT     C2 1076  21.373  17.559   5.692 -0.0735 -0.1637 -0.4513
50539OCT     C1 1077   6.488  21.019   6.566  0.3240  0.1202  0.1917
50539OCT     C2 1078   6.232  21.069   6.898 -0.0758 -0.1658 -0.4226
50540OCT     C1 1079  15.763   8.108  10.764 -0.4374 -0.2490  0.0996
50540OCT     C2 1080  15.851   7.703  10.924  0.1371  0.3427  0.0200
50541OCT     C1 1081   4.412   4.854  15.402 -0.2888 -0.0983  0.1663
50541OCT     C2 1082   4.144   4.976  15.795  0.0992  0.0552  0.0339
50542OCT     C1 1083   1.151  17.369   6.812 -0.0751  0.1552 -0.0966
50542OCT     C2 1084   1.325  17.068   6.477  0.1358 -0.2209 -0.2037
50543OCT     C1 1085  21.726  18.436  17.881  0.1515  0.1729 -0.0565
50543OCT     C2 1086  21.572  18.301  18.331 -0.4272  0.2943  0.2426
50544OCT     C1 1087  10.249   7.905  18.806 -0.2963 -0.3228  0.1828
50544OCT     C2 1088  10.713   7.938  18.707  0.1615 -0.1534  0.1371
50545OCT     C1 1089  21.525   7.309  22.146 -0.1683 -0.0226  0.2571
50545OCT     C2 1090  21.716   7.678  22.425  0.2181  0.1668  0.2397
50546OCT     C1 1091   7.008   1.395   1.053  0.0416  0.0846 -0.3660
50546OCT     C2 1092   6.694   1.728   0.850 -0.1316 -0.0697 -0.0228
50547OCT     C1 1093  11.315   5.358   6.294 -0.1049 -0.1289 -0.2507
50547OCT     C2 1094  11.528   5.602   6.655 -0.1254  0.3445 -0.2273
50548OCT     C1 1095  16.114   6.927  16.722 -0.1809 -0.1002 -0.3649
50548OCT     C2 1096  15.725   7.059  16.972 -0.1144  0.3214  0.1703
50549OCT     C1 1097  11.288   9.338  22.273 -0.0362 -0.0409  0.1795
50549OCT     C2 1098  11.102   9.731  22.304  0.1949 -0.1755  0.0013
50550OCT     C1 1099   6.079  16.117  16.857  0.2603  0.0968  0.2428
50550OCT     C2 1100   6.098  15.668  16.854 -0.0159 -0.1560 -0.1268
50551OCT     C1 1101  18.255  14.760   8.290  0.4349  0.0413 -0.0084
50551OCT     C2 1102  18.546  15.139   8.106 -0.2010  0.2806  0.6288
50552OCT     C1 1103  18.065   1.008   1.760 -0.0264 -0.0222 -0.0742
50552OCT     C2 1104  18.179   0.580   1.678 -0.3801  0.3990 -0.1319
50553OCT     C1 1105   2.180   8.667   0.760 -0.1032  0.1914 -0.0187
50553OCT     C2 1106   2.687   8.658   0.837 -0.0509  0.0494 -0.3776
50554OCT     C1 1107   3.285  20.459  16.968 -0.2058  0.2691 -0.2527
50554OCT     C2 1108   3.338  20.408  17.431  0.2467 -0.1504  0.0250
50555OCT     C1 1109  19.485   6.679   9.400 -0.3382  0.3261  0.5065
50555OCT     C2 1110  19.449   7.109   9.409  0.2102 -0.2894 -0.2247
50556OCT     C1 1111  10.351  12.835   0.247 -0.0150  0.1192  0.2724
50556OCT     C2 1112  10.048  12.685   0.512  0.1267 -0.0491 -0.2776
50557OCT     C1 1113  10.633   6.928  12.306  0.3130  0.0430  0.0859
50557OCT     C2 1114  10.966   6.733  12.594 -0.1326  0.0116  0.0681
50558OCT     C1 1115   3.876  10.367   7.705  0.2268  0.0971  0.1582
50558OCT     C2 1116   3.735  10.263   8.149  0.3583  0.2853  0.2960
50559OCT     C1 1117  10.172  21.490  13.871 -0.0384 -0.1894  0.4646
50559OCT     C2 1118  10.590  21.461  14.027 -0.2537  0.0825  0.0303
50560OCT     C1 1119   3.562  19.708  22.055  0.0281  0.1033 -0.3152
50560OCT     C2 1120   3.655  19.595  22.511 -0.1290 -0.3880 -0.1545
50561OCT     C1 1121  12.811  15.007   2.435  0.1558 -0.5368  0.0238
50561OCT     C2 1122  12.616  15.435   2.457  0.0220  0.3703 -0.4167
50562OCT     C1 1123  19.183   0.406  18.473  0.0368  0.4187  0.1435
50562OCT     C2 1124  19.558   0.318  18.722  0.0383  0.3177 -0.0276
50563OCT     C1 1125   0.414  10.779   7.899  0.1685 -0.0688 -0.0895
50563OCT     C2 1126   0.812  10.642   7.726  0.5318 -0.2823  0.2355
50564OCT     C1 1127   2.143   1.259  10.094  0.3586 -0.2902 -0.1692
50564OCT     C2 1128   1.943   0.830  10.063 -0.0049 -0.0981 -0.1167
50565OCT     C1 1129   5.822   1.827  13.833  0.1091 -0.0315 -0.0548
50565OCT     C2 1130   5.346   2.022  13.743 -0.1758  0.4834  0.2150
50566OCT     C1 1131  19.804   0.526  22.341  0.1979 -0.0313  0.0497
50566OCT     C2 1132  19.631   0.115  22.127  0.2130 -0.0673 -0.1379
50567OCT     C1 1133   9.400  17.269   0.969 -0.2924 -0.3151 -0.2116
50567OCT     C2 1134   9.536  17.250   0.506  0.1119 -0.1044 -0.0689
50568OCT     C1 1135   3.574  16.588   7.112  0.1461  0.1008 -0.0185
50568OCT     C2 1136   3.228  16.339   7.207  0.2510  0.3427  0.2307
50569OCT     C1 1137   5.762  21.367   6.980  0.0969 -0.3275 -0.3656
50569OCT     C2 1138   5.826  21.212   6.561  0.2615  0.2191 -0.1093
50570OCT     C1 1139  12.273  10.267  19.876 -0.1769  0.1855  0.2055
50570OCT     C2 1140  12.477   9.885  20.025 -0.1778  0.2591  0.2480
50571OCT     C1 1141  16.179   9.701   1.964  0.2110  0.2156  0.4616
50571OCT     C2 1142  16.385   9.463   1.635  0.0868  0.0819  0.2363
50572OCT     C1 1143  14.945  17.453  21.640 -0.3020 -0.0648 -0.1483
50572OCT     C2 1144  15.214  17.213  21.429  0.0475  0.0723  0.1270
50573OCT     C1 1145  11.272  21.150  16.749 -0.2234  0.3329 -0.1174
50573OCT     C2 1146  11.389  20.757  16.565  0.1279  0.0270 -0.0154
50574OCT     C1 1147   9.534   0.006  13.138  0.2549 -0.4049 -0.0753
50574OCT     C2 1148   9.092   0.080  13.382 -0.0587  0.5463  0.0416
50575OCT     C1 1149  14.425  22.255  16.128 -0.5107  0.1269 -0.2104
50575OCT     C2 1150  14.099  22.202  15.809  0.0797 -0.3157  0.1705
50576OCT     C1 1151   5.195  15.983  13.874 -0.2444  0.0133 -0.2617
50576OCT     C2 1152   5.333  15.636  14.125 -0.0822 -0.6097 -0.1553
50577OCT     C1 1153   8.326   8.652  21.788 -0.0390 -0.0145 -0.4281
50577OCT     C2 1154   8.458   8.758  21.367 -0.0341 -0.3393 -0.0119
50578OCT     C1 1155   6.501  12.522   7.207 -0.2899 -0.0974  0.1571
50578OCT     C2 1156   6.788  12.183   7.092 -0.8588 -0.2109 -0.3525
50579OCT     C1 1157   8.562   0.548  22.234  0.0796  0.2244 -0.0994
50579OCT     C2 1158   8.595   0.130  22.468  0.1345  0.0378 -0.1653
50580OCT     C1 1159  14.041   9.583   4.059  0.0992 -0.2836 -0.1493
50580OCT     C2 1160  13.715   9.694   4.384 -0.3082 -0.3014 -0.0681
50581OCT     C1 1161  23.471  10.831   2.803  0.1736  0.1994 -0.2626
50581OCT     C2 1162  23.441  11.191   3.092  0.4218 -0.0181  0.3487
50582OCT     C1 1163  21.491   8.301   9.041  0.4005 -0.1623  0.0941
50582OCT     C2 1164  21.733   8.120   8.700 -0.3854 -0.2354  0.2084
50583OCT     C1 1165   7.823   6.698   2.627 -0.0364 -0.1394  0.0597
50583OCT     C2 1166   7.729   6.271   2.538  0.0745 -0.0475 -0.1149
50584OCT     C1 1167   5.319   3.449  19.482 -0.0188 -0.0404  0.1059
50584OCT     C2 1168   5.067   3.052  19.723 -0.3369  0.2060 -0.3805
50585OCT     C1 1169  16.776  11.023  17.334 -0.1630  0.0195  0.1864
50585OCT     C2 1170  17.055  11.117  16.919 -0.4489  0.1417  0.0271
50586OCT     C1 1171  11.295  22.070  13.906  0.1560 -0.1611  0.1240
50586OCT     C2 1172  11.004  21.784  14.180 -0.1309 -0.1994  0.0048
50587OCT     C1 1173  20.112   2.688  18.248  0.3310 -0.1646  0.1467
50587OCT     C2 1174  19.817   2.854  17.909 -0.1443 -0.1129 -0.2641
50588OCT     C1 1175  23.033   9.261  11.672  0.0065 -0.1837 -0.1301
50588OCT     C2 1176  23.092   9.607  11.308  0.1348  0.1178  0.0516
50589OCT     C1 1177  14.866  13.260  16.239  0.0685  0.0984  0.2204
50589OCT     C2 1178  14.794  13.285  15.736  0.3638 -0.0363 -0.2615
50590OCT     C1 1179  20.105   6.884   6.627 -0.0375 -0.2588 -0.1377
50590OCT     C2 1180  20.325   7.243   6.445  0.0177  0.0260 -0.5370
50591OCT     C1 1181  12.079  10.122  13.983  0.0045 -0.2165 -0.0349
50591OCT     C2 1182  12.241  10.484  14.281 -0.0557  0.1848  0.0883
50592OCT     C1 1183   1.597   9.650  16.026 -0.2322 -0.0412 -0.0689
50592OCT     C2 1184   1.625   9.737  16.516 -0.0820  0.2273  0.0994
50593OCT     C1 1185   6.123  21.511   9.575  0.0471 -0.3508  0.3136
50593OCT     C2 1186   6.196  21.218   9.897  0.0337  0.0739  0.1230
50594OCT     C1 1187  22.336   5.427  20.511 -0.0583  0.2692  0.0037
50594OCT     C2 1188  22.294   5.904  20.643  0.2976  0.2128  0.1795
50595OCT     C1 1189  10.324   3.970  10.219 -0.0568 -0.4488 -0.2155
50595OCT     C2 1190  10.739   3.776  10.107 -0.0149  0.3526 -0.0917
50596OCT     C1 1191  17.090  21.994   7.913  0.1118 -0.1656 -0.0038
50596OCT     C2 1192  17.448  21.924   8.157  0.1107 -0.2163  0.0192
50597OCT     C1 1193   3.519  23.211  20.540  0.2629  0.2169 -0.0703
50597OCT     C2 1194   3.328  23.397  20.182  0.3627 -0.2724  0.2372
50598OCT     C1 1195  10.758   2.984  11.777 -0.0282  0.0676 -0.0627
50598OCT     C2 1196  10.784   2.985  12.239  0.2236 -0.1839 -0.0422
50599OCT     C1 1197   0.756  19.699  14.891  0.1266  0.1177  0.3256
50599OCT     C2 1198   0.587  19.985  15.230  0.1330  0.2516  0.1528
50600OCT     C1 1199  21.574  19.178  22.763  0.0833  0.0711  0.0124
50600OCT     C2 1200  21.495  18.767  22.937 -0.1918 -0.2884 -0.1692
50601OCT     C1 1201   8.205   9.943  13.805  0.0910  0.1654  0.1522
50601OCT     C2 1202   8.179   9.848  14.228  0.2604  0.0065 -0.1542
50602OCT     C1 1203   9.029  15.855   9.848  0.4508 -0.1693 -0.0532
50602OCT     C2 1204   8.969  15.932   9.398  0.1347 -0.0108 -0.1089
50603OCT     C1 1205  11.552  15.652  16.751 -0.2792  0.0091  0.0529
50603OCT     C2 1206  11.093  15.742  16.837 -0.3977  0.0480 -0.2052
50604OCT     C1 1207   2.982  17.199   4.076 -0.2631 -0.1264  0.0064
50604OCT     C2 1208   3.238  17.555   4.205 -0.2803 -0.0877  0.3332
50605OCT     C1 1209   5.131  14.468  23.414 -0.0667  0.1633 -0.2398
50605OCT     C2 1210   5.411  14.608   0.028 -0.0804 -0.0623  0.2209
50606OCT     C1 1211  12.509  19.719   0.517  0.0957  0.2937 -0.0272
50606OCT     C2 1212  12.626  19.764   0.937  0.0107  0.0884  0.1577
50607OCT     C1 1213  11.881   5.527   7.744  0.0539 -0.1784  0.0236
50607OCT     C2 1214  11.958   5.966   7.615  0.1117  0.0704  0.1810
50608OCT     C1 1215   0.153  23.150  16.534 -0.0678  0.1738 -0.1476
50608OCT     C2 1216  23.435  23.193  16.698  0.1915  0.1565  0.5780
50609OCT     C1 1217   4.429   6.815   8.545  0.0494  0.0819 -0.0321
50609OCT     C2 1218   4.814   7.020   8.507 -0.1443  0.1395  0.1308
50610OCT     C1 1219  13.898   1.684  10.329 -0.3543  0.1732 -0.2304
50610OCT     C2 1220  14.313   1.495  10.452 -0.1020 -0.3980 -0.0860
50611OCT     C1 1221  19.488  14.662  12.998  0.0980  0.1069 -0.2052
50611OCT     C2 1222  19.201  14.510  12.678  0.1838  0.0745  0.1385
50612OCT     C1 1223  13.731   2.209  14.324 -0.1018 -0.1661  0.0615
50612OCT     C2 1224  13.741   2.333  13.890 -0.1478  0.2295  0.2338
50613OCT     C1 1225   5.602  18.268   8.550 -0.0490 -0.2496  0.2274
50613OCT     C2 1226   5.708  18.067   8.134 -0.1381  0.2254  0.1719
50614OCT     C1 1227  11.393   5.370  12.753  0.4203  0.0672  0.0177
50614OCT     C2 1228  11.419   5.774  12.989  0.2047 -0.1640 -0.2850
50615OCT     C1 1229   3.175  21.551  14.969 -0.0934  0.0898 -0.2408
50615OCT     C2 1230   3.612  21.336  14.863  0.2958  0.0045  0.2902
50616OCT     C1 1231  14.758  15.493  14.204 -0.2116  0.0253  0.1877
50616OCT     C2 1232  15.200  15.303  14.296 -0.0721  0.2528 -0.0648
50617OCT     C1 1233   8.985  17.949   7.868 -0.0229 -0.3031  0.0204
50617OCT     C2 1234   9.178  18.022   7.422 -0.3097 -0.3142  0.5382
50618OCT     C1 1235   1.191  10.884   1.375  0.0390  0.2420 -0.3285
50618OCT     C2 1236   0.961  11.175   1.079 -0.0571 -0.3325  0.0140
50619OCT     C1 1237  13.577  23.431  18.868 -0.3766  0.0013  0.2001
50619OCT     C2 1238  14.070  23.465  18.817 -0.1392 -0.1027  0.0718
50620OCT     C1 1239   4.228  12.743  11.739 -0.1196  0.1011 -0.2530
50620OCT     C2 1240   4.492  12.355  11.845  0.0787  0.0296  0.0968
50621OCT     C1 1241   0.554   5.929   7.607 -0.2163  0.2143 -0.2010
50621OCT     C2 1242   0.585   6.293   7.346  0.0296 -0.2251  0.1341
50622OCT     C1 1243  23.518   2.044   1.239  0.2982 -0.1215  0.0576
50622OCT     C2 1244  23.390   2.409   1.424 -0.0659  0.0838  0.0073
50623OCT     C1 1245   2.742  20.620   5.609 -0.2655  0.2237 -0.1214
50623OCT     C2 1246   2.335  20.420   5.458  0.0791  0.1296 -0.0099
50624OCT     C1 1247  12.872  20.982  12.729  0.4312  0.0862  0.0451
50624OCT     C2 1248  13.039  20.623  13.022 -0.3669  0.3187  0.0499
50625OCT     C1 1249   2.035   6.851   2.878  0.3560 -0.1576 -0.0769
50625OCT     C2 1250   2.472   6.780   3.141  0.0134  0.2140  0.2723
50626OCT     C1 1251  12.400   3.421  11.942 -0.3168  0.2006 -0.1589
50626OCT     C2 1252  12.883   3.404  11.834 -0.2349  0.5447  0.1645
50627OCT     C1 1253  18.569  21.107  16.462 -0.5268  0.0058  0.2638
50627OCT     C2 1254  18.104  21.168  16.541 -0.1884  0.2254 -0.0585
50628OCT     C1 1255   7.338   9.532   2.529 -0.2091  0.3643  0.0603
50628OCT     C2 1256   7.265   9.525   2.056  0.0720  0.0657  0.2029
50629OCT     C1 1257   2.151  16.638   3.245  0.1825 -0.7290  0.0343
50629OCT     C2 1258   2.355  16.642   2.846 -0.1484 -0.3415  0.0715
50630OCT     C1 1259   5.109  13.346   5.810 -0.0894 -0.2382 -0.0442
50630OCT     C2 1260   5.188  13.532   6.260  0.1195  0.4245 -0.1028
50631OCT     C1 1261   4.715   7.423   5.249  0.2427  0.2376 -0.1300
50631OCT     C2 1262   4.518   7.703   5.522  0.1430 -0.2163  0.0361
50632OCT     C1 1263  16.653  22.281  20.777  0.1199  0.1070  0.3219
50632OCT     C2 1264  16.434  22.674  20.732  0.1102 -0.3136 -0.0567
50633OCT     C1 1265  17.104   0.402  14.521  0.0930 -0.0781  0.1150
50633OCT     C2 1266  16.731   0.363  14.235 -0.2384  0.1084 -0.1659
50634OCT     C1 1267  19.193   0.970  21.392 -0.2948 -0.1780 -0.1485
50634OCT     C2 1268  18.909   1.402  21.361  0.1923 -0.1570  0.0901
50635OCT     C1 1269  16.537  21.483  20.377  0.0963  0.0873 -0.0250
50635OCT     C2 1270  16.951  21.337  20.246  0.2798 -0.0851 -0.2188
50636OCT     C1 1271  13.751  22.003   1.422 -0.0693 -0.1645  0.0584
50636OCT     C2 1272  13.427  21.651   1.528  0.1203  0.1897 -0.2093
50637OCT     C1 1273   7.657  21.433  12.713 -0.4787  0.3431 -0.0089
50637OCT     C2 1274   7.683  21.057  12.453  0.0759 -0.1964 -0.0385
50638OCT     C1 1275   5.791  14.581  11.456  0.3208 -0.1885 -0.0306
50638OCT     C2 1276   5.834  14.385  11.030 -0.0656  0.2240 -0.0366
50639OCT     C1 1277   6.257  12.249  20.622 -0.1121 -0.1469  0.1466
50639OCT     C2 1278   6.396  11.957  20.245  0.1290 -0.0280 -0.1274
50640OCT     C1 1279   6.865  20.022  10.323  0.0173 -0.0176  0.0225
50640OCT     C2 1280   7.159  19.809  10.116  0.1633  0.1765  0.0908
50641OCT     C1 1281   0.439  21.736  12.537 -0.0085  0.1941 -0.2392
50641OCT     C2 1282   0.876  21.944  12.579 -0.0406  0.2245 -0.4025
50642OCT     C1 1283   3.447   0.211  10.282 -0.0710 -0.2828  0.2278
50642OCT     C2 1284   3.649   0.434   9.915 -0.0926 -0.1574 -0.0552
50643OCT     C1 1285  13.877  19.562  10.965 -0.0812 -0.3543  0.2025
50643OCT     C2 1286  13.923  19.098  11.066 -0.1204  0.1289 -0.3218
50644OCT     C1 1287   8.647  14.489   1.004 -0.2014  0.0814 -0.2263
50644OCT     C2 1288   8.254  14.698   1.191  0.0882 -0.1836  0.0078
50645OCT     C1 1289  12.607  21.547  14.409 -0.0702  0.0672  0.2927
50645OCT     C2 1290  12.444  21.914  14.648 -0.3080 -0.1007  0.0016
50646OCT     C1 1291  15.621  15.042  17.844  0.1384 -0.1342  0.3434
50646OCT     C2 1292  15.522  15.177  17.397 -0.0679  0.0874 -0.5578
50647OCT     C1 1293  13.471  20.125   0.634  0.3191 -0.0407  0.0964
50647OCT     C2 1294  13.232  20.327   0.274 -0.1709  0.1519  0.3894
50648OCT     C1 1295   5.460   9.629   2.685  0.0480  0.0581 -0.0935
50648OCT     C2 1296   5.869   9.360   2.904  0.1857  0.0670 -0.0328
50649OCT     C1 1297  23.696   0.443   1.542 -0.4231 -0.0097 -0.0500
50649OCT     C2 1298  23.259   0.335   1.369 -0.0103 -0.1512 -0.2337
50650OCT     C1 1299   9.798  12.069  20.293  0.3068 -0.0485  0.3146
50650OCT     C2 1300   9.918  11.922  20.739  0.0009 -0.2314  0.1848
50651OCT     C1 1301   2.781  15.088   7.504 -0.5621 -0.0054 -0.2015
50651OCT     C2 1302   2.363  14.987   7.305  0.0463 -0.1778  0.0040
50652OCT     C1 1303   6.877  10.902  13.379  0.0241  0.1046 -0.2635
50652OCT     C2 1304   6.590  11.170  13.143  0.3963  0.1348  0.0089
50653OCT     C1 1305   1.388  10.293   5.927 -0.0071  0.4644  0.1483
50653OCT     C2 1306   1.725  10.457   5.627  0.1692  0.2580 -0.2040
50654OCT     C1 1307   2.015   1.049  18.376 -0.3011 -0.1197  0.0034
50654OCT     C2 1308   2.075   0.933  17.935  0.1734 -0.4226  0.1008
50655OCT     C1 1309   2.846   0.232  23.534 -0.0358  0.1701 -0.2082
50655OCT     C2 1310   3.239   0.115  23.512  0.3474  0.0920 -0.0445
50656OCT     C1 1311  23.463  21.434  10.110  0.2497  0.1836 -0.1529
50656OCT     C2 1312   0.017  21.100  10.283 -0.1565  0.2369  0.1367
50657OCT     C1 1313  13.778  12.042   7.528 -0.1765  0.1492  0.0695
50657OCT     C2 1314  13.392  12.263   7.519  0.2272 -0.3177  0.2487
50658OCT     C1 1315   4.950  15.170   1.122  0.0392 -0.2005  0.0494
50658OCT     C2 1316   5.273  15.272   0.815 -0.1592 -0.3203  0.1073
50659OCT     C1 1317  16.376   1.493   8.367 -0.1567  0.0755  0.0107
50659OCT     C2 1318  16.659   1.221   8.706 -0.0505  0.1183 -0.1878
50660OCT     C1 1319  18.479   8.540   5.493  0.0438  0.1501 -0.1852
50660OCT     C2 1320  18.552   8.100   5.419 -0.3570  0.1283  0.1269
50661OCT     C1 1321   6.030  10.672   7.053 -0.1993  0.0125  0.1609
50661OCT     C2 1322   5.693  10.762   6.832 -0.2087 -0.0071 -0.3749
50662OCT     C1 1323  18.593   1.223  15.770 -0.0793 -0.4123  0.5757
50662OCT     C2 1324  18.758   1.672  15.792  0.2097  0.1958 -0.0007
50663OCT     C1 1325   3.109  21.836  20.338 -0.0123  0.1121 -0.0969
50663OCT     C2 1326   2.978  22.263  20.433  0.1828 -0.0724  0.0150
50664OCT     C1 1327   0.229   0.215   8.796  0.1495  0.0270 -0.3215
50664OCT     C2 1328   0.295  23.520   8.528 -0.1640  0.0424  0.0120
50665OCT     C1 1329  22.186  14.356  21.949 -0.2694  0.0189  0.0048
50665OCT     C2 1330  22.527  14.473  21.641  0.1791  0.1238 -0.1584
50666OCT     C1 1331  16.027  22.696   5.822  0.1377 -0.1081 -0.0963
50666OCT     C2 1332  15.779  23.064   5.617 -0.3119 -0.1772  0.1691
50667OCT     C1 1333  15.184  18.051   5.764  0.2159 -0.3459 -0.0488
50667OCT     C2 1334  14.809  18.183   5.500 -0.0123 -0.0668 -0.1162
50668OCT     C1 1335   8.137   6.615  23.730 -0.2556 -0.3299  0.0831
50668OCT     C2 1336   8.085   7.057   0.169 -0.2874 -0.3769 -0.0558
50669OCT     C1 1337   8.902  15.060  15.107  0.3057  0.1744 -0.0491
50669OCT     C2 1338   8.676  14.877  15.486  0.3104  0.1485  0.0298
50670OCT     C1 1339  21.389  12.356  22.429  0.0681 -0.4984 -0.2182
50670OCT     C2 1340  21.682  12.710  22.469 -0.1516 -0.0169  0.1603
50671OCT     C1 1341  22.057  19.127  12.707 -0.0148 -0.1666 -0.2412
50671OCT     C2 1342  21.781  19.125  13.037  0.1501  0.0572 -0.0427
50672OCT     C1 1343  22.936   8.626  16.512  0.0171 -0.0020  0.0192
50672OCT     C2 1344  22.986   9.021  16.322 -0.0948 -0.2185  0.4909
50673OCT     C1 1345   0.313  12.109   0.331  0.1718 -0.3897  0.2375
50673OCT     C2 1346   0.674  12.343   0.180 -0.0597 -0.0937 -0.0151
50674OCT     C1 1347  12.431  12.070  17.773  0.0057  0.0690 -0.0394
50674OCT     C2 1348  12.137  12.188  17.442  0.3231  0.3384  0.0376
50675OCT     C1 1349   3.475  15.768  19.141 -0.2503  0.0185  0.0400
50675OCT     C2 1350   3.310  16.207  18.959 -0.2056 -0.1142 -0.2286
50676OCT     C1 1351  17.524  13.239  16.868 -0.1522  0.1560 -0.0650
50676OCT     C2 1352  17.222  13.060  16.567  0.0460 -0.1480  0.3539
50677OCT     C1 1353  10.803   4.677   5.479  0.1098 -0.1942  0.2986
50677OCT     C2 1354  10.613   4.255   5.385  0.1620  0.2399 -0.0163
50678OCT     C1 1355   2.318  12.053  16.360  0.5772  0.0577  0.1370
50678OCT     C2 1356   2.793  12.004  16.541  0.0564 -0.0682 -0.4432
50679OCT     C1 1357   8.624  14.328  13.480  0.2560 -0.0827  0.0279
50679OCT     C2 1358   9.028  14.547  13.377  0.0107 -0.1441 -0.3596
50680OCT     C1 1359  22.799   6.792   4.478  0.0196 -0.2466 -0.0870
50680OCT     C2 1360  23.170   6.566   4.600  0.0738  0.0830  0.0919
50681OCT     C1 1361  17.860  19.923   6.451  0.0160  0.1406 -0.0554
50681OCT     C2 1362  17.986  20.109   6.057  0.1614  0.1126  0.1007
50682OCT     C1 1363   6.614   9.309   4.214  0.0148 -0.1743 -0.1316
50682OCT     C2 1364   6.991   9.188   4.457 -0.1838 -0.2334  0.2098
50683OCT     C1 1365  16.143  16.409   6.444 -0.0875  0.1336  0.2555
50683OCT     C2 1366  16.441  16.432   6.777  0.1511  0.0348 -0.2070
50684OCT     C1 1367   7.672   6.751  12.026  0.2414 -0.1317 -0.1500
50684OCT     C2 1368   7.765   7.113  11.829 -0.0778 -0.1699 -0.0255
50685OCT     C1 1369   4.117  15.431  20.942 -0.0745  0.3549  0.2238
50685OCT     C2 1370   3.709  15.348  21.144  0.0770 -0.0778  0.0235
50686OCT     C1 1371   5.931   8.226   4.643  0.2157 -0.6167  0.1328
50686OCT     C2 1372   6.150   8.585   4.433 -0.3116  0.1088  0.0147
50687OCT     C1 1373   8.297   8.773   8.853  0.0323 -0.1382  0.2035
50687OCT     C2 1374   7.977   8.815   8.471 -0.3607  0.1554  0.1495
50688OCT     C1 1375   8.147   1.847  12.151  0.0082 -0.1305 -0.1007
50688OCT     C2 1376   7.940   1.965  12.533 -0.0622 -0.0527  0.2129
50689OCT     C1 1377  13.272  13.034   7.219 -0.2697 -0.0726 -0.0534
50689OCT     C2 1378  13.478  12.768   7.577  0.2531  0.0268  0.1563
50690OCT     C1 1379  16.763  19.456   2.272  0.1922  0.0058  0.2050
50690OCT     C2 1380  17.096  19.294   2.553 -0.0052  0.1233  0.0206
50691OCT     C1 1381   0.753   6.404   9.083  0.1868 -0.1442 -0.1507
50691OCT     C2 1382   1.094   6.616   9.219 -0.3075  0.1092 -0.0826
50692OCT     C1 1383  21.708  12.121  20.257 -0.0591 -0.1485 -0.3039
50692OCT     C2 1384  21.779  12.553  20.374 -0.2090  0.1571 -0.1257
50693OCT     C1 1385   5.323  12.035  11.490  0.2368  0.0675 -0.1331
50693OCT     C2 1386   5.131  12.438  11.637 -0.4953 -0.3552 -0.2461
50694OCT     C1 1387  18.688   9.314   1.684  0.1910 -0.2287  0.1094
50694OCT     C2 1388  18.888   8.957   1.417  0.4100  0.0260 -0.1152
50695OCT     C1 1389   1.574   8.196  18.039  0.0664 -0.1033 -0.1274
50695OCT     C2 1390   2.002   8.064  17.833  0.1874  0.0388  0.0599
50696OCT     C1 1391  22.480  22.122  10.986  0.0374  0.0714  0.0359
50696OCT     C2 1392  22.080  21.792  10.965 -0.1519 -0.0736 -0.1708
50697OCT     C1 1393  17.113  19.807  13.076  0.1897 -0.2748 -0.0115
50697OCT     C2 1394  16.865  19.685  13.413  0.1110  0.3111 -0.0085
50698OCT     C1 1395   2.063   6.088  12.547 -0.0376  0.0226 -0.0703
50698OCT     C2 1396   2.164   6.579  12.524 -0.2183 -0.2311 -0.1201
50699OCT     C1 1397  10.868  22.869  20.493 -0.0925  0.2502 -0.1845
50699OCT     C2 1398  10.473  23.135  20.451  0.0389 -0.1050 -0.1854
50700OCT     C1 1399  13.413  20.506  22.017  0.2076 -0.2887  0.2735
50700OCT     C2 1400  13.741  20.500  22.400  0.3438  0.1797  0.4334
50701OCT     C1 1401  21.238   7.736  10.147 -0.0114 -0.1697 -0.0616
50701OCT     C2 1402  21.407   7.370   9.900  0.0462  0.1502  0.1021
50702OCT     C1 1403   7.176   8.488   8.102 -0.0924  0.1844  0.0625
50702OCT     C2 1404   7.571   8.392   8.325 -0.2392 -0.1294 -0.0154
50703OCT     C1 1405  20.355  21.007  23.232  0.1338  0.3752  0.1823
50703OCT     C2 1406  20.129  20.626  23.195  0.0600 -0.1619 -0.0222
50704OCT     C1 1407   8.126  12.426  19.029  0.2211 -0.2144 -0.0527
50704OCT     C2 1408   7.974  12.846  18.978  0.1202 -0.1419 -0.2096
50705OCT     C1 1409  12.679   7.206   0.953 -0.1560 -0.0602  0.0145
50705OCT     C2 1410  12.489   6.771   1.030  0.1005 -0.0217  0.0004
50706OCT     C1 1411   2.398   9.949  20.418  0.2020  0.1704  0.1006
50706OCT     C2 1412   2.792   9.669  20.539  0.1958  0.1797 -0.0751
50707OCT     C1 1413  18.597  17.825  13.964 -0.0348 -0.0594  0.1953
50707OCT     C2 1414  18.722  18.107  13.607  0.0065  0.2088  0.1392
50708OCT     C1 1415   0.622  13.504   4.714 -0.1158  0.2732 -0.0342
50708OCT     C2 1416   0.975  13.420   5.023 -0.0083 -0.1210  0.1341
50709OCT     C1 1417   4.934  14.915  22.515 -0.0483 -0.2085 -0.2088
50709OCT     C2 1418   4.618  14.786  22.196  0.0212 -0.0825 -0.2137
50710OCT     C1 1419  19.696   9.187  22.671  0.2971 -0.5146 -0.1905
50710OCT     C2 1420  20.189   9.162  22.562  0.3923 -0.2612  0.1454
50711OCT     C1 1421   4.960  19.895   9.465 -0.0418 -0.2079  0.2336
50711OCT     C2 1422   4.532  19.935   9.662 -0.3426 -0.0502  0.0094
50712OCT     C1 1423   6.672  14.361  20.645 -0.1848  0.2970  0.1221
50712OCT     C2 1424   6.482  14.150  21.035  0.0728  0.2039  0.5174
50713OCT     C1 1425  22.146  13.264  14.473  0.0327 -0.0147  0.2615
50713OCT     C2 1426  22.351  13.299  14.038  0.1998 -0.1935 -0.1011
50714OCT     C1 1427   0.072   6.134  12.438  0.2313  0.3518  0.0792
50714OCT     C2 1428   0.306   6.035  12.100  0.3369  0.3393 -0.3036
50715OCT     C1 1429   8.589   5.238   1.625 -0.3620  0.2885  0.1181
50715OCT     C2 1430   8.586   5.301   2.069  0.0658  0.2161  0.0304
50716OCT     C1 1431   5.652  22.885   3.916 -0.3962 -0.0482  0.1965
50716OCT     C2 1432   5.428  22.576   4.126  0.1181  0.2461 -0.1959
50717OCT     C1 1433   2.389  20.697  11.646  0.0231  0.2596 -0.0021
50717OCT     C2 1434   2.550  21.171  11.728  0.2264  0.0248 -0.0565
50718OCT     C1 1435  21.396  14.643  20.432 -0.1669 -0.6072 -0.0093
50718OCT     C2 1436  21.782  14.694  20.693 -0.0184 -0.0328 -0.0247
50719OCT     C1 1437  20.143  11.149  12.177 -0.2704  0.4220  0.2992
50719OCT     C2 1438  20.199  11.056  12.633 -0.0303 -0.2742  0.0321
50720OCT     C1 1439  19.294   4.770   2.795  0.0336  0.0596 -0.3264
50720OCT     C2 1440  18.890   4.657   3.043  0.2615  0.0821  0.0298
50721OCT     C1 1441  16.681  23.354   2.485  0.1739 -0.3607  0.2832
50721OCT     C2 1442  16.348  23.011   2.427 -0.2196  0.1028  0.1723
50722OCT     C1 1443  17.632   4.025  20.398  0.0019 -0.1652  0.1500
50722OCT     C2 1444  18.098   3.866  20.370  0.0098 -0.0080  0.1464
50723OCT     C1 1445  10.048  13.787  19.972  0.1460 -0.1340 -0.0329
50723OCT     C2 1446   9.625  13.843  20.054  0.0703 -0.1520 -0.5489
50724OCT     C1 1447   4.002   8.177   4.427  0.0372 -0.0955  0.2296
50724OCT     C2 1448   4.414   8.175   4.698 -0.1878  0.0377 -0.1915
50725OCT     C1 1449   1.887  22.780  12.631  0.2934 -0.2006 -0.0349
50725OCT     C2 1450   2.281  22.916  12.492  0.0740 -0.0713  0.1366
50726OCT     C1 1451   2.452   3.434  19.375  0.1244  0.1176 -0.1834
50726OCT     C2 1452   2.206   3.247  19.069 -0.0852  0.3016  0.0188
50727OCT     C1 1453   6.043  18.611  13.590  0.2264 -0.2630  0.1571
50727OCT     C2 1454   6.213  18.180  13.747  0.4683 -0.2204 -0.2105
50728OCT     C1 1455  22.618  19.535   6.115 -0.2031  0.0424 -0.1497
50728OCT     C2 1456  22.782  19.318   6.517  0.1658 -0.1870 -0.0254
50729OCT     C1 1457  21.476   1.117   2.587  0.1176  0.0630 -0.2003
50729OCT     C2 1458  21.892   1.111   2.819 -0.4563  0.0346  0.0697
50730OCT     C1 1459  22.535  15.810   3.600  0.0463  0.4377 -0.2161
50730OCT     C2 1460  22.677  16.271   3.828 -0.1226  0.2147  0.2884
50731OCT     C1 1461   6.912   4.153  13.589  0.0620  0.2485  0.0944
50731OCT     C2 1462   7.245   4.438  13.705  0.0625 -0.2439 -0.1452
50732OCT     C1 1463  19.052   6.358  10.141 -0.0293  0.3262  0.0874
50732OCT     C2 1464  18.907   6.555  10.509  0.0083  0.1364 -0.0108
50733OCT     C1 1465  13.682   6.114   0.896 -0.1480 -0.1866  0.2401
50733OCT     C2 1466  13.318   6.087   1.185  0.0616 -0.1293  0.0838
50734OCT     C1 1467  13.773   5.619  12.579  0.0771 -0.0919 -0.1161
50734OCT     C2 1468  13.679   5.901  12.265 -0.1393 -0.0800 -0.2170
50735OCT     C1 1469  10.265  10.667   8.958 -0.1503  0.1675  0.3111
50735OCT     C2 1470  10.505  10.550   9.369  0.1015  0.0370 -0.2608
50736OCT     C1 1471  11.327   9.523  14.890  0.0494  0.0183 -0.1638
50736OCT     C2 1472  11.133   9.314  15.263  0.4783 -0.0365  0.0962
50737OCT     C1 1473   8.105   3.170  19.907  0.0195 -0.2579  0.2468
50737OCT     C2 1474   8.522   3.339  19.727  0.1928 -0.1366 -0.0759
50738OCT     C1 1475  19.531   5.621   0.098  0.6818  0.0436  0.0402
50738OCT     C2 1476  19.250   5.269   0.261  0.2630 -0.1205  0.1782
50739OCT     C1 1477   8.900  15.960   5.945  0.0493  0.4364 -0.2118
50739OCT     C2 1478   9.401  15.989   5.825 -0.2624  0.1849 -0.0653
50740OCT     C1 1479  11.114  20.314  10.015 -0.0123 -0.4646 -0.1736
50740OCT     C2 1480  11.106  20.282   9.539 -0.3648 -0.0243 -0.0726
50741OCT     C1 1481   9.029  16.139  21.044  0.6864 -0.1589  0.1348
50741OCT     C2 1482   9.398  16.431  20.977  0.0203 -0.1734 -0.3042
50742OCT     C1 1483  20.143  22.128  11.270 -0.1781 -0.1098  0.1002
50742OCT     C2 1484  19.784  22.090  11.468 -0.4644 -0.0207  0.2147
50743OCT     C1 1485  15.073  12.884   4.050 -0.2334 -0.1515  0.0428
50743OCT     C2 1486  15.399  13.085   4.331  0.1291 -0.2243 -0.1279
50744OCT     C1 1487   7.853  15.886   4.334 -0.3432  0.1240  0.0768
50744OCT     C2 1488   7.920  15.888   3.861 -0.2360 -0.0820 -0.0003
50745OCT     C1 1489  17.807   4.255  11.694 -0.0869 -0.0506 -0.0621
50745OCT     C2 1490  17.437   4.513  11.461  0.0929  0.1181  0.0855
50746OCT     C1 1491  11.718   1.482  23.532  0.1864  0.2296  0.1787
50746OCT     C2 1492  11.468   1.835  23.502 -0.1526 -0.2373  0.2197
50747OCT     C1 1493  11.820  10.283   6.882 -0.1462 -0.1225 -0.0130
50747OCT     C2 1494  12.107   9.946   6.749 -0.1481  0.2026  0.0743
50748OCT     C1 1495   9.430   4.049   3.278  0.0611 -0.2491  0.1428
50748OCT     C2 1496   9.723   4.311   3.540 -0.0738 -0.0312  0.0498
50749OCT     C1 1497  14.537  22.628  15.503 -0.1633  0.0700 -0.1336
50749OCT     C2 1498  14.963  22.404  15.420 -0.0517  0.0157  0.0097
50750OCT     C1 1499   1.179   4.796  22.707 -0.3767  0.2416  0.2673
50750OCT     C2 1500   1.496   4.457  22.868  0.2200 -0.3356 -0.2046
50751OCT     C1 1501  15.796   5.668  15.859  0.2546  0.1336 -0.1265
50751OCT     C2 1502  15.730   5.298  16.144  0.0071 -0.2414 -0.1282
50752OCT     C1 1503  15.467   8.696  22.549  0.0153  0.2084 -0.0833
50752OCT     C2 1504  15.330   8.318  22.282  0.0627  0.0314  0.2440
50753OCT     C1 1505  12.237  22.997  23.580 -0.0306  0.0631 -0.0145
50753OCT     C2 1506  12.021  22.674  23.388  0.3146 -0.1747  0.1445
50754OCT     C1 1507  20.519   7.980   7.489 -0.4372 -0.3213  0.2731
50754OCT     C2 1508  20.691   7.755   7.922 -0.2209 -0.1467 -0.1318
50755OCT     C1 1509  22.214   0.841   7.442  0.1257 -0.1996 -0.2493
50755OCT     C2 1510  21.863   0.718   7.107  0.3351 -0.1012  0.0287
50756OCT     C1 1511   4.495   5.404  17.515  0.0772 -0.0505 -0.0135
50756OCT     C2 1512   4.958   5.489  17.494 -0.2888 -0.1310 -0.0092
50757OCT     C1 1513   1.632   7.032   3.182 -0.1643  0.1758  0.1763
50757OCT     C2 1514   1.777   7.325   3.528 -0.1685  0.2120  0.2264
50758OCT     C1 1515   8.542  19.319   4.144  0.0715 -0.1880 -0.0920
50758OCT     C2 1516   8.729  19.698   4.404 -0.2355 -0.1770 -0.0497
50759OCT     C1 1517   9.051  13.639  11.876  0.1774  0.1404  0.1823
50759OCT     C2 1518   8.948  14.006  12.110 -0.0210  0.0791  0.0891
50760OCT     C1 1519  18.963  18.859   0.420 -0.1742  0.2046 -0.2739
50760OCT     C2 1520  18.595  18.918   0.640 -0.2394  0.1483 -0.1139
50761OCT     C1 1521  19.292  15.514  20.478  0.1444  0.5639 -0.1213
50761OCT     C2 1522  19.347  15.880  20.762 -0.0420 -0.2704 -0.2559
50762OCT     C1 1523  10.814  20.091  20.280  0.2208  0.6345 -0.1785
50762OCT     C2 1524  10.871  20.570  20.081 -0.5063  0.0349  0.0657
50763OCT     C1 1525   3.572   3.735   9.064  0.0775  0.0668  0.0064
50763OCT     C2 1526   3.977   3.629   9.285 -0.0070 -0.1089 -0.1214
50764OCT     C1 1527   5.707   9.635  20.537  0.1895  0.0522 -0.5129
50764OCT     C2 1528   6.108   9.759  20.598  0.0603 -0.1043  0.0830
50765OCT     C1 1529  21.808   5.524  10.459  0.3227 -0.3862  0.1340
50765OCT     C2 1530  21.817   5.083  10.331  0.0077  0.1320  0.1079
50766OCT     C1 1531  22.930  12.627  19.466  0.0671  0.2602 -0.4849
50766OCT     C2 1532  23.417  12.559  19.465  0.1422  0.1312  0.0852
50767OCT     C1 1533  14.996  15.634  22.094 -0.0795 -0.0164 -0.1540
50767OCT     C2 1534  14.972  15.378  22.505  0.1944  0.2122 -0.0146
50768OCT     C1 1535  16.150   4.490   1.352 -0.0591  0.1290  0.3867
50768OCT     C2 1536  16.543   4.257   1.445 -0.0492 -0.0618 -0.0356
50769OCT     C1 1537   1.293   6.749  12.750  0.1118  0.1658  0.0735
50769OCT     C2 1538   1.217   6.619  13.180 -0.2445  0.0517  0.1705
50770OCT     C1 1539  17.934  22.594   1.185  0.0253  0.3024 -0.0355
50770OCT     C2 1540  17.559  22.336   1.481  0.1640 -0.2095  0.0245
50771OCT     C1 1541  16.674  15.876  23.435 -0.0454 -0.0372 -0.2244
50771OCT     C2 1542  16.828  15.783   0.132  0.2897 -0.0796 -0.2418
50772OCT     C1 1543   7.191  12.061   8.962 -0.0122  0.0946 -0.1874
50772OCT     C2 1544   7.087  12.402   8.707 -0.3560 -0.0544 -0.2293
50773OCT     C1 1545  19.055  11.275  14.987 -0.1006 -0.1365 -0.0072
50773OCT     C2 1546  18.948  10.986  15.364  0.0115 -0.3001 -0.1097
50774OCT     C1 1547   5.694   6.827  22.252  0.3440 -0.2776 -0.1566
50774OCT     C2 1548   5.722   6.877  21.817  0.1859 -0.0631 -0.0046
50775OCT     C1 1549  23.604  18.993   1.683 -0.0483  0.2304  0.1263
50775OCT     C2 1550   0.254  19.199   1.604 -0.3839 -0.0543 -0.1416
50776OCT     C1 1551   6.855  13.629  20.195 -0.1794 -0.4530 -0.0969
50776OCT     C2 1552   6.664  14.023  20.038 -0.1128 -0.1640  0.1263
50777OCT     C1 1553   0.433  18.398  20.897 -0.4392 -0.0762 -0.0491
50777OCT     C2 1554   0.521  18.039  21.213  0.1317  0.2384  0.0253
50778OCT     C1 1555   5.840  19.382  14.165 -0.0336  0.1254  0.2278
50778OCT     C2 1556   6.219  19.420  14.332 -0.0342  0.1912 -0.0002
50779OCT     C1 1557  10.509  16.887  17.526 -0.1705 -0.2489  0.1459
50779OCT     C2 1558  10.800  16.867  17.201  0.3349 -0.1109  0.0750
50780OCT     C1 1559   2.114  16.572   1.965  0.3467 -0.3153  0.1235
50780OCT     C2 1560   1.999  16.129   1.965  0.1130  0.3462  0.0693
50781OCT     C1 1561   8.092  21.600  17.920 -0.3850  0.4663  0.2513
50781OCT     C2 1562   8.243  21.256  18.223 -0.0988  0.0031  0.2220
50782OCT     C1 1563  19.010  16.780  10.964  0.0962 -0.0344 -0.1221
50782OCT     C2 1564  18.577  16.875  11.109 -0.0415  0.1724  0.0414
50783OCT     C1 1565  14.265  14.303   7.720  0.4981 -0.0725  0.0750
50783OCT     C2 1566  14.330  14.220   8.130 -0.1405 -0.0270 -0.3453
50784OCT     C1 1567   1.163   7.298  22.199 -0.0369 -0.1403 -0.1633
50784OCT     C2 1568   1.579   7.406  22.416 -0.0711 -0.0257 -0.0409
50785OCT     C1 1569  14.629  13.958  17.007 -0.1595 -0.0830  0.1050
50785OCT     C2 1570  14.742  14.383  16.812 -0.1349 -0.3034 -0.0387
50786OCT     C1 1571  18.492  14.172  16.515  0.0229  0.2781 -0.3087
50786OCT     C2 1572  18.744  14.448  16.247 -0.1714 -0.1062 -0.0053
50787OCT     C1 1573   6.112  13.078   5.849  0.2095  0.1280  0.0939
50787OCT     C2 1574   6.392  13.212   6.210  0.0119 -0.1945 -0.2396
50788OCT     C1 1575  15.708   9.276   3.562 -0.3246 -0.1465 -0.3834
50788OCT     C2 1576  15.358   9.478   3.308  0.0115  0.1291  0.1085
50789OCT     C1 1577  17.623   6.564   8.295 -0.2586 -0.0024 -0.1531
50789OCT     C2 1578  17.787   6.868   8.570  0.1896 -0.1680 -0.1744
50790OCT     C1 1579   3.360  21.632  13.233  0.1542 -0.0907  0.2121
50790OCT     C2 1580   3.439  22.036  13.334 -0.1065  0.1740 -0.1220
50791OCT     C1 1581   6.357  16.846   1.304  0.0832 -0.2808  0.2956
50791OCT     C2 1582   6.166  17.232   1.427 -0.2336 -0.4677  0.2104
50792OCT     C1 1583   3.322  10.622   4.397 -0.1560 -0.2048 -0.1626
50792OCT     C2 1584   3.537  10.172   4.443  0.1568 -0.0245  0.0703
50793OCT     C1 1585  11.963  13.515  12.364  0.4688 -0.4036 -0.4176
50793OCT     C2 1586  12.258  13.761  12.547  0.1870 -0.2237 -0.0789
50794OCT     C1 1587  12.032  14.772   3.594 -0.2685  0.1150  0.0276
50794OCT     C2 1588  11.706  14.488   3.859 -0.0443 -0.1242 -0.0598
50795OCT     C1 1589   4.618  17.686  23.563  0.0715  0.2038  0.2245
50795OCT     C2 1590   4.509  17.955  23.258  0.6678 -0.0525  0.2012
50796OCT     C1 1591   2.038  19.510  19.071  0.6154 -0.2816 -0.2691
50796OCT     C2 1592   1.829  19.945  19.234  0.0670 -0.1347  0.1090
50797OCT     C1 1593  14.154  20.958  19.803  0.0802 -0.1965  0.2016
50797OCT     C2 1594  14.418  20.624  19.661  0.2460  0.0661 -0.2782
50798OCT     C1 1595  12.923  20.140  13.163 -0.4010  0.0755 -0.1790
50798OCT     C2 1596  12.970  19.797  12.800  0.2966  0.1768 -0.1197
50799OCT     C1 1597  11.923  13.810  18.283 -0.0638  0.1224  0.4381
50799OCT     C2 1598  12.258  13.991  18.053  0.0203  0.2304 -0.1786
50800OCT     C1 1599  21.591   5.764  15.361  0.0736  0.1912 -0.1622
50800OCT     C2 1600  21.475   5.328  15.442 -0.0725 -0.2089  0.1019
50801OCT     C1 1601   3.683   5.639   7.948  0.1398  0.0787  0.0296
50801OCT     C2 1602   3.684   6.022   8.242 -0.0309  0.1044 -0.0562
50802OCT     C1 1603   1.764  19.492   3.895  0.0753 -0.0648 -0.1902
50802OCT     C2 1604   1.517  19.619   3.516 -0.1466  0.2466 -0.0815
50803OCT     C1 1605   9.457   2.301   7.024  0.0932  0.0355 -0.3926
50803OCT     C2 1606   9.764   2.203   7.405  0.1625 -0.0463  0.0727
50804OCT     C1 1607   3.205  10.879   0.423 -0.2801 -0.0489  0.1146
50804OCT     C2 1608   3.177  10.525   0.171  0.0029  0.1824 -0.2018
50805OCT     C1 1609  13.043  21.871   5.814 -0.0680  0.2551 -0.0708
50805OCT     C2 1610  12.786  21.625   6.088 -0.0071 -0.0455  0.3633
50806OCT     C1 1611  12.996   3.765  19.166  0.1334 -0.1186  0.1396
50806OCT     C2 1612  12.874   3.526  18.786 -0.3143  0.2080  0.0043
50807OCT     C1 1613  10.805  21.269  21.520 -0.4047 -0.0524  0.5181
50807OCT     C2 1614  10.709  20.893  21.271  0.0505  0.3109 -0.0443
50808OCT     C1 1615   5.072  18.616  18.683  0.3538 -0.2018  0.0189
50808OCT     C2 1616   4.766  18.977  18.676 -0.0414  0.1676 -0.1367
50809OCT     C1 1617  20.681   4.363  19.467  0.2221 -0.1491 -0.3223
50809OCT     C2 1618  20.351   4.095  19.609  0.1261  0.0389  0.0732
50810OCT     C1 1619  22.178   8.017  20.065 -0.0251 -0.1189  0.0992
50810OCT     C2 1620  21.796   7.805  20.316 -0.1809 -0.1970 -0.1540
50811OCT     C1 1621   9.835  18.716   1.167  0.1388  0.3909 -0.1091
50811OCT     C2 1622  10.019  18.905   1.542  0.2432  0.1719 -0.1551
50812OCT     C1 1623   0.927  16.205   3.339  0.1458 -0.3081  0.0368
50812OCT     C2 1624   0.543  15.909   3.296 -0.1589 -0.0984  0.1477
50813OCT     C1 1625  19.186   5.220  12.294  0.0405 -0.0736  0.2348
50813OCT     C2 1626  19.371   5.100  11.910 -0.0684  0.2819  0.0611
50814OCT     C1 1627  13.559  17.016  18.820 -0.0384  0.3323 -0.1984
50814OCT     C2 1628  13.723  16.908  18.420  0.0897 -0.0868  0.2904
50815OCT     C1 1629   1.972  18.015  14.494 -0.0292  0.1068 -0.2175
50815OCT     C2 1630   1.526  18.165  14.565  0.0888 -0.1270 -0.0422
50816OCT     C1 1631  10.010  19.582  11.208 -0.0928  0.0998  0.1232
50816OCT     C2 1632  10.351  19.588  11.524  0.1195  0.0559 -0.2656
50817OCT     C1 1633  12.915   6.209  14.657 -0.1928  0.1582  0.2117
50817OCT     C2 1634  13.037   5.715  14.692 -0.0948 -0.0003  0.0526
50818OCT     C1 1635  17.781  13.619   7.451 -0.2452  0.1771 -0.0953
50818OCT     C2 1636  17.894  13.280   7.124  0.0691  0.2573  0.3028
50819OCT     C1 1637   0.612  22.489  16.685  0.1910  0.2374 -0.3119
50819OCT     C2 1638   0.595  22.927  16.776  0.0249 -0.2181  0.1016
50820OCT     C1 1639  17.320   5.745  23.293  0.1002 -0.2484 -0.3352
50820OCT     C2 1640  16.890   5.867  23.287  0.0439  0.0868  0.1806
50821OCT     C1 1641  17.099  17.070  19.246  0.0729 -0.1236  0.2430
50821OCT     C2 1642  17.065  17.500  19.045  0.3772  0.0870 -0.3489
50822OCT     C1 1643  22.188   7.400   9.309 -0.2322  0.3485  0.0187
50822OCT     C2 1644  21.850   7.204   9.579 -0.1400  0.1171  0.0658
50823OCT     C1 1645   5.082  21.321  13.429 -0.1486 -0.0626  0.0495
50823OCT     C2 1646   5.427  21.260  13.721  0.1540 -0.1145  0.3741
50824OCT     C1 1647  12.929  12.413  14.605  0.0899  0.0456  0.0834
50824OCT     C2 1648  12.691  12.128  14.338  0.3413  0.1449  0.1135
50825OCT     C1 1649  17.521  13.731  16.323  0.4260 -0.1589 -0.2130
50825OCT     C2 1650  17.100  13.658  16.141 -0.2809 -0.0119 -0.0633
50826OCT     C1 1651  13.597   6.739   5.981  0.0973 -0.0864  0.1914
50826OCT     C2 1652  13.794   6.910   6.391  0.3790  0.1962  0.2090
50827OCT     C1 1653  16.929  12.101  17.964 -0.1460 -0.2680  0.2184
50827OCT     C2 1654  16.818  11.709  18.214 -0.0044  0.0990 -0.0469
50828OCT     C1 1655   8.472   9.454  20.887  0.1432 -0.0794 -0.1735
50828OCT     C2 1656   8.440   9.198  20.559 -0.1228 -0.1351  0.0011
50829OCT     C1 1657  10.084  21.541  16.701 -0.2492  0.0593 -0.2678
50829OCT     C2 1658  10.224  21.974  16.690 -0.5669 -0.0750 -0.2384
50830OCT     C1 1659   0.174  19.600   4.455  0.1055 -0.0222  0.3957
50830OCT     C2 1660   0.529  19.311   4.335  0.0354  0.1311 -0.1102
50831OCT     C1 1661   8.612  14.120  15.669  0.1571 -0.2240 -0.1524
50831OCT     C2 1662   8.438  13.715  15.707  0.0223  0.3399 -0.3016
50832OCT     C1 1663  16.761  11.046   6.257  0.1399  0.4533 -0.0739
50832OCT     C2 1664  16.765  10.663   5.973  0.2067 -0.0639  0.2438
50833OCT     C1 1665  17.026   6.658  17.205  0.0030 -0.0256 -0.3840
50833OCT     C2 1666  17.407   6.793  16.930 -0.2601  0.2558  0.1642
50834OCT     C1 1667   9.067  13.445  18.972  0.2383  0.2170 -0.0660
50834OCT     C2 1668   9.149  13.834  19.039 -0.1320  0.0757  0.2546
50835OCT     C1 1669  10.104  12.054   9.914  0.0731  0.1418  0.3958
50835OCT     C2 1670   9.732  11.790   9.740 -0.0224 -0.2519 -0.1090
50836OCT     C1 1671  13.758  20.529  15.122  0.1226 -0.0487 -0.0991
50836OCT     C2 1672  13.631  20.832  14.797 -0.0885  0.2338  0.1911
50837OCT     C1 1673  23.590  22.206   3.267 -0.0050  0.0994  0.3857
50837OCT     C2 1674  23.284  21.927   3.173  0.0037 -0.0827 -0.4315
50838OCT     C1 1675   5.029  20.969   7.824  0.2202 -0.0789 -0.1326
50838OCT     C2 1676   5.092  20.639   7.507  0.2113 -0.1382  0.2884
50839OCT     C1 1677   3.445   5.890   0.746  0.1527 -0.1322  0.3010
50839OCT     C2 1678   3.123   6.273   0.818  0.0610  0.0035 -0.0219
50840OCT     C1 1679   4.013   0.039   2.264 -0.2612  0.2168 -0.0532
50840OCT     C2 1680   4.353  23.434   2.280 -0.1105 -0.0389  0.1611
50841OCT     C1 1681  10.843  22.699   3.301  0.0836 -0.2575  0.0798
50841OCT     C2 1682  10.557  22.554   3.658 -0.0862  0.1488 -0.5385
50842OCT     C1 1683   0.145  23.595  14.285  0.4345 -0.0036 -0.3038
50842OCT     C2 1684  23.561  23.270  14.225 -0.2871  0.1031  0.0240
50843OCT     C1 1685  20.751  13.982  16.623 -0.0028  0.2996  0.1139
50843OCT     C2 1686  20.441  13.996  16.325 -0.1595 -0.6081 -0.1812
50844OCT     C1 1687   4.430   3.773  17.620  0.0425 -0.0548  0.0880
50844OCT     C2 1688   4.651   3.994  17.994 -0.0598  0.0320 -0.0079
50845OCT     C1 1689  17.009   4.467  18.140  0.2108  0.1504 -0.0481
50845OCT     C2 1690  16.934   4.889  18.035 -0.0127  0.3275  0.0455
50846OCT     C1 1691  11.291  19.689  14.061  0.5365  0.1963 -0.1354
50846OCT     C2 1692  11.662  19.583  13.717 -0.0617 -0.0357  0.2804
50847OCT     C1 1693  12.147  18.250  13.801  0.3611  0.1333 -0.0552
50847OCT     C2 1694  12.509  18.558  13.754  0.0030  0.1926 -0.5987
50848OCT     C1 1695   6.692  15.716  16.070 -0.1283 -0.1635  0.1213
50848OCT     C2 1696   6.555  15.398  15.715 -0.1067  0.2469 -0.3886
50849OCT     C1 1697   1.275  15.469  14.056 -0.3597  0.0739  0.3094
50849OCT     C2 1698   1.213  15.794  14.380 -0.0579 -0.0701 -0.1428
50850OCT     C1 1699  15.722   0.359  13.210 -0.0906  0.2529  0.3792
50850OCT     C2 1700  15.750   0.142  12.774 -0.1744  0.0373  0.1735
50851OCT     C1 1701   0.092  18.030  20.560  0.1756  0.0266 -0.1649
50851OCT     C2 1702   0.371  17.754  20.828  0.0393 -0.0606 -0.2772
50852OCT     C1 1703  13.429   2.455   3.689 -0.0645  0.0263 -0.1769
50852OCT     C2 1704  13.155   2.707   3.382 -0.1199 -0.1043 -0.1983
50853OCT     C1 1705   2.028   5.137   0.766 -0.2626 -0.0472  0.2168
50853OCT     C2 1706   2.088   5.414   0.424  0.1837  0.0690  0.0818
50854OCT     C1 1707   6.641  15.275  18.303  0.0149  0.0988  0.0093
50854OCT     C2 1708   6.322  15.571  18.277  0.0442  0.0693 -0.3315
50855OCT     C1 1709   7.129   2.775   5.704 -0.1768 -0.0407 -0.3360
50855OCT     C2 1710   6.918   2.579   5.315  0.4369 -0.4960 -0.0823
50856OCT     C1 1711   4.995  13.132  15.340 -0.2458  0.2228 -0.1028
50856OCT     C2 1712   5.197  13.330  15.710 -0.1567  0.0760 -0.3352
50857OCT     C1 1713   8.502  13.969   1.775 -0.1583  0.1220 -0.1532
50857OCT     C2 1714   8.949  14.070   1.788  0.2850 -0.1169  0.0780
50858OCT     C1 1715  14.397  18.256  16.588  0.0211 -0.3247 -0.1795
50858OCT     C2 1716  14.188  18.613  16.803 -0.2567  0.0365  0.2109
50859OCT     C1 1717  16.450  16.029  10.741  0.2062  0.0298  0.0245
50859OCT     C2 1718  16.508  15.935  11.217 -0.1419  0.0157 -0.0311
50860OCT     C1 1719   4.573  11.551   2.144  0.2234  0.1501  0.2148
50860OCT     C2 1720   4.125  11.453   2.018 -0.0543 -0.3157  0.0735
50861OCT     C1 1721   9.060  10.934   2.300 -0.2011 -0.0818 -0.1820
50861OCT     C2 1722   8.831  11.219   2.578 -0.1921 -0.2328  0.2943
50862OCT     C1 1723   2.181   2.279  19.013 -0.0830  0.1629 -0.0375
50862OCT     C2 1724   2.592   2.211  18.840 -0.0237  0.0333 -0.2963
50863OCT     C1 1725  12.864  13.603   3.688  0.3728  0.0394  0.1329
50863OCT     C2 1726  12.564  13.966   3.493 -0.0687 -0.1010  0.1263
50864OCT     C1 1727  15.940   1.870  14.031 -0.2149 -0.2951  0.1353
50864OCT     C2 1728  15.492   1.933  13.885 -0.1331 -0.0291  0.4016
50865OCT     C1 1729  14.467  10.587   8.339 -0.1355 -0.0130 -0.0348
50865OCT     C2 1730  14.328  10.719   8.804  0.0175  0.3415 -0.5463
50866OCT     C1 1731  12.896  10.437   4.481 -0.1848 -0.0361 -0.0341
50866OCT     C2 1732  13.147  10.533   4.827  0.1086 -0.2715 -0.0317
50867OCT     C1 1733  14.533  12.298   7.731  0.1339  0.2404  0.0831
50867OCT     C2 1734  14.566  12.734   7.763 -0.0864  0.0225  0.0544
50868OCT     C1 1735  20.135   5.091  22.739 -0.3111  0.0439  0.1537
50868OCT     C2 1736  19.971   5.453  22.995  0.1222  0.1148 -0.2354
50869OCT     C1 1737   6.337   5.485  23.472  0.5244 -0.0235  0.0426
50869OCT     C2 1738   6.499   5.527  23.022 -0.2914  0.1913 -0.3269
50870OCT     C1 1739   6.389  18.779   8.122 -0.0199 -0.1468 -0.0917
50870OCT     C2 1740   6.753  18.706   7.863  0.1101 -0.2793 -0.2166
50871OCT     C1 1741   2.936   8.912  13.379 -0.0893 -0.1752  0.2466
50871OCT     C2 1742   3.262   9.214  13.496  0.3046 -0.1427  0.4915
50872OCT     C1 1743  10.338  11.404  13.549  0.3422 -0.0417 -0.1727
50872OCT     C2 1744  10.381  11.470  13.090 -0.1069 -0.0797 -0.0700
50873OCT     C1 1745  10.012  15.470  16.727  0.1001 -0.1551  0.2935
50873OCT     C2 1746   9.673  15.102  16.700  0.2422  0.2292  0.0007
50874OCT     C1 1747  19.133   6.081   4.389 -0.4436 -0.2058  0.1239
50874OCT     C2 1748  18.683   5.998   4.341  0.1640  0.0885  0.2227
50875OCT     C1 1749   2.463  22.391  15.379 -0.0517  0.3664  0.1485
50875OCT     C2 1750   2.826  22.710  15.400  0.1185  0.1773 -0.3030
50876OCT     C1 1751  18.828   8.068  14.992  0.0038  0.2342  0.4078
50876OCT     C2 1752  18.469   8.107  15.317 -0.3964 -0.1095  0.2116
50877OCT     C1 1753   0.451  16.212  12.030 -0.1000  0.1431 -0.0716
50877OCT     C2 1754   0.622  16.013  12.394  0.2290  0.2888 -0.2581
50878OCT     C1 1755   5.501   5.816  23.113  0.0414 -0.1548  0.2856
50878OCT     C2 1756   5.933   5.682  23.166  0.0258 -0.2068  0.1200
50879OCT     C1 1757   4.541   8.126   0.306 -0.0333 -0.1609  0.0897
50879OCT     C2 1758   4.814   7.784   0.486  0.1589  0.4648 -0.1189
50880OCT     C1 1759  19.291  14.745   4.130  0.2178 -0.2563 -0.1735
50880OCT     C2 1760  18.913  14.518   3.985 -0.2468 -0.1497  0.0218
50881OCT     C1 1761  20.654  15.448  23.204  0.0414  0.0743 -0.2792
50881OCT     C2 1762  20.651  15.167  22.821  0.0021 -0.0367  0.3558
50882OCT     C1 1763  17.911   2.224   6.929  0.1352  0.0108 -0.3149
50882OCT     C2 1764  18.335   2.024   6.773 -0.0992 -0.1706 -0.0208
50883OCT     C1 1765   3.475   5.232  11.120  0.2006  0.1190 -0.0506
50883OCT     C2 1766   3.387   4.805  11.063 -0.0709  0.1120 -0.0640
50884OCT     C1 1767   2.753  16.935  15.498  0.0635  0.1316 -0.0924
50884OCT     C2 1768   2.612  16.486  15.375  0.2783  0.1602 -0.0025
50885OCT     C1 1769  17.193  14.577   6.112 -0.2383  0.1338  0.1276
50885OCT     C2 1770  17.707  14.545   6.147  0.3802  0.1562 -0.0601
50886OCT     C1 1771   6.473  13.492  10.613  0.0365 -0.0960  0.0283
50886OCT     C2 1772   6.842  13.707  10.773  0.1038 -0.3368 -0.0962
50887OCT     C1 1773  18.082  14.507  13.580 -0.1747  0.3097  0.0354
50887OCT     C2 1774  17.800  14.200  13.393  0.1202  0.2431  0.1644
50888OCT     C1 1775  18.256  15.912  10.250  0.0854 -0.0898  0.0096
50888OCT     C2 1776  18.068  16.171   9.858 -0.1002 -0.1698  0.0671
50889OCT     C1 1777   2.304   8.790  19.406  0.0335 -0.1506 -0.1767
50889OCT     C2 1778   2.467   8.936  19.786 -0.2332 -0.1169 -0.3800
50890OCT     C1 1779  13.376  15.633   7.331 -0.3479  0.3120  0.0091
50890OCT     C2 1780  13.020  15.951   7.298 -0.1197  0.0324  0.1179
50891OCT     C1 1781   4.732  10.958   8.744 -0.1983 -0.0886 -0.2395
50891OCT     C2 1782   4.924  11.189   8.380  0.2144  0.1939 -0.2972
50892OCT     C1 1783   1.906  18.372   0.883  0.0097 -0.0476 -0.3606
50892OCT     C2 1784   1.911  18.005   0.650  0.1100 -0.4418 -0.2488
50893OCT     C1 1785  10.593  12.520   6.104  0.3330  0.1135 -0.3649
50893OCT     C2 1786  10.841  12.305   5.844  0.1428 -0.1648 -0.1581
50894OCT     C1 1787   2.624  14.618   0.277  0.1281  0.1185  0.0831
50894OCT     C2 1788   2.386  14.270   0.114  0.2400  0.0545  0.0952
50895OCT     C1 1789  17.919  11.261  22.670  0.3372  0.1083 -0.3597
50895OCT     C2 1790  18.279  11.433  22.706 -0.1166  0.0433 -0.1654
50896OCT     C1 1791   1.694   4.529  21.542 -0.0410 -0.0696  0.3595
50896OCT     C2 1792   1.840   4.333  21.166 -0.3668 -0.0483 -0.0063
50897OCT     C1 1793  22.148   0.400  11.780 -0.0687  0.1828  0.0223
50897OCT     C2 1794  22.325   0.029  11.946 -0.1664 -0.0939 -0.1592
50898OCT     C1 1795   8.165   4.746  21.974  0.3791  0.0848 -0.0478
50898OCT     C2 1796   8.224   5.195  22.100 -0.0866 -0.2182  0.3891
50899OCT     C1 1797  13.579  21.408  19.097  0.0379 -0.0829 -0.0116
50899OCT     C2 1798  13.747  21.831  19.185 -0.1004  0.0112  0.0920
50900OCT     C1 1799  10.945  22.766  22.316  0.1705  0.0540 -0.1182
50900OCT     C2 1800  11.168  22.484  22.657 -0.0424  0.1394 -0.3679
50901OCT     C1 1801   0.271   1.879   4.358  0.0083  0.1367  0.2130
50901OCT     C2 1802   0.081   2.175   4.662  0.0603 -0.0484 -0.3230
50902OCT     C1 1803  10.586  13.533  15.950 -0.0212 -0.2632 -0.2498
50902OCT     C2 1804  10.952  13.411  15.738  0.0567  0.2899  0.1012
50903OCT     C1 1805  17.509  20.594   9.082  0.0766 -0.1997 -0.4148
50903OCT     C2 1806  17.909  20.392   9.318  0.3172  0.0433 -0.1396
50904OCT     C1 1807  13.196   4.278   8.028 -0.3598  0.2205  0.0181
50904OCT     C2 1808  13.188   3.933   7.713  0.0451  0.0029  0.2895
50905OCT     C1 1809  13.843   3.929  20.200  0.1356 -0.1168  0.3452
50905OCT     C2 1810  13.812   4.266  20.532 -0.0950 -0.0229 -0.1485
50906OCT     C1 1811   0.048  13.860  21.045  0.0218 -0.0189  0.1117
50906OCT     C2 1812  23.505  13.962  20.645  0.2162  0.0191  0.0023
50907OCT     C1 1813  11.371  12.818   6.437  0.1949 -0.1277 -0.2026
50907OCT     C2 1814  11.255  12.422   6.192 -0.1564 -0.2790  0.3044
50908OCT     C1 1815  22.698  21.998  15.496  0.1543 -0.1593 -0.2097
50908OCT     C2 1816  23.167  21.984  15.389  0.1069  0.1801 -0.0817
50909OCT     C1 1817   5.272  22.984   2.644  0.1051  0.1031 -0.1855
50909OCT     C2 1818   5.598  22.701   2.705 -0.3467 -0.1014  0.1627
50910OCT     C1 1819  17.144   2.944   5.815  0.1039  0.1507  0.1014
50910OCT     C2 1820  17.496   3.058   5.521 -0.1325 -0.1066  0.2816
50911OCT     C1 1821  19.180  19.139   0.774 -0.2226  0.0947 -0.0237
50911OCT     C2 1822  18.849  19.429   0.835  0.0907  0.4627 -0.1288
50912OCT     C1 1823   1.256  18.007  19.195 -0.1197  0.0861 -0.0477
50912OCT     C2 1824   1.189  17.886  19.585 -0.4121  0.1792  0.1065
50913OCT     C1 1825  10.775  20.061  10.811 -0.0822 -0.2315  0.1039
50913OCT     C2 1826  10.464  20.433  10.733 -0.0687 -0.4065 -0.3098
50914OCT     C1 1827  14.009  19.928  12.977  0.0458  0.2461  0.1192
50914OCT     C2 1828  14.456  19.915  12.835  0.2379 -0.1084 -0.3352
50915OCT     C1 1829   5.487   7.204  12.770 -0.2144 -0.0537 -0.1591
50915OCT     C2 1830   5.691   7.569  12.641  0.0269 -0.3549  0.0071
50916OCT     C1 1831  13.190   8.043  16.187  0.0674  0.0271 -0.2492
50916OCT     C2 1832  12.804   8.250  16.409 -0.2564  0.3104  0.3247
50917OCT     C1 1833  21.428  12.981   1.474 -0.3268 -0.1993  0.2703
50917OCT     C2 1834  21.163  12.758   1.221  0.0461 -0.0714  0.1642
50918OCT     C1 1835   9.729  20.693  14.627 -0.3783 -0.1117 -0.0436
50918OCT     C2 1836  10.188  20.488  14.610  0.2547  0.1313 -0.1936
50919OCT     C1 1837  11.692   0.839  10.967 -0.2020  0.2969  0.1171
50919OCT     C2 1838  11.941   1.188  11.220  0.1975  0.0451 -0.1713
50920OCT     C1 1839  15.190   8.907   0.723 -0.1499  0.0339 -0.3021
50920OCT     C2 1840  15.536   8.781   0.513  0.2981  0.2725  0.0596
50921OCT     C1 1841   2.376  13.981   6.014  0.1056 -0.0361 -0.2128
50921OCT     C2 1842   2.813  14.255   6.010 -0.0341 -0.1304  0.0251
50922OCT     C1 1843  17.632   4.749  19.944  0.1550  0.4314 -0.1346
50922OCT     C2 1844  17.243   4.465  20.131  0.0258  0.2893  0.3636
50923OCT     C1 1845  15.443  20.778  20.838 -0.0982  0.2253 -0.1893
50923OCT     C2 1846  15.305  21.234  20.668 -0.1590  0.1111 -0.2613
50924OCT     C1 1847   5.364   6.389   0.009  0.1616 -0.3652  0.2596
50924OCT     C2 1848   5.577   5.945   0.173  0.2015 -0.3538  0.2318
50925OCT     C1 1849   0.077  10.508   8.944  0.3947  0.0583 -0.0738
50925OCT     C2 1850   0.440  10.585   8.668  0.1393  0.1517 -0.3633
50926OCT     C1 1851  23.265  16.428   7.392 -0.4826  0.2959 -0.0364
50926OCT     C2 1852  23.454  16.779   7.713  0.1517  0.2439  0.1834
50927OCT     C1 1853   6.282  20.242  22.614  0.1739  0.0295 -0.1315
50927OCT     C2 1854   5.948  19.861  22.524  0.0361 -0.0534  0.3083
50928OCT     C1 1855   6.803  14.809  23.635  0.0684 -0.0937  0.0932
50928OCT     C2 1856   7.143  15.164  23.563 -0.1162 -0.3012 -0.0649
50929OCT     C1 1857   7.601  20.126   9.249 -0.2386  0.1248 -0.2440
50929OCT     C2 1858   7.623  19.795   8.920 -0.0545 -0.1292  0.2069
50930OCT     C1 1859  21.361   0.901  19.038  0.0554  0.1622 -0.1611
50930OCT     C2 1860  21.567   0.736  18.694  0.1394 -0.3602  0.0470
50931OCT     C1 1861   1.648   8.514  15.351  0.2186  0.3538 -0.2641
50931OCT     C2 1862   1.512   8.579  15.810 -0.2876 -0.0932  0.0577
50932OCT     C1 1863   8.448  21.742  22.555  0.1236  0.2202 -0.0090
50932OCT     C2 1864   8.403  22.170  22.437  0.1267 -0.0913  0.2638
50933OCT     C1 1865   2.615  22.499  18.373  0.2096 -0.2339  0.0840
50933OCT     C2 1866   2.939  22.306  18.711 -0.0970 -0.1975 -0.2831
50934OCT     C1 1867  21.097  17.848  16.368  0.1741  0.1425 -0.2312
50934OCT     C2 1868  20.763  17.576  16.625 -0.0349  0.1368  0.0790
50935OCT     C1 1869   4.887  12.302  13.194  0.0251  0.1962 -0.1594
50935OCT     C2 1870   4.893  12.012  12.832  0.1519 -0.4207  0.2027
50936OCT     C1 1871  12.401  18.758  19.188 -0.0830 -0.1806  0.0648
50936OCT     C2 1872  12.284  18.999  18.796  0.1842  0.0442 -0.2113
50937OCT     C1 1873   8.797  15.569   3.376 -0.1156 -0.0281  0.0074
50937OCT     C2 1874   8.706  15.999   3.630  0.4277 -0.2006  0.2632
50938OCT     C1 1875  20.430   5.888  15.468  0.1792  0.3728  0.0455
50938OCT     C2 1876  20.102   5.562  15.422  0.3047 -0.0044 -0.0371
50939OCT     C1 1877   9.988  14.894   1.534  0.0126 -0.2430  0.0919
50939OCT     C2 1878  10.136  14.827   1.948  0.3114 -0.2121  0.0951
50940OCT     C1 1879  10.242   6.071  18.310 -0.3378  0.2777 -0.1040
50940OCT     C2 1880  10.589   5.877  18.491 -0.2559  0.3802 -0.0474
50941OCT     C1 1881  22.143   1.084   5.037 -0.0702 -0.4290  0.1859
50941OCT     C2 1882  21.862   0.912   5.323  0.1490 -0.1214  0.0742
50942OCT     C1 1883   5.945  15.961  21.624 -0.2840 -0.1576 -0.1034
50942OCT     C2 1884   6.162  16.355  21.602  0.0028  0.0380 -0.0279
50943OCT     C1 1885  18.244  16.920  20.224  0.0264 -0.4640 -0.2149
50943OCT     C2 1886  17.773  16.964  20.376  0.0835 -0.2137  0.1994
50944OCT     C1 1887   7.158  13.089   6.940 -0.0701 -0.2327  0.2505
50944OCT     C2 1888   7.108  12.845   6.552  0.0784 -0.1237 -0.0118
50945OCT     C1 1889  18.886  15.652  22.869 -0.0059 -0.0176  0.0594
50945OCT     C2 1890  18.837  15.555  23.336  0.0854  0.5989  0.1628
50946OCT     C1 1891   2.216   8.459  13.892  0.2079 -0.4004  0.3392
50946OCT     C2 1892   2.213   8.785  14.218  0.0432  0.2108  0.0277
50947OCT     C1 1893  13.270  13.621  23.522 -0.0962  0.0888 -0.2197
50947OCT     C2 1894  13.762  13.649  23.449 -0.3452 -0.1682 -0.1146
50948OCT     C1 1895   1.821   7.960  15.043 -0.0269 -0.1658 -0.3215
50948OCT     C2 1896   1.922   7.610  14.834  0.0526  0.0922  0.2242
50949OCT     C1 1897  21.343  16.738   4.060  0.0229  0.1111  0.2585
50949OCT     C2 1898  21.274  16.308   3.943  0.2346  0.0989 -0.3973
50950OCT     C1 1899   9.795  12.452  11.780 -0.0121 -0.1899  0.5930
50950OCT     C2 1900  10.155  12.400  12.064 -0.2341 -0.2475 -0.3332
50951OCT     C1 1901  21.500  21.593   0.241  0.2201 -0.0305 -0.4290
50951OCT     C2 1902  21.329  21.936  23.646 -0.1808 -0.0109  0.1281
50952OCT     C1 1903  13.283  20.996  17.648  0.0372  0.2690 -0.3392
50952OCT     C2 1904  12.927  20.824  17.811 -0.2206 -0.2844 -0.1381
50953OCT     C1 1905   9.813   5.608  18.132 -0.1631 -0.1343  0.3206
50953OCT     C2 1906  10.175   5.534  18.373  0.2273  0.2346  0.0365
50954OCT     C1 1907   8.043   7.826  21.503 -0.2535  0.1229 -0.1948
50954OCT     C2 1908   8.156   7.762  21.953  0.1294  0.3708 -0.1882
50955OCT     C1 1909  23.140  18.444   4.772 -0.4086  0.4246  0.1365
50955OCT     C2 1910  23.493  18.678   4.725 -0.0534 -0.0193  0.1743
50956OCT     C1 1911  13.626   1.104   0.122  0.1680  0.0588 -0.1057
50956OCT     C2 1912  13.409   1.194  23.451 -0.3664  0.2482 -0.1639
50957OCT     C1 1913  17.501  14.187  10.607  0.1600  0.0937 -0.0627
50957OCT     C2 1914  17.796  13.922  10.870 -0.0859  0.1803 -0.1447
50958OCT     C1 1915  15.004  22.928   2.553 -0.1689 -0.1560 -0.1539
50958OCT     C2 1916  14.927  22.464   2.609 -0.1133  0.1320 -0.4336
50959OCT     C1 1917  17.109  13.749   8.211  0.2723  0.3220  0.2213
50959OCT     C2 1918  16.926  13.371   8.508 -0.1130 -0.2347  0.5004
50960OCT     C1 1919  14.824   1.285  18.094  0.2794  0.1718 -0.2163
50960OCT     C2 1920  14.982   0.871  18.197  0.1065  0.1140 -0.4009
50961OCT     C1 1921   3.079   1.073   1.952 -0.1416 -0.3406  0.2691
50961OCT     C2 1922   3.252   1.510   2.054  0.0779  0.2232  0.1533
50962OCT     C1 1923  18.809  11.061  21.933  0.2264 -0.2974 -0.1349
50962OCT     C2 1924  18.963  11.467  21.734 -0.1746 -0.0549 -0.2263
50963OCT     C1 1925   8.578   9.078  16.988 -0.2742  0.0473 -0.1836
50963OCT     C2 1926   8.555   8.601  16.807  0.1567 -0.4188 -0.0538
50964OCT     C1 1927  10.859  15.565   2.159  0.1485  0.2165 -0.2902
50964OCT     C2 1928  11.097  15.129   2.252 -0.0746  0.3107  0.0163
50965OCT     C1 1929   4.817   8.307   6.899  0.3969  0.2401  0.2350
50965OCT     C2 1930   4.879   8.665   7.205  0.1538  0.3257 -0.0780
50966OCT     C1 1931  13.116   5.285   7.981  0.2377  0.0792  0.0183
50966OCT     C2 1932  13.365   4.989   7.731  0.1773  0.5400 -0.1843
50967OCT     C1 1933   9.270  11.106  16.876  0.3913  0.3316  0.0989
50967OCT     C2 1934   9.539  11.250  17.214  0.2515  0.0509  0.1093
50968OCT     C1 1935   2.287   1.412  13.554 -0.2979 -0.2683  0.0683
50968OCT     C2 1936   2.170   1.860  13.565  0.1148 -0.1968 -0.1003
50969OCT     C1 1937   4.350  14.699   3.037 -0.1710  0.1442 -0.1698
50969OCT     C2 1938   4.295  14.364   3.350 -0.2507 -0.3580  0.0884
50970OCT     C1 1939   6.649  15.422  20.358 -0.0501  0.1680  0.0648
50970OCT     C2 1940   6.891  15.120  20.112 -0.1023  0.0611  0.0430
50971OCT     C1 1941   7.916  10.130  20.458  0.2382  0.2259 -0.0422
50971OCT     C2 1942   8.366   9.921  20.415  0.0140 -0.3196  0.1231
50972OCT     C1 1943   6.474   8.005   4.264 -0.2427  0.0136  0.3909
50972OCT     C2 1944   6.057   8.184   4.184 -0.0784  0.0247 -0.0034
50973OCT     C1 1945  14.169  13.508  15.721 -0.0165 -0.1430 -0.6294
50973OCT     C2 1946  14.332  13.066  15.710  0.0350 -0.0545 -0.0199
50974OCT     C1 1947   2.222  16.855  20.576  0.2218  0.0598 -0.1121
50974OCT     C2 1948   1.918  16.681  20.290 -0.1298  0.4067  0.0778
50975OCT     C1 1949  10.683  17.271   2.307 -0.4127 -0.3287 -0.1287
50975OCT     C2 1950  11.026  17.484   2.065  0.0029  0.1535  0.0205
50976OCT     C1 1951  12.108   9.530  17.658 -0.2618 -0.1680 -0.2176
50976OCT     C2 1952  12.138   9.240  17.991 -0.1067 -0.0403 -0.1146
50977OCT     C1 1953  18.896   9.779   5.752 -0.0186 -0.0176  0.0093
50977OCT     C2 1954  19.126   9.881   5.304  0.0002  0.0038 -0.3225
50978OCT     C1 1955   3.882   4.055  13.052 -0.1609 -0.1911  0.1288
50978OCT     C2 1956   3.918   4.334  13.434 -0.0511 -0.0011  0.3629
50979OCT     C1 1957   0.074  13.897  13.096  0.1086 -0.0215 -0.2134
50979OCT     C2 1958   0.111  13.488  13.038 -0.1944  0.2924 -0.2847
50980OCT     C1 1959   4.486  16.585   1.457  0.0795 -0.0927 -0.5555
50980OCT     C2 1960   4.679  16.443   1.082  0.3121  0.0225 -0.0451
50981OCT     C1 1961  11.414  13.885  10.279 -0.1499 -0.1075  0.2255
50981OCT     C2 1962  11.496  13.752  10.751 -0.3035 -0.0628  0.4058
50982OCT     C1 1963  11.375   4.024  19.449 -0.1782  0.4174  0.4621
50982OCT     C2 1964  11.647   3.749  19.132 -0.0182 -0.0772 -0.1244
50983OCT     C1 1965  16.959  20.558   9.151 -0.0021  0.2538 -0.2674
50983OCT     C2 1966  16.605  20.643   8.849  0.0925  0.1009 -0.0255
50984OCT     C1 1967   2.932  11.128  11.117  0.1401  0.1169  0.2469
50984OCT     C2 1968   3.122  10.772  10.853 -0.3987 -0.1140 -0.0784
50985OCT     C1 1969   9.464   0.069   7.867 -0.3343 -0.0997 -0.2336
50985OCT     C2 1970   9.668  23.406   7.955  0.2413 -0.2807  0.0041
50986OCT     C1 1971   9.177   3.044  16.596 -0.0447 -0.1363  0.1645
50986OCT     C2 1972   8.863   2.837  16.859  0.1298 -0.2239  0.0076
50987OCT     C1 1973   0.571   4.447  12.350  0.0566  0.5501 -0.2573
50987OCT     C2 1974   0.226   4.109  12.326 -0.1001 -0.1883 -0.2312
50988OCT     C1 1975   6.851  16.641  17.372  0.0382 -0.1679 -0.2209
50988OCT     C2 1976   6.640  17.007  17.295 -0.6006 -0.0949  0.1267
50989OCT     C1 1977   3.848  13.760  21.888  0.1668 -0.2048 -0.2938
50989OCT     C2 1978   3.971  14.077  21.550 -0.3708  0.0290 -0.0980
50990OCT     C1 1979  17.978  22.071  10.440 -0.1636  0.0872  0.0498
50990OCT     C2 1980  17.976  21.859  10.051  0.0075 -0.5464 -0.1715
50991OCT     C1 1981   6.697   5.776  12.168  0.0484  0.1523  0.0115
50991OCT     C2 1982   6.655   5.358  12.354  0.2198 -0.3566 -0.3845
50992OCT     C1 1983   6.771  13.895   9.759 -0.1153  0.0275 -0.2111
50992OCT     C2 1984   6.894  13.724  10.201  0.0566 -0.1523  0.2126
50993OCT     C1 1985   8.940  13.310   2.410 -0.2703 -0.1072 -0.1606
50993OCT     C2 1986   9.071  12.874   2.489  0.3209  0.0157 -0.2328
50994OCT     C1 1987  14.560   3.646   9.557  0.0236  0.1019 -0.0483
50994OCT     C2 1988  14.747   4.040   9.469 -0.0638 -0.0388  0.2630
50995OCT     C1 1989   8.349   2.385  17.057  0.1906 -0.1047  0.0089
50995OCT     C2 1990   8.776   2.291  17.251  0.2600 -0.4899 -0.2765
50996OCT     C1 1991   5.329  10.949  13.992 -0.2235 -0.0121 -0.0012
50996OCT     C2 1992   4.881  10.954  13.769 -0.0134 -0.1312  0.0173
50997OCT     C1 1993  23.608  16.407  16.917  0.1585  0.1776  0.1745
50997OCT     C2 1994  23.728  16.054  17.224  0.2820 -0.3602 -0.2371
50998OCT     C1 1995  17.549  19.980   3.172 -0.0818  0.0563  0.1044
50998OCT     C2 1996  17.873  19.689   3.176 -0.4712  0.2296  0.1120
50999OCT     C1 1997  18.385  12.791   4.340 -0.0510 -0.1535 -0.7061
50999OCT     C2 1998  18.266  12.800   4.790  0.0182 -0.0732  0.0874
51000OCT     C1 1999  22.691   3.340  22.259  0.2403 -0.3585 -0.2581
51000OCT     C2 2000  22.511   2.872  22.334  0.1049 -0.1553  0.1477
51001OCT     C1 2001   7.976  14.480   8.064  0.0543  0.0692 -0.1724
51001OCT     C2 2002   8.412  14.407   8.030 -0.2663  0.2523 -0.3257
51002OCT     C1 2003   6.116   8.525  20.803 -0.3717 -0.4006  0.1178
51002OCT     C2 2004   5.685   8.612  21.022 -0.1851 -0.0243  0.0795
51003OCT     C1 2005   0.157  22.072   8.927  0.0417 -0.0984  0.0816
51003OCT     C2 2006   0.431  21.679   8.910 -0.4127 -0.1277 -0.1507
51004OCT     C1 2007   1.544  14.609   0.916 -0.0200 -0.0707  0.1389
51004OCT     C2 2008   1.450  14.988   1.136  0.1071  0.2571 -0.0121
51005OCT     C1 2009  10.977   8.091   6.818 -0.2324  0.0861 -0.1076
51005OCT     C2 2010  11.440   8.037   6.895 -0.3629 -0.2146  0.4373
51006OCT     C1 2011  10.796   4.395  18.922  0.0733 -0.3731 -0.0999
51006OCT     C2 2012  10.354   4.462  19.110 -0.1296  0.3822  0.1653
51007OCT     C1 2013  18.125   2.064  12.042 -0.0177  0.2170 -0.1951
51007OCT     C2 2014  17.942   1.805  11.661 -0.1601  0.2834  0.1071
51008OCT     C1 2015  19.096  12.966   8.417 -0.3356 -0.2990 -0.0046
51008OCT     C2 2016  19.028  12.671   8.005  0.1551  0.0257 -0.1054
51009OCT     C1 2017   5.616   7.280  15.768  0.2038 -0.0547  0.4113
51009OCT     C2 2018   5.981   7.417  15.964 -0.2215  0.0237 -0.3490
51010OCT     C1 2019   7.473  14.548  10.539 -0.0439 -0.2522  0.3917
51010OCT     C2 2020   7.162  14.451  10.882  0.1307 -0.2864  0.4501
51011OCT     C1 2021  11.673  23.685  11.511 -0.2145 -0.0149  0.0132
51011OCT     C2 2022  12.012  23.733  11.864 -0.4751 -0.0036 -0.1450
51012OCT     C1 2023   4.734  12.515   3.990 -0.1939 -0.3054  0.2315
51012OCT     C2 2024   5.094  12.229   3.855  0.4034 -0.3050 -0.2832
51013OCT     C1 2025  10.031  11.904  18.265 -0.0072 -0.1850  0.0864
51013OCT     C2 2026  10.081  12.186  18.623 -0.2435 -0.6333  0.0795
51014OCT     C1 2027  19.361  12.350   0.243 -0.1608 -0.1431  0.1371
51014OCT     C2 2028  18.960  12.052   0.361 -0.0109  0.0388  0.1448
51015OCT     C1 2029   1.687   6.602  18.123  0.2878 -0.1500 -0.0266
51015OCT     C2 2030   1.500   6.950  18.363  0.0392  0.0502  0.2674
51016OCT     C1 2031   8.313   8.738  13.874 -0.1731 -0.0874 -0.0297
51016OCT     C2 2032   8.127   8.949  13.550  0.4165 -0.1079 -0.0703
51017OCT     C1 2033  10.035   6.072   8.917 -0.1733  0.1650 -0.0465
51017OCT     C2 2034   9.990   6.546   8.822 -0.0565 -0.1656 -0.2200
51018OCT     C1 2035   0.299  22.250   2.616 -0.1083  0.0685  0.3067
51018OCT     C2 2036   0.563  21.992   2.321  0.2149  0.0760 -0.0823
51019OCT     C1 2037   1.450  12.264  17.682  0.1222  0.1242 -0.3260
51019OCT     C2 2038   1.206  12.294  18.103 -0.1063  0.2223 -0.0331
51020OCT     C1 2039  19.943   1.812  15.909 -0.2361  0.0418  0.6232
51020OCT     C2 2040  19.661   1.486  16.085  0.2084 -0.2330  0.1537
51021OCT     C1 2041   6.573   4.723  17.044  0.0492 -0.1008 -0.0870
51021OCT     C2 2042   7.036   4.590  16.896  0.3015  0.2599  0.4895
51022OCT     C1 2043  18.653   3.502   7.320  0.0400  0.1192 -0.2133
51022OCT     C2 2044  19.004   3.457   6.996  0.1132 -0.1049 -0.2417
51023OCT     C1 2045  16.133   5.997  13.245 -0.1105  0.1855 -0.3226
51023OCT     C2 2046  15.958   5.936  13.729  0.2809  0.2725  0.5164
51024OCT     C1 2047   8.074  20.221   2.184  0.1464  0.0138 -0.0040
51024OCT     C2 2048   7.930  20.180   2.638  0.0526 -0.0219 -0.3494
51025OCT     C1 2049  20.680  10.740   1.497 -0.0056 -0.0272  0.0568
51025OCT     C2 2050  20.985  10.937   1.268  0.0175 -0.0882  0.3665
51026OCT     C1 2051   1.753   3.067  11.169 -0.1046  0.0063  0.3460
51026OCT     C2 2052   1.895   3.151  10.764  0.0935 -0.0924  0.1975
51027OCT     C1 2053  11.206   4.467  19.302  0.2477  0.2686 -0.0129
51027OCT     C2 2054  11.226   4.950  19.373 -0.0350 -0.0705  0.0807
51028OCT     C1 2055  10.608  16.727   5.412  0.1329 -0.2571 -0.0051
51028OCT     C2 2056  10.886  16.418   5.200  0.1666 -0.1325  0.3803
51029OCT     C1 2057  16.633  15.031  20.515  0.0168 -0.2015 -0.0701
51029OCT     C2 2058  16.658  15.355  20.146 -0.1681 -0.2245 -0.2096
51030OCT     C1 2059  23.256   6.818   5.477 -0.1724 -0.4489  0.1316
51030OCT     C2 2060  22.980   6.640   5.165  0.1787 -0.1268  0.1211
51031OCT     C1 2061   3.242   5.310   2.000 -0.1035 -0.0281 -0.0593
51031OCT     C2 2062   2.909   4.970   1.977 -0.0595  0.0628 -0.0118
51032OCT     C1 2063  13.719  19.767  19.124  0.4379  0.0904 -0.1103
51032OCT     C2 2064  13.311  19.868  19.214 -0.1372 -0.2208  0.1131
51033OCT     C1 2065   3.982  12.896  15.567  0.0262  0.1473  0.0565
51033OCT     C2 2066   3.598  12.861  15.257  0.0107  0.3695  0.1657
51034OCT     C1 2067   8.428   9.820   4.763 -0.2488  0.0232  0.0766
51034OCT     C2 2068   8.387   9.372   4.983 -0.4799  0.0748 -0.0440
51035OCT     C1 2069  23.721  10.288  18.528 -0.2638 -0.0824  0.0681
51035OCT     C2 2070   0.111  10.195  18.051 -0.0233 -0.0424  0.2265
51036OCT     C1 2071  18.573  10.351  14.723  0.3013  0.6107  0.1774
51036OCT     C2 2072  18.285  10.665  14.838 -0.3800  0.2483 -0.4150
51037OCT     C1 2073   8.887  21.110   1.700 -0.2550  0.2306 -0.0028
51037OCT     C2 2074   8.521  21.092   1.998 -0.1114  0.1563 -0.1263
51038OCT     C1 2075  23.103   3.471   3.952 -0.0295 -0.1761  0.2581
51038OCT     C2 2076  23.023   3.945   4.022  0.1029  0.1791  0.1554
51039OCT     C1 2077   0.533  17.371  15.739 -0.1622  0.1430  0.1789
51039OCT     C2 2078   0.935  17.123  15.694  0.0502 -0.2621 -0.0795
51040OCT     C1 2079   0.880  11.869  17.825 -0.0027 -0.0937  0.4011
51040OCT     C2 2080   0.544  12.158  17.883  0.0138  0.4250  0.0373
51041OCT     C1 2081  13.190   0.721  14.725  0.4078 -0.1974  0.0119
51041OCT     C2 2082  13.345   0.412  15.090  0.1957 -0.3791 -0.0789
51042OCT     C1 2083  16.514  22.735   9.624 -0.0158 -0.1494 -0.4413
51042OCT     C2 2084  16.228  23.110   9.675 -0.3686 -0.1276  0.2526
51043OCT     C1 2085   1.169  14.198   2.415  0.1306  0.3251  0.0489
51043OCT     C2 2086   0.944  13.827   2.224  0.1849  0.2004  0.2871
51044OCT     C1 2087   0.281  15.922  11.440 -0.1960  0.0308 -0.0846
51044OCT     C2 2088   0.652  16.158  11.115 -0.0719  0.2324 -0.3131
51045OCT     C1 2089  15.784   1.087   5.217  0.3988  0.4953  0.0096
51045OCT     C2 2090  16.103   1.187   5.507 -0.6248  0.0711 -0.1810
51046OCT     C1 2091  22.156  22.209  11.342 -0.1222 -0.2798 -0.0089
51046OCT     C2 2092  22.062  22.169  11.833  0.2579 -0.2727  0.3475
51047OCT     C1 2093  23.263  14.103  13.930  0.3080  0.1925  0.2845
51047OCT     C2 2094  22.797  13.979  13.737  0.1606 -0.1931 -0.0705
51048OCT     C1 2095   5.797  19.252  14.680 -0.3051 -0.0754 -0.5554
51048OCT     C2 2096   5.324  19.322  14.684 -0.0872 -0.1775 -0.3173
51049OCT     C1 2097   4.442   3.195   6.170 -0.0994 -0.0121  0.0411
51049OCT     C2 2098   4.133   3.212   5.797 -0.2141 -0.1598  0.2280
51050OCT     C1 2099   6.758  12.658  16.242  0.0572  0.0782 -0.2331
51050OCT     C2 2100   7.085  12.546  16.483  0.0548  0.2598 -0.0277
51051OCT     C1 2101  17.868  12.373   2.250  0.3292 -0.0473 -0.2026
51051OCT     C2 2102  17.730  12.114   2.645 -0.0600  0.0217  0.1077
51052OCT     C1 2103  10.546  10.009   5.543 -0.1204  0.0751  0.0808
51052OCT     C2 2104  10.859   9.737   5.796 -0.2734  0.3598 -0.6135
51053OCT     C1 2105   3.403  16.745   8.595 -0.0223 -0.2296  0.5080
51053OCT     C2 2106   2.983  16.928   8.792  0.1507 -0.3897  0.3647
51054OCT     C1 2107  13.064  20.142  22.964 -0.1952  0.1490  0.0448
51054OCT     C2 2108  13.041  19.913  22.577 -0.0415 -0.1073  0.0827
51055OCT     C1 2109  16.804  22.048   9.014  0.0837  0.2345  0.0785
51055OCT     C2 2110  16.351  22.091   9.162  0.1372 -0.1551 -0.2323
51056OCT     C1 2111   6.473  10.709  11.895  0.1965 -0.0164  0.4228
51056OCT     C2 2112   6.145  10.602  12.198  0.0668  0.2943  0.0039
51057OCT     C1 2113  21.777  22.806   0.776 -0.1307  0.1102  0.0274
51057OCT     C2 2114  21.923  22.492   0.478  0.0085 -0.0902 -0.6739
51058OCT     C1 2115   9.498  19.862   8.603 -0.4077  0.5007  0.0714
51058OCT     C2 2116   9.707  20.175   8.912 -0.1298  0.0661  0.1889
51059OCT     C1 2117   4.034  19.894   8.669 -0.0242  0.2964  0.0792
51059OCT     C2 2118   3.789  19.661   9.017  0.1895 -0.0610  0.0560
51060OCT     C1 2119  18.986  18.357   5.679 -0.1933  0.0573 -0.1010
51060OCT     C2 2120  19.177  18.091   6.006  0.3562  0.2362  0.0723
51061OCT     C1 2121   0.096  19.474   7.371  0.0228 -0.0169 -0.1521
51061OCT     C2 2122   0.352  19.495   7.008  0.0780 -0.2046 -0.2775
51062OCT     C1 2123   1.151  14.538   6.802  0.0447 -0.4416 -0.3312
51062OCT     C2 2124   0.709  14.549   6.897  0.4778 -0.2849  0.1879
51063OCT     C1 2125   3.532   5.209   8.245 -0.0534 -0.5909 -0.2166
51063OCT     C2 2126   3.545   4.818   7.962  0.0857 -0.2596  0.3465
51064OCT     C1 2127  21.052  22.710   7.859 -0.5743  0.1619 -0.1248
51064OCT     C2 2128  20.717  22.921   7.976 -0.2269 -0.1118 -0.0606
51065OCT     C1 2129  15.872  14.473  23.674  0.0067 -0.0095 -0.1811
51065OCT     C2 2130  15.698  14.435   0.345  0.2395 -0.0032  0.1682
51066OCT     C1 2131  23.135   6.964  13.020 -0.1683  0.1580 -0.1413
51066OCT     C2 2132  22.872   6.595  13.100 -0.4519 -0.3529  0.0555
51067OCT     C1 2133  12.028  22.821  21.725 -0.3244  0.2228  0.1370
51067OCT     C2 2134  12.420  22.725  21.507 -0.2900 -0.0325 -0.4021
51068OCT     C1 2135   6.912   1.865   9.018 -0.4068 -0.1187 -0.1248
51068OCT     C2 2136   6.872   2.009   9.425  0.0721 -0.1747 -0.2246
51069OCT     C1 2137   1.100  11.376  15.815  0.1809  0.0441  0.3167
51069OCT     C2 2138   1.449  11.041  15.869  0.2012 -0.0099 -0.1203
51070OCT     C1 2139   7.847   0.229  16.798  0.1189 -0.3080 -0.0021
51070OCT     C2 2140   8.153   0.629  16.666 -0.2386 -0.0958 -0.2062
51071OCT     C1 2141   7.032   8.358  17.043 -0.4914 -0.0508 -0.1638
51071OCT     C2 2142   7.089   8.370  16.613  0.1115 -0.0709  0.1255
51072OCT     C1 2143  18.883  12.968  12.032 -0.0336 -0.0993  0.1262
51072OCT     C2 2144  18.712  13.271  12.302  0.4688 -0.1400 -0.3372
51073OCT     C1 2145  11.794  16.544   8.754  0.1027 -0.0787  0.2232
51073OCT     C2 2146  12.258  16.474   8.809  0.0596 -0.1015  0.0400
51074OCT     C1 2147   6.246   9.579   7.750  0.2520  0.0707 -0.0971
51074OCT     C2 2148   6.549   9.579   8.175 -0.0718  0.1165  0.1695
51075OCT     C1 2149   7.621  17.458   3.240 -0.2168  0.0271  0.0168
51075OCT     C2 2150   7.423  17.787   3.474  0.1512  0.0571  0.2079
51076OCT     C1 2151  10.602   5.876   2.245  0.2719 -0.3915 -0.1388
51076OCT     C2 2152  10.858   5.892   2.648 -0.0553  0.1674  0.2532
51077OCT     C1 2153  19.771   2.102   0.157  0.0321  0.1098 -0.1626
51077OCT     C2 2154  20.051   1.745   0.246 -0.3173  0.2018 -0.4603
51078OCT     C1 2155  14.243  13.877  14.143 -0.1843  0.0597  0.2683
51078OCT     C2 2156  14.425  13.763  13.765  0.0058 -0.2391  0.2643
51079OCT     C1 2157  13.704   9.482   7.652 -0.1610  0.2241 -0.2432
51079OCT     C2 2158  13.803   9.049   7.425  0.0774  0.0277  0.0700
51080OCT     C1 2159  21.437  22.142   6.346 -0.0408  0.1813 -0.1050
51080OCT     C2 2160  21.241  22.011   5.949 -0.0399  0.2469 -0.0678
51081OCT     C1 2161  15.546   3.222  13.208 -0.0603 -0.1538  0.3050
51081OCT     C2 2162  15.088   3.287  13.367  0.0141 -0.3889 -0.1515
51082OCT     C1 2163  11.876  14.236  15.550 -0.1920 -0.0537 -0.2725
51082OCT     C2 2164  11.785  13.971  15.180 -0.2477 -0.0054  0.0506
51083OCT     C1 2165   3.335   4.357   2.399  0.2717  0.5511 -0.2429
51083OCT     C2 2166   3.556   4.737   2.620  0.0611  0.1934 -0.2866
51084OCT     C1 2167   9.432   9.931  12.056 -0.4675 -0.3219  0.0045
51084OCT     C2 2168   9.574  10.213  12.390 -0.1255 -0.0453  0.0854
51085OCT     C1 2169   3.079  14.494   2.986 -0.0276  0.0330  0.0513
51085OCT     C2 2170   3.272  14.233   3.289 -0.2224  0.2535 -0.1344
51086OCT     C1 2171   1.995  12.981  19.572  0.2114  0.2408 -0.2025
51086OCT     C2 2172   1.819  12.520  19.587 -0.0130 -0.0789 -0.3378
51087OCT     C1 2173  14.312  10.375   2.109  0.4258  0.2111  0.2808
51087OCT     C2 2174  14.527  10.766   2.090 -0.0461 -0.1695 -0.1147
51088OCT     C1 2175  21.766  14.318   5.431  0.2069  0.2741 -0.1925
51088OCT     C2 2176  21.771  14.662   5.094  0.5197  0.0075  0.1039
51089OCT     C1 2177  15.339   2.638  15.262  0.3761 -0.1124 -0.0744
51089OCT     C2 2178  15.038   2.340  15.491  0.0188  0.0469 -0.2545
51090OCT     C1 2179   3.089   7.577  21.861 -0.2762 -0.3785  0.1915
51090OCT     C2 2180   3.152   7.155  21.799  0.0921 -0.0783 -0.2370
51091OCT     C1 2181  16.233  14.591   1.573 -0.0197 -0.0047  0.4044
51091OCT     C2 2182  16.557  14.466   1.292 -0.1164 -0.0584  0.1195
51092OCT     C1 2183   3.890  21.431   6.688  0.1379  0.3129 -0.1904
51092OCT     C2 2184   4.267  21.610   6.998 -0.0307  0.0579  0.1539
51093OCT     C1 2185   1.698   2.465  13.991  0.0670 -0.0330 -0.1035
51093OCT     C2 2186   1.306   2.352  13.789 -0.0832  0.4134 -0.4464
51094OCT     C1 2187  23.226  19.876  15.030  0.3940  0.1434  0.1357
51094OCT     C2 2188  23.478  19.880  15.441 -0.0102 -0.0150  0.2234
51095OCT     C1 2189  22.389  22.821  17.967  0.2530 -0.1718 -0.2883
51095OCT     C2 2190  22.027  22.976  17.707 -0.0963  0.0654  0.2439
51096OCT     C1 2191   1.009   2.552  22.808  0.0373 -0.1588 -0.1756
51096OCT     C2 2192   1.342   2.668  22.490  0.2309 -0.1885  0.3520
51097OCT     C1 2193  12.620  10.571   2.688 -0.4355 -0.0422 -0.1704
51097OCT     C2 2194  13.093  10.562   2.740 -0.3564 -0.2472  0.0088
51098OCT     C1 2195  14.899   5.254  19.174 -0.1028 -0.2094 -0.2150
51098OCT     C2 2196  14.949   5.026  19.602  0.1127  0.1124  0.1293
51099OCT     C1 2197  13.042  20.843   8.268  0.3851 -0.0677 -0.1392
51099OCT     C2 2198  13.446  20.615   8.201 -0.0694 -0.2759 -0.0731
51100OCT     C1 2199  22.714  18.109  18.441  0.0446 -0.1943 -0.2549
51100OCT     C2 2200  22.333  18.261  18.286 -0.3735  0.0583  0.2679
51101OCT     C1 2201   7.999  16.269  18.957 -0.5420  0.1380  0.0113
51101OCT     C2 2202   7.898  15.912  19.194  0.2028 -0.1891  0.1999
51102OCT     C1 2203   0.851   9.666   6.249 -0.0829  0.3241 -0.3809
51102OCT     C2 2204   0.741   9.957   6.602 -0.3270 -0.0184  0.2767
51103OCT     C1 2205  15.772   5.245  19.966  0.2513 -0.1223  0.0590
51103OCT     C2 2206  16.044   5.066  20.289  0.0496 -0.0731 -0.2542
51104OCT     C1 2207   3.353  13.733  15.959 -0.0796  0.1500  0.4649
51104OCT     C2 2208   3.403  13.324  16.189  0.1147 -0.2571  0.0340
51105OCT     C1 2209   7.992   3.753  14.531 -0.3720  0.0250  0.1239
51105OCT     C2 2210   7.750   3.637  14.163 -0.0194  0.5735  0.2900
51106OCT     C1 2211   9.122   5.000  12.432  0.0696  0.0025 -0.1342
51106OCT     C2 2212   9.419   4.744  12.160  0.2582 -0.1888  0.1178
51107OCT     C1 2213   9.107   0.773   3.913  0.2873 -0.2793 -0.1196
51107OCT     C2 2214   8.965   0.470   3.580 -0.2819  0.1103 -0.1225
51108OCT     C1 2215   5.491  10.311  21.200  0.3119  0.5046  0.1079
51108OCT     C2 2216   5.841  10.199  21.495  0.0463 -0.0370  0.2232
51109OCT     C1 2217   2.531   8.092   4.493 -0.5620 -0.1307 -0.1214
51109OCT     C2 2218   2.810   7.778   4.673 -0.1268  0.2691  0.0727
51110OCT     C1 2219   5.270  17.015  10.906 -0.0923 -0.2575 -0.0911
51110OCT     C2 2220   5.767  17.066  10.872 -0.0245 -0.2406 -0.0465
51111OCT     C1 2221   5.069   6.172  19.711 -0.0719 -0.1517  0.1284
51111OCT     C2 2222   4.615   6.095  19.612 -0.1084 -0.1104 -0.2732
51112OCT     C1 2223  15.096   3.206   8.092 -0.2942  0.2773  0.1518
51112OCT     C2 2224  15.433   3.399   7.941 -0.6201  0.0795  0.1193
51113OCT     C1 2225  14.065   1.789   1.377  0.0960  0.1439 -0.1831
51113OCT     C2 2226  13.717   1.935   1.164 -0.0463  0.2438 -0.2374
51114OCT     C1 2227  13.689  13.551   3.997  0.1484  0.0832  0.0404
51114OCT     C2 2228  13.791  14.003   3.876  0.1104  0.0816  0.0805
51115OCT     C1 2229  12.142  12.646   4.956 -0.0746  0.0532 -0.0867
51115OCT     C2 2230  12.326  12.901   5.388 -0.0105 -0.1355 -0.1906
51116OCT     C1 2231   3.778  19.500   4.643  0.1958 -0.0253  0.0057
51116OCT     C2 2232   3.900  19.361   5.064  0.1349  0.1921 -0.1300
51117OCT     C1 2233   5.069   7.338  19.396  0.3946  0.3490  0.1102
51117OCT     C2 2234   5.208   6.878  19.461 -0.2216  0.0397 -0.1486
51118OCT     C1 2235  13.008  13.269  10.865  0.0748  0.2396  0.1947
51118OCT     C2 2236  13.048  13.132  11.351 -0.1215  0.1786  0.3387
51119OCT     C1 2237  17.103  20.119  23.534 -0.1674  0.0283  0.1928
51119OCT     C2 2238  17.118  19.724   0.067 -0.0689 -0.1946  0.1162
51120OCT     C1 2239   4.827   3.200  15.923 -0.0441  0.3138 -0.1028
51120OCT     C2 2240   5.042   3.529  16.198 -0.2718  0.0832  0.2152
51121OCT     C1 2241  18.928  13.852   5.124 -0.1251 -0.0826 -0.0474
51121OCT     C2 2242  19.352  13.890   5.300 -0.1045  0.1017  0.0476
51122OCT     C1 2243  13.384   6.205   3.199 -0.3366  0.0236  0.2801
51122OCT     C2 2244  13.194   6.614   3.051 -0.2070  0.1936 -0.2668
51123OCT     C1 2245   7.451  17.398  14.628 -0.2973 -0.1452  0.2361
51123OCT     C2 2246   7.459  17.846  14.845  0.1163 -0.1416  0.0227
51124OCT     C1 2247   4.187   3.483  17.135 -0.3345 -0.0646 -0.1465
51124OCT     C2 2248   3.810   3.284  17.296  0.0312 -0.0118 -0.1842
51125OCT     C1 2249  21.411  23.669   8.557  0.1493  0.1739  0.1843
51125OCT     C2 2250  21.044   0.114   8.350  0.0415  0.0260  0.3329
51126OCT     C1 2251  13.420  20.183  10.592  0.0299  0.0784 -0.2580
51126OCT     C2 2252  13.654  20.058  10.975  0.0659  0.2867 -0.0503
51127OCT     C1 2253  18.754  22.717   0.480 -0.0556  0.0750 -0.0554
51127OCT     C2 2254  18.725  22.680   0.973 -0.0055 -0.0469  0.2341
51128OCT     C1 2255   3.558   0.599  23.545 -0.1836  0.0861 -0.0531
51128OCT     C2 2256   3.279   0.506  23.167 -0.2348  0.3369  0.0738
51129OCT     C1 2257   8.321   4.850  20.817 -0.1869  0.0539  0.0439
51129OCT     C2 2258   7.967   4.979  20.616  0.0111 -0.0241  0.2278
51130OCT     C1 2259   8.028  16.871  16.866 -0.0834 -0.0213 -0.3021
51130OCT     C2 2260   7.884  16.532  16.579  0.3013 -0.4148 -0.3012
51131OCT     C1 2261   0.982   4.539  17.544  0.1082  0.0482 -0.3742
51131OCT     C2 2262   1.121   4.890  17.275  0.0157 -0.0664 -0.3139
51132OCT     C1 2263   9.379  20.569   1.832  0.1145  0.5186 -0.0538
51132OCT     C2 2264   9.405  20.459   1.427 -0.1712 -0.1029  0.0898
51133OCT     C1 2265   0.739  11.969  11.782 -0.0387  0.2453 -0.1211
51133OCT     C2 2266   1.034  11.866  11.428  0.0247  0.0119  0.0593
51134OCT     C1 2267   1.172   0.015   6.306  0.0067  0.1495  0.1581
51134OCT     C2 2268   1.337  23.308   6.364 -0.1687 -0.0104  0.2869
51135OCT     C1 2269   6.759  14.216  12.784  0.1138  0.1289 -0.0675
51135OCT     C2 2270   6.364  14.322  12.959 -0.0146  0.1208  0.4557
51136OCT     C1 2271  21.843   1.609  23.400 -0.0577 -0.1164  0.1770
51136OCT     C2 2272  21.912   1.353   0.064  0.2333  0.3352  0.2320
51137OCT     C1 2273   2.549  14.747   6.150 -0.1450 -0.1046 -0.0663
51137OCT     C2 2274   2.903  14.948   5.931 -0.2482 -0.2477  0.2193
51138OCT     C1 2275  11.955  21.231   1.240 -0.4519 -0.3516 -0.3805
51138OCT     C2 2276  12.166  20.812   1.304  0.2817 -0.0887  0.0993
51139OCT     C1 2277  11.805  22.537  12.499  0.0451 -0.4739 -0.0555
51139OCT     C2 2278  12.084  22.167  12.333 -0.3498  0.0032  0.2211
51140OCT     C1 2279   6.973   5.185   8.028  0.0652  0.0280 -0.2077
51140OCT     C2 2280   7.131   5.338   7.603  0.0563  0.0173 -0.3488
51141OCT     C1 2281  19.930  22.732  14.528 -0.3085  0.1811  0.0234
51141OCT     C2 2282  19.688  22.349  14.697 -0.2918 -0.1416 -0.5721
51142OCT     C1 2283   9.261  13.249  21.936 -0.1134 -0.0363 -0.3719
51142OCT     C2 2284   9.031  12.999  22.242 -0.3008 -0.1910 -0.0902
51143OCT     C1 2285   4.314  11.550  23.031  0.2834  0.1253 -0.0735
51143OCT     C2 2286   4.572  11.374  22.682  0.1814 -0.1153 -0.1315
51144OCT     C1 2287   8.256  21.288   7.048  0.1066  0.2120 -0.3205
51144OCT     C2 2288   8.124  21.213   6.626  0.2391 -0.3837 -0.2490
51145OCT     C1 2289   7.217  21.959   4.729 -0.0004 -0.0125 -0.0528
51145OCT     C2 2290   6.892  21.677   4.513  0.0017  0.3585 -0.0977
51146OCT     C1 2291  20.898  20.361  16.284  0.3897 -0.0570 -0.1136
51146OCT     C2 2292  20.946  20.617  15.892  0.0228 -0.2716 -0.0316
51147OCT     C1 2293  13.256  16.632  22.160  0.1287 -0.0918 -0.1648
51147OCT     C2 2294  13.233  17.061  22.356  0.2113  0.3110 -0.2079
51148OCT     C1 2295   8.812  20.248   3.359  0.1605  0.1631 -0.1320
51148OCT     C2 2296   9.023  20.358   3.742  0.0818 -0.2521  0.2727
51149OCT     C1 2297  23.210   9.358   5.736 -0.2188 -0.3435  0.1150
51149OCT     C2 2298  23.408   9.714   5.875 -0.1851 -0.1687 -0.1329
51150OCT     C1 2299  13.900   9.678  12.586  0.0879 -0.2325  0.2198
51150OCT     C2 2300  13.972  10.100  12.524 -0.0578 -0.0578 -0.1397
51151OCT     C1 2301  23.257  13.523  14.099  0.0348 -0.3828  0.0911
51151OCT     C2 2302  22.863  13.465  14.334  0.0893  0.0069  0.3719
51152OCT     C1 2303   2.604   3.051  17.684 -0.1346 -0.1217 -0.1471
51152OCT     C2 2304   2.390   2.960  18.102  0.1295  0.2138  0.1929
51153OCT     C1 2305  23.383  14.216   7.295  0.0784 -0.0105 -0.3338
51153OCT     C2 2306  23.645  13.846   7.061 -0.1887 -0.3920  0.3540
51154OCT     C1 2307   0.162   1.690   3.046 -0.0006 -0.0427  0.1882
51154OCT     C2 2308   0.227   2.102   2.893 -0.1445 -0.0557  0.0514
51155OCT     C1 2309   0.220  17.130  13.683  0.0149  0.0596 -0.1933
51155OCT     C2 2310   0.070  17.196  14.142  0.1012 -0.1630  0.1297
51156OCT     C1 2311   3.993  14.883   0.626 -0.0611  0.2880 -0.2443
51156OCT     C2 2312   4.361  14.703   0.377 -0.2536 -0.0419  0.1475
51157OCT     C1 2313   9.475  14.238  23.327 -0.5124 -0.4922  0.1378
51157OCT     C2 2314   9.341  14.333   0.040  0.0627 -0.2290  0.0636
51158OCT     C1 2315  23.122   8.389   1.126 -0.1126  0.0983  0.1376
51158OCT     C2 2316  22.636   8.337   1.106  0.0322 -0.0376 -0.1010
51159OCT     C1 2317   0.068  11.642   2.896  0.0511  0.2074 -0.0947
51159OCT     C2 2318   0.013  11.712   2.406  0.1628  0.1908  0.0416
51160OCT     C1 2319  18.757  21.886   7.722 -0.0289  0.1961  0.0791
51160OCT     C2 2320  18.406  21.684   7.520 -0.0164  0.0027  0.1222
51161OCT     C1 2321   6.606  11.496   0.894 -0.0786  0.2417  0.1090
51161OCT     C2 2322   6.537  11.951   1.074  0.0320 -0.2021 -0.0401
51162OCT     C1 2323  22.389   6.390   6.470  0.1714 -0.5704  0.0536
51162OCT     C2 2324  22.726   6.668   6.208  0.0707 -0.2974 -0.3420
51163OCT     C1 2325  19.147  22.875  22.655 -0.1377 -0.1839 -0.0188
51163OCT     C2 2326  19.462  23.116  22.893 -0.0771 -0.1680 -0.1046
51164OCT     C1 2327  13.293   0.482   1.803 -0.0993 -0.1614  0.1141
51164OCT     C2 2328  13.204   0.123   2.135 -0.0620  0.0620  0.2149
51165OCT     C1 2329  11.647  15.827  22.693 -0.1785  0.0363 -0.2709
51165OCT     C2 2330  11.650  16.259  22.686  0.1641  0.1079 -0.2171
51166OCT     C1 2331   9.445  15.931  21.129 -0.0512 -0.5036 -0.1280
51166OCT     C2 2332   9.610  15.678  21.527 -0.4805  0.1876  0.1037
51167OCT     C1 2333   8.237   6.672  11.012  0.0809  0.1335  0.0334
51167OCT     C2 2334   8.429   6.760  10.569  0.1229  0.1430  0.1206
51168OCT     C1 2335   3.281  19.064  15.385 -0.0935 -0.1323 -0.1754
51168OCT     C2 2336   3.281  18.617  15.576 -0.0465  0.3129 -0.2215
51169OCT     C1 2337   6.475  17.135  18.423 -0.4592 -0.1900  0.1240
51169OCT     C2 2338   6.918  16.983  18.369 -0.3292 -0.1660  0.3206
51170OCT     C1 2339   9.180  10.739   7.403 -0.2163  0.2097  0.3109
51170OCT     C2 2340   9.591  11.028   7.306  0.1896  0.2068 -0.1294
51171OCT     C1 2341  20.603   0.421  17.571 -0.0479  0.2676  0.1874
51171OCT     C2 2342  20.562   0.781  17.318  0.3373  0.1381 -0.1806
51172OCT     C1 2343  12.356   9.406   8.632 -0.1644 -0.1760  0.0004
51172OCT     C2 2344  12.396   9.086   8.281 -0.0175 -0.2551  0.1835
51173OCT     C1 2345  20.760  18.019   3.808  0.2041 -0.2109  0.1890
51173OCT     C2 2346  21.144  18.087   3.475 -0.2538  0.0879  0.2121
51174OCT     C1 2347  13.741  17.880  21.764 -0.0115 -0.0565 -0.3785
51174OCT     C2 2348  13.655  17.423  21.740 -0.1091  0.0012  0.0462
51175OCT     C1 2349  21.565   8.548  18.782 -0.0108  0.3518 -0.1981
51175OCT     C2 2350  21.638   8.143  18.555 -0.0310 -0.0808 -0.1735
51176OCT     C1 2351  13.094  13.528  16.585 -0.0879 -0.3499 -0.3373
51176OCT     C2 2352  13.370  13.391  16.256  0.1996  0.4325 -0.2698
51177OCT     C1 2353  13.208   1.294  16.511  0.1017  0.0524  0.2402
51177OCT     C2 2354  13.549   1.588  16.541 -0.2064 -0.0857 -0.2483
51178OCT     C1 2355  21.554  19.271  13.716 -0.1678  0.0606  0.3746
51178OCT     C2 2356  21.101  19.214  13.786 -0.0436  0.0192  0.0432
51179OCT     C1 2357  16.740  23.319  13.387  0.4752 -0.1727  0.0704
51179OCT     C2 2358  16.429  23.548  13.521 -0.1389 -0.0780 -0.5265
51180OCT     C1 2359  12.343  23.432  13.104 -0.0307 -0.1144  0.0986
51180OCT     C2 2360  12.308   0.151  13.243 -0.5036  0.0744  0.1631
51181OCT     C1 2361   8.325  11.038   8.440  0.2744 -0.0255  0.1026
51181OCT     C2 2362   8.565  11.442   8.342  0.2483  0.1738  0.2406
51182OCT     C1 2363   4.616  19.510   2.694 -0.0741  0.2222 -0.1222
51182OCT     C2 2364   4.373  19.256   2.918  0.3274  0.1688  0.0334
51183OCT     C1 2365  19.918  22.081  23.734  0.0052  0.1496  0.0952
51183OCT     C2 2366  19.783  22.396   0.251  0.1896 -0.3438  0.0963
51184OCT     C1 2367   1.796  19.565  21.955 -0.2348 -0.2702  0.2247
51184OCT     C2 2368   1.722  19.142  21.712  0.3872  0.0180 -0.1352
51185OCT     C1 2369   9.558  21.327  19.848  0.2154 -0.2126  0.3005
51185OCT     C2 2370   9.137  21.501  19.868 -0.3500 -0.2060 -0.1785
51186OCT     C1 2371  21.129   8.429   0.101  0.4889 -0.0669 -0.1233
51186OCT     C2 2372  21.019   8.751   0.439  0.0969  0.3811 -0.3078
51187OCT     C1 2373  11.637   4.514  14.824  0.1264 -0.0866 -0.3566
51187OCT     C2 2374  11.640   4.032  14.714  0.3872  0.2010  0.4930
51188OCT     C1 2375  10.623   1.128   4.861  0.0250 -0.1464 -0.1521
51188OCT     C2 2376  10.182   1.213   5.052  0.2944 -0.1354  0.1943
51189OCT     C1 2377  11.270  18.675   7.290  0.1513  0.1476  0.1441
51189OCT     C2 2378  11.642  18.515   7.568  0.2979  0.0664 -0.0770
51190OCT     C1 2379   8.136   4.061   2.598  0.0622  0.1075  0.1932
51190OCT     C2 2380   7.658   3.943   2.668  0.0176  0.2150  0.1625
51191OCT     C1 2381   3.602  13.231  14.230  0.3401  0.1336  0.0746
51191OCT     C2 2382   3.209  12.981  14.365 -0.1658 -0.2574 -0.0296
51192OCT     C1 2383   8.755   6.900  21.024  0.0710  0.4719 -0.0824
51192OCT     C2 2384   8.539   7.240  21.300 -0.0001 -0.1250  0.1058
51193OCT     C1 2385   4.605   9.467   4.856  0.1271  0.0055  0.0435
51193OCT     C2 2386   4.270   9.143   4.739  0.0724 -0.1493 -0.1580
51194OCT     C1 2387  14.717   4.622  14.094 -0.1310  0.1534 -0.1093
51194OCT     C2 2388  14.844   5.052  14.185  0.0724 -0.3718  0.0621
51195OCT     C1 2389   3.955  10.984   6.663 -0.1280  0.3528  0.2129
51195OCT     C2 2390   3.821  11.111   6.299 -0.0145  0.0904  0.2647
51196OCT     C1 2391   9.386  15.434  18.929  0.0168  0.1996  0.1104
51196OCT     C2 2392   8.944  15.481  18.945  0.1035 -0.3632 -0.1294
51197OCT     C1 2393  18.445  23.112   9.689 -0.3870 -0.1673  0.1523
51197OCT     C2 2394  18.259  23.092  10.136 -0.2258 -0.2112  0.0758
51198OCT     C1 2395  11.153   4.650   6.904 -0.2622 -0.2100  0.0069
51198OCT     C2 2396  11.210   5.101   7.172 -0.0712 -0.1387 -0.1436
51199OCT     C1 2397   2.083  16.441   2.502 -0.3890 -0.3394  0.0806
51199OCT     C2 2398   1.953  16.317   2.910 -0.0181 -0.0151 -0.1657
51200OCT     C1 2399   9.746  16.306  14.736 -0.2816 -0.2879  0.0926
51200OCT     C2 2400   9.933  16.384  14.325  0.0765  0.2006 -0.0060
51201OCT     C1 2401   6.137   0.233  14.810 -0.0056  0.0257 -0.1405
51201OCT     C2 2402   6.119   0.617  14.618  0.0185 -0.1931  0.0677
51202OCT     C1 2403  12.811   2.736  20.255  0.3315  0.1700  0.3537
51202OCT     C2 2404  12.820   2.268  20.172  0.2685  0.0497 -0.4786
51203OCT     C1 2405   6.658  12.321   9.734 -0.1002  0.2071  0.0091
51203OCT     C2 2406   6.815  11.890   9.513  0.3164 -0.1620  0.0256
51204OCT     C1 2407   1.894   3.516  16.185  0.2674  0.2292  0.2475
51204OCT     C2 2408   1.512   3.285  16.286 -0.0377  0.0487 -0.1896
51205OCT     C1 2409  22.243  18.748   9.529  0.2324 -0.3541 -0.1939
51205OCT     C2 2410  22.328  18.531   9.090  0.0134  0.1959 -0.3584
51206OCT     C1 2411  22.038  15.902   1.165 -0.1584  0.0317  0.4725
51206OCT     C2 2412  21.688  16.084   0.959  0.2094  0.1367 -0.2228
51207OCT     C1 2413   0.989   4.600   8.035 -0.2422 -0.2814 -0.0887
51207OCT     C2 2414   0.773   4.208   8.134  0.1072  0.1793 -0.0939
51208OCT     C1 2415   3.692   0.896  12.965  0.3018 -0.0276 -0.0549
51208OCT     C2 2416   3.604   0.722  12.527 -0.0888  0.1550 -0.3135
51209OCT     C1 2417   5.941  16.164  21.199 -0.1327  0.3682 -0.0449
51209OCT     C2 2418   6.289  15.887  21.258  0.2815 -0.0757  0.2843
51210OCT     C1 2419  11.959  21.430  10.500 -0.3559  0.0663  0.3418
51210OCT     C2 2420  12.247  21.118  10.316 -0.2145 -0.1594 -0.0837
51211OCT     C1 2421  21.372  19.890   4.285 -0.4143  0.0579 -0.4313
51211OCT     C2 2422  21.254  20.300   4.066  0.3313  0.0856  0.1354
51212OCT     C1 2423  18.648  16.156   4.232  0.0237  0.2001 -0.3116
51212OCT     C2 2424  18.972  16.201   4.008  0.0278 -0.3119  0.0379
51213OCT     C1 2425   8.988   7.699  19.278  0.0257  0.2076  0.0320
51213OCT     C2 2426   9.230   8.076  19.428  0.2050 -0.3230  0.4315
51214OCT     C1 2427   8.123  17.972   2.581  0.2389  0.0169 -0.0789
51214OCT     C2 2428   8.072  18.258   2.920 -0.2923 -0.2557 -0.0176
51215OCT     C1 2429  18.936  21.053  19.521  0.2593  0.1541  0.3962
51215OCT     C2 2430  18.755  21.155  19.937  0.1498  0.0180 -0.1163
51216OCT     C1 2431   7.660  17.736   6.875  0.1817  0.4078 -0.1259
51216OCT     C2 2432   7.874  18.116   7.070  0.3275  0.1192  0.2371
51217OCT     C1 2433  19.596  20.512   3.528 -0.3942 -0.2242  0.4020
51217OCT     C2 2434  19.330  20.697   3.174  0.3797  0.3303  0.4744
51218OCT     C1 2435   8.322   6.352   5.275 -0.0568  0.0572 -0.1423
51218OCT     C2 2436   8.507   6.601   5.582  0.0565  0.0908 -0.2480
51219OCT     C1 2437  22.572  15.961   8.062  0.2071  0.0744 -0.0853
51219OCT     C2 2438  22.560  16.139   7.619 -0.1826 -0.1811  0.1978
51220OCT     C1 2439   6.551   0.383   6.872  0.3961 -0.1608 -0.0378
51220OCT     C2 2440   6.392   0.840   7.000  0.1814  0.2715 -0.0393
51221OCT     C1 2441  22.360  14.555  10.439  0.1172  0.3717 -0.1343
51221OCT     C2 2442  21.991  14.851  10.609 -0.2814  0.1335 -0.1071
51222OCT     C1 2443   7.374  11.037   6.853 -0.1090  0.0029  0.3878
51222OCT     C2 2444   7.312  11.572   6.896  0.0731  0.1692 -0.0288
51223OCT     C1 2445   2.946  10.121  11.158 -0.2215  0.2497 -0.0791
51223OCT     C2 2446   2.891   9.888  10.814 -0.2840 -0.3169  0.1064
51224OCT     C1 2447  16.970   8.525   2.119  0.1331  0.1397 -0.1668
51224OCT     C2 2448  16.992   8.661   2.617  0.1493 -0.1018 -0.1738
51225OCT     C1 2449  16.114   1.686  14.877  0.2111 -0.0924 -0.0017
51225OCT     C2 2450  16.126   2.116  15.106  0.2666 -0.3290 -0.1121
51226OCT     C1 2451  13.440  11.191  14.968  0.1809 -0.1377  0.5749
51226OCT     C2 2452  13.454  11.378  15.393 -0.1983  0.0470 -0.0315
51227OCT     C1 2453  19.681   2.189   3.155  0.1708 -0.0955  0.0564
51227OCT     C2 2454  20.104   2.084   3.271 -0.0245  0.0784  0.1287
51228OCT     C1 2455  12.384  20.605  22.713  0.2189 -0.1730 -0.1232
51228OCT     C2 2456  12.262  21.069  22.734  0.1935 -0.1074  0.1806
51229OCT     C1 2457  11.209  12.949  15.530 -0.3258  0.0280  0.2797
51229OCT     C2 2458  11.565  12.724  15.407  0.2466  0.0620 -0.2771
51230OCT     C1 2459   4.670   3.075  20.547 -0.1106 -0.0382  0.0642
51230OCT     C2 2460   5.074   2.890  20.477 -0.4321 -0.1402 -0.0040
51231OCT     C1 2461   3.192  21.994  18.071  0.1044 -0.0569 -0.1644
51231OCT     C2 2462   3.037  22.442  17.981 -0.1876 -0.2377  0.0724
51232OCT     C1 2463  11.871  22.456   8.184  0.0142 -0.0046  0.2099
51232OCT     C2 2464  11.853  22.909   8.148  0.0388  0.0399  0.0268
51233OCT     C1 2465  19.961  21.944   7.839 -0.0802  0.0329 -0.3991
51233OCT     C2 2466  19.581  22.071   7.714 -0.0404 -0.0817 -0.0554
51234OCT     C1 2467   1.284  17.186  18.496 -0.1670 -0.0740 -0.0035
51234OCT     C2 2468   1.181  16.815  18.665 -0.1719  0.4212 -0.2370
51235OCT     C1 2469  22.387   6.728  20.691 -0.1332  0.3703 -0.0609
51235OCT     C2 2470  22.399   6.750  20.216 -0.0187 -0.0078 -0.1932
51236OCT     C1 2471   8.931   0.268  16.937  0.5094  0.1641 -0.2031
51236OCT     C2 2472   9.315   0.004  16.813  0.1296 -0.1761  0.2707
51237OCT     C1 2473   0.838   6.485   1.785  0.1007  0.2727  0.0889
51237OCT     C2 2474   0.721   6.841   1.500 -0.1071 -0.3046 -0.1365
51238OCT     C1 2475   2.106   8.979   1.314 -0.2428 -0.1994 -0.0811
51238OCT     C2 2476   2.398   9.339   1.439  0.2081 -0.0802  0.0154
51239OCT     C1 2477  12.286  21.604  23.736 -0.1163 -0.0692 -0.2163
51239OCT     C2 2478  12.685  21.398   0.282 -0.2711 -0.0849  0.2291
51240OCT     C1 2479   0.647  11.794   8.364  0.2170  0.0929  0.0282
51240OCT     C2 2480   0.767  11.851   8.892 -0.0018  0.0963  0.3215
51241OCT     C1 2481   2.529  14.714   3.613 -0.0701  0.0252 -0.0195
51241OCT     C2 2482   2.600  14.579   4.074  0.1193  0.3950 -0.1228
51242OCT     C1 2483  14.749  16.044   5.299  0.2015  0.0637 -0.3096
51242OCT     C2 2484  15.056  15.841   5.033  0.0450 -0.1105 -0.1796
51243OCT     C1 2485  12.381  11.787   2.907 -0.0223 -0.1793  0.0560
51243OCT     C2 2486  11.985  11.768   2.636  0.2343 -0.1442  0.1994
51244OCT     C1 2487   9.519   1.341   9.865 -0.1469  0.2688  0.0716
51244OCT     C2 2488   9.710   0.981  10.086  0.1935  0.2748 -0.0340
51245OCT     C1 2489   2.042  23.014   6.952 -0.0749 -0.2629  0.0930
51245OCT     C2 2490   2.340  22.694   6.885  0.0743  0.3733  0.3203
51246OCT     C1 2491   2.307  14.808  19.321 -0.0820  0.2244 -0.0023
51246OCT     C2 2492   2.398  14.355  19.218  0.2180  0.0715  0.0638
51247OCT     C1 2493  14.426  11.750  17.216  0.3306  0.1592  0.2233
51247OCT     C2 2494  14.251  11.659  17.630  0.2175  0.1710 -0.1469
51248OCT     C1 2495   9.397  10.664   0.912  0.0071 -0.0908  0.1273
51248OCT     C2 2496   9.577  10.585   0.512 -0.2031  0.2469  0.5926
51249OCT     C1 2497  11.854   1.587   3.671 -0.1430  0.0420 -0.0252
51249OCT     C2 2498  12.074   1.822   4.003  0.1248 -0.2309  0.1301
51250OCT     C1 2499  11.540   4.355   5.585 -0.0253 -0.2003  0.2332
51250OCT     C2 2500  11.632   4.089   5.190 -0.1551  0.0019 -0.0402
51251OCT     C1 2501  21.342  18.252  17.348  0.1254  0.1689 -0.1125
51251OCT     C2 2502  21.459  17.801  17.325 -0.0509 -0.0662  0.2792
51252OCT     C1 2503  13.278  21.616  17.956 -0.3417  0.2069 -0.0646
51252OCT     C2 2504  13.063  21.866  18.276  0.0586 -0.4338 -0.0235
51253OCT     C1 2505   3.614   6.341  23.044 -0.2775  0.2609  0.2017
51253OCT     C2 2506   3.514   5.887  22.999 -0.2457 -0.1203  0.0843
51254OCT     C1 2507   0.324  10.583  13.456 -0.0230  0.1057 -0.2122
51254OCT     C2 2508   0.335  11.037  13.409 -0.3430  0.1153 -0.2125
51255OCT     C1 2509  13.323  21.398  22.219 -0.2566  0.5366 -0.1637
51255OCT     C2 2510  13.642  21.563  22.529 -0.1810 -0.2688  0.1706
51256OCT     C1 2511  18.651  20.577  18.041  0.2046  0.1052  0.0004
51256OCT     C2 2512  18.275  20.579  18.348 -0.2257  0.0306 -0.0826
51257OCT     C1 2513  23.632  20.257   4.816  0.1961  0.0191  0.1712
51257OCT     C2 2514  23.397  20.646   4.882 -0.1873  0.3866  0.0396
51258OCT     C1 2515  18.537  13.070   1.232  0.1036 -0.0072  0.2060
51258OCT     C2 2516  18.187  13.146   1.453 -0.2079  0.1060 -0.2167
51259OCT     C1 2517  13.813  23.185   6.889 -0.2641 -0.1763  0.1149
51259OCT     C2 2518  13.767  23.446   7.317 -0.3475  0.0596 -0.1027
51260OCT     C1 2519   5.478   3.212   7.115 -0.0778  0.0965  0.3281
51260OCT     C2 2520   5.072   3.083   7.334  0.1415  0.1888  0.2765
51261OCT     C1 2521   1.810   4.770  23.099 -0.1838  0.1204  0.1048
51261OCT     C2 2522   1.705   5.113  22.758  0.3164 -0.1606  0.2451
51262OCT     C1 2523  18.697   6.894  10.155  0.1335 -0.1208 -0.1946
51262OCT     C2 2524  18.793   7.222  10.530  0.2804 -0.1461 -0.1825
51263OCT     C1 2525   3.122  11.906  17.275  0.2541  0.3669 -0.0388
51263OCT     C2 2526   3.477  11.984  17.601  0.3115 -0.1365  0.0522
51264OCT     C1 2527  21.812  10.857  20.078 -0.1749 -0.4551 -0.3153
51264OCT     C2 2528  21.887  11.311  19.987  0.0213 -0.1928  0.2829
51265OCT     C1 2529   4.449  15.210   3.175  0.2481  0.0518  0.0249
51265OCT     C2 2530   4.047  15.013   3.258 -0.2537 -0.2150  0.1271
51266OCT     C1 2531   3.685   0.863  22.185  0.3680  0.4566 -0.0152
51266OCT     C2 2532   3.455   0.894  21.802  0.0986  0.1268 -0.0167
51267OCT     C1 2533  20.533   8.706  20.841  0.1372  0.0496  0.2727
51267OCT     C2 2534  20.424   8.780  20.384 -0.2935  0.1398  0.0854
51268OCT     C1 2535  16.828   0.672   8.753 -0.2809  0.1931  0.0047
51268OCT     C2 2536  16.481   0.795   9.121  0.2255 -0.1048  0.1801
51269OCT     C1 2537   1.433   3.768  21.697  0.0402 -0.0070 -0.1514
51269OCT     C2 2538   1.742   3.809  21.357 -0.1443  0.0087  0.0898
51270OCT     C1 2539  18.013  17.464   1.184 -0.5298  0.0708 -0.0379
51270OCT     C2 2540  17.874  17.635   1.643 -0.0715  0.0674  0.5934
51271OCT     C1 2541  23.054  10.663   4.889  0.1039 -0.2359 -0.1259
51271OCT     C2 2542  23.367  10.429   5.128 -0.2794 -0.1759 -0.0479
51272OCT     C1 2543   4.059  16.044  22.715 -0.1279 -0.6566  0.0496
51272OCT     C2 2544   3.785  16.385  22.519  0.1381 -0.1875  0.5055
51273OCT     C1 2545   5.193  19.575  10.309  0.1147  0.0170  0.0606
51273OCT     C2 2546   5.188  19.741   9.904  0.2130 -0.0425 -0.3012
51274OCT     C1 2547   7.782  12.613  19.708 -0.0511 -0.5135 -0.2058
51274OCT     C2 2548   7.820  13.052  19.455  0.0567  0.3489  0.0717
51275OCT     C1 2549  11.257  15.485  20.197 -0.1288  0.2710 -0.2312
51275OCT     C2 2550  11.059  15.813  20.476 -0.1422  0.0854  0.3105
51276OCT     C1 2551  20.855  10.013   9.270 -0.4596 -0.1556 -0.3285
51276OCT     C2 2552  21.270  10.219   9.316  0.1722  0.0679  0.2008
51277OCT     C1 2553   2.223  16.689  11.503 -0.3064  0.0538  0.1966
51277OCT     C2 2554   2.195  16.697  11.038  0.0324  0.1007 -0.0534
51278OCT     C1 2555   1.883  12.924   2.124  0.0200 -0.3338  0.2088
51278OCT     C2 2556   2.190  12.579   1.966  0.3415 -0.4808  0.0670
51279OCT     C1 2557  14.602  14.840  11.242 -0.1627  0.2780  0.0620
51279OCT     C2 2558  14.961  15.139  11.157 -0.1685  0.4282 -0.1220
51280OCT     C1 2559  14.460  16.159  16.817  0.0689 -0.0718  0.0330
51280OCT     C2 2560  14.555  16.525  16.517  0.0599  0.3418 -0.0397
51281OCT     C1 2561  18.137  17.977   0.854 -0.0973  0.2741 -0.2166
51281OCT     C2 2562  18.137  17.639   0.478  0.0678 -0.2915 -0.2444
51282OCT     C1 2563   0.262   2.730  23.466  0.2387  0.0354  0.0401
51282OCT     C2 2564   0.534   2.963  23.703 -0.0962  0.1381  0.0872
51283OCT     C1 2565   0.350   1.137  16.770  0.2352 -0.0744  0.4347
51283OCT     C2 2566   0.393   0.753  16.494  0.6634 -0.1461 -0.0618
51284OCT     C1 2567   6.130  16.038   4.416  0.2503  0.0549  0.1611
51284OCT     C2 2568   6.407  16.432   4.504 -0.4554 -0.0823  0.0293
51285OCT     C1 2569  16.510   3.055  12.417 -0.0316  0.2428 -0.2204
51285OCT     C2 2570  16.594   3.293  11.972  0.1451  0.0441  0.3484
51286OCT     C1 2571   6.164  20.146  16.118  0.0190 -0.1896  0.3019
51286OCT     C2 2572   6.245  19.904  16.562 -0.0060  0.4232  0.2184
51287OCT     C1 2573   5.392  20.989   3.149  0.0387 -0.5108  0.2522
51287OCT     C2 2574   4.967  21.042   3.339 -0.3055 -0.4079  0.0172
51288OCT     C1 2575   8.647  19.356  20.845  0.0290  0.0465  0.4368
51288OCT     C2 2576   8.205  19.536  20.948  0.1754 -0.1378 -0.3111
51289OCT     C1 2577   0.875  11.726  22.277 -0.1130  0.0588  0.0265
51289OCT     C2 2578   1.183  11.708  21.900 -0.0398  0.0455  0.2364
51290OCT     C1 2579   9.966  17.087   5.523 -0.1138  0.2249 -0.2372
51290OCT     C2 2580   9.938  17.567   5.335 -0.1573  0.0440 -0.1848
51291OCT     C1 2581   0.117  22.842   5.252  0.0409  0.2386 -0.3399
51291OCT     C2 2582   0.474  22.768   4.884 -0.1819 -0.0466 -0.0739
51292OCT     C1 2583  10.067   8.228  19.846  0.2246  0.1862 -0.0602
51292OCT     C2 2584   9.660   8.299  19.624 -0.0793 -0.3266  0.4147
51293OCT     C1 2585   1.507   4.416  16.675 -0.1043 -0.5512  0.1177
51293OCT     C2 2586   1.622   3.965  16.680  0.0012 -0.0184 -0.1932
51294OCT     C1 2587  21.375  17.179   5.403 -0.0177  0.2597  0.1489
51294OCT     C2 2588  21.726  17.178   5.078  0.1967 -0.3091  0.0553
51295OCT     C1 2589  17.184   8.716  16.585 -0.0622 -0.5316 -0.0783
51295OCT     C2 2590  17.607   8.718  16.397  0.0541 -0.2112 -0.1027
51296OCT     C1 2591   0.657  15.397   2.047  0.1734 -0.0586  0.3128
51296OCT     C2 2592   0.567  15.754   2.312  0.3821  0.2360 -0.2720
51297OCT     C1 2593  21.695   8.757   9.115 -0.1225 -0.3234 -0.4016
51297OCT     C2 2594  21.491   8.623   8.676 -0.0095 -0.1651  0.0380
51298OCT     C1 2595   3.029  11.852  13.156 -0.4317  0.0774  0.1520
51298OCT     C2 2596   3.009  12.288  13.396  0.1056 -0.1552 -0.0534
51299OCT     C1 2597   0.967  22.840  17.121  0.0150 -0.1173 -0.1477
51299OCT     C2 2598   0.529  22.605  17.186  0.0035  0.1760  0.1176
51300OCT     C1 2599   4.682   8.451  18.168 -0.0014 -0.0125 -0.0043
51300OCT     C2 2600   5.057   8.674  18.323 -0.2280  0.2143  0.1319
51301OCT     C1 2601   6.927   6.170  21.820 -0.3446  0.3723  0.1455
51301OCT     C2 2602   7.363   6.125  22.068  0.2700  0.0515 -0.3748
51302OCT     C1 2603  15.506  16.908   3.773 -0.1204 -0.1670 -0.1880
51302OCT     C2 2604  15.141  16.747   3.638  0.1366  0.0185 -0.2863
51303OCT     C1 2605   1.579   6.593  22.770 -0.0661  0.1189 -0.4723
51303OCT     C2 2606   1.546   6.166  22.898 -0.1839 -0.1718 -0.1025
51304OCT     C1 2607  14.775   3.843   0.991 -0.0092  0.3139  0.0867
51304OCT     C2 2608  15.023   3.456   0.996 -0.0008  0.0260  0.0679
51305OCT     C1 2609  15.409  12.217  18.512  0.1331  0.0192  0.4561
51305OCT     C2 2610  15.415  11.878  18.191  0.2492 -0.1583  0.0252
51306OCT     C1 2611  15.020  10.712  19.649 -0.3533  0.0325 -0.0724
51306OCT     C2 2612  15.329  10.968  19.443 -0.1022 -0.1469  0.2054
51307OCT     C1 2613  11.062   3.092  15.655 -0.0640  0.1359  0.0297
51307OCT     C2 2614  10.746   3.419  15.643 -0.3440 -0.3597 -0.3564
51308OCT     C1 2615  12.698  17.388   1.095 -0.0886 -0.2392 -0.0035
51308OCT     C2 2616  12.334  17.643   1.309 -0.1356  0.1039  0.0811
51309OCT     C1 2617  15.891   7.527  17.842 -0.1524  0.1960  0.2951
51309OCT     C2 2618  15.957   7.519  18.274  0.2938 -0.0061 -0.3809
51310OCT     C1 2619  21.711   5.636  17.125 -0.0409  0.1860  0.3174
51310OCT     C2 2620  21.533   5.878  16.734 -0.1089  0.0900 -0.0496
51311OCT     C1 2621  21.640   5.573  20.196 -0.1004  0.0340 -0.0523
51311OCT     C2 2622  21.843   5.640  20.687  0.1966 -0.0236  0.2188
51312OCT     C1 2623  12.428   3.743  20.295  0.1805  0.1532  0.2652
51312OCT     C2 2624  12.364   4.219  20.303  0.2215  0.2062  0.3802
51313OCT     C1 2625   3.623  21.140  22.000 -0.0705  0.2943 -0.2215
51313OCT     C2 2626   3.480  20.739  22.186  0.0793  0.3299 -0.0718
51314OCT     C1 2627   3.930   2.889  11.019  0.0577 -0.3720  0.0812
51314OCT     C2 2628   3.789   3.305  10.923  0.3004  0.2039 -0.2557
51315OCT     C1 2629  18.550   2.257  20.425 -0.2466 -0.0474  0.1531
51315OCT     C2 2630  18.875   1.881  20.454  0.2767 -0.2684  0.0301
51316OCT     C1 2631   4.689   2.567   8.738 -0.2430  0.0049  0.1763
51316OCT     C2 2632   4.674   2.108   8.657 -0.0669 -0.0111 -0.2523
51317OCT     C1 2633  18.148  16.964  14.676 -0.1931  0.0937 -0.1454
51317OCT     C2 2634  18.139  17.329  14.384 -0.0701 -0.1568 -0.0089
51318OCT     C1 2635  11.769  14.203  10.768 -0.0343 -0.3621 -0.0013
51318OCT     C2 2636  11.795  13.916  11.122  0.1425  0.3308 -0.0064
51319OCT     C1 2637   2.665  18.409   7.298  0.1239 -0.1796  0.0136
51319OCT     C2 2638   2.225  18.280   7.321 -0.1179  0.1057  0.1630
51320OCT     C1 2639   1.606   3.952  14.595 -0.1267  0.2190  0.0831
51320OCT     C2 2640   2.081   4.080  14.661 -0.3663  0.0181  0.2076
51321OCT     C1 2641  23.581   1.679  19.718  0.1464  0.4441  0.0415
51321OCT     C2 2642  23.259   1.370  19.830 -0.0939  0.1724 -0.1053
51322OCT     C1 2643  15.727   1.004   0.343  0.1831 -0.2469 -0.0537
51322OCT     C2 2644  15.253   0.911   0.286  0.0044 -0.5027 -0.1871
51323OCT     C1 2645   8.968  16.029   0.076 -0.1381  0.0315  0.3292
51323OCT     C2 2646   9.303  15.832   0.414  0.1188 -0.1234  0.3773
51324OCT     C1 2647   3.750   4.025  21.222  0.2626  0.2656  0.1880
51324OCT     C2 2648   4.014   4.387  21.311 -0.2224 -0.3685 -0.0008
51325OCT     C1 2649  10.440  11.318  10.145  0.1694 -0.0853  0.1296
51325OCT     C2 2650  10.193  11.683  10.313  0.0474  0.3069 -0.2418
51326OCT     C1 2651   2.359   0.132  19.212  0.0288  0.1899 -0.2525
51326OCT     C2 2652   2.632   0.280  19.524  0.3001 -0.0537 -0.0221
51327OCT     C1 2653   4.979  10.371   6.297  0.0225  0.0408 -0.1182
51327OCT     C2 2654   4.783  10.330   5.873  0.0960  0.4349  0.0013
51328OCT     C1 2655  12.966  14.160  19.224 -0.2575 -0.0268 -0.1236
51328OCT     C2 2656  13.256  13.849  19.125 -0.2720 -0.3058  0.0849
51329OCT     C1 2657   5.659  11.239  10.560  0.1190 -0.3351  0.1881
51329OCT     C2 2658   5.469  11.583  10.266  0.0958 -0.0064 -0.2973
51330OCT     C1 2659  13.805  20.797   3.008  0.2540 -0.0904 -0.2458
51330OCT     C2 2660  14.028  20.677   2.664 -0.0254  0.3708 -0.3035
51331OCT     C1 2661   7.371   9.045  22.686 -0.2036  0.3612 -0.3144
51331OCT     C2 2662   7.108   9.051  22.310 -0.1297 -0.0135  0.0500
51332OCT     C1 2663  18.770   0.156  21.133 -0.1335 -0.2444 -0.0642
51332OCT     C2 2664  19.096   0.516  21.220  0.1133  0.0254  0.1124
51333OCT     C1 2665  13.519  17.829  15.694 -0.0083 -0.3665 -0.1560
51333OCT     C2 2666  13.457  17.700  16.113 -0.1744 -0.1574  0.0875
51334OCT     C1 2667  18.216  11.596   7.443  0.1043  0.2213  0.0045
51334OCT     C2 2668  17.961  11.749   7.816 -0.0243  0.2220 -0.1110
51335OCT     C1 2669   1.112   2.057  19.413 -0.1448  0.1448  0.1542
51335OCT     C2 2670   0.798   1.747  19.503  0.2094 -0.1079 -0.1764
51336OCT     C1 2671  23.207  22.024  22.348  0.0038 -0.1433 -0.1600
51336OCT     C2 2672  23.689  22.136  22.237 -0.2583 -0.3569 -0.0095
51337OCT     C1 2673   7.737  11.095  15.555  0.0486  0.1364 -0.0025
51337OCT     C2 2674   7.603  11.517  15.451  0.0345 -0.0844  0.1689
51338OCT     C1 2675   7.356   0.974  12.860  0.1559 -0.1767 -0.0436
51338OCT     C2 2676   7.330   1.411  12.665 -0.0179 -0.0811 -0.1207
51339OCT     C1 2677  18.842  12.602   0.244 -0.0399 -0.2368  0.0003
51339OCT     C2 2678  18.557  12.275   0.207  0.2248  0.2165 -0.4746
51340OCT     C1 2679  18.435   2.945  15.914  0.1181 -0.3255 -0.0523
51340OCT     C2 2680  18.023   2.992  15.654 -0.1119  0.0517 -0.3826
51341OCT     C1 2681  16.385   1.866   1.105 -0.1200  0.1757  0.0311
51341OCT     C2 2682  16.770   2.146   1.013  0.1542 -0.0416 -0.2338
51342OCT     C1 2683  20.036  20.580   8.738  0.1076 -0.0726  0.0067
51342OCT     C2 2684  20.394  20.849   8.710  0.2132  0.4503  0.1697
51343OCT     C1 2685   2.045  13.439   6.952  0.1718  0.1146  0.4829
51343OCT     C2 2686   1.900  13.803   6.708  0.2417  0.0779  0.0997
51344OCT     C1 2687  13.514   3.633  19.848 -0.1050  0.0948 -0.3515
51344OCT     C2 2688  13.579   3.484  20.305 -0.1640 -0.0898  0.3062
51345OCT     C1 2689  10.288   7.773  10.451  0.0683  0.1451 -0.1673
51345OCT     C2 2690  10.037   7.726  10.784 -0.3767  0.1692  0.2960
51346OCT     C1 2691   1.215   1.599  10.496  0.3358  0.0545  0.2997
51346OCT     C2 2692   1.440   1.565  10.104 -0.2241  0.0632 -0.0547
51347OCT     C1 2693   7.263   1.034  21.355  0.1540 -0.0030  0.0990
51347OCT     C2 2694   7.296   1.455  21.506 -0.2202  0.5014 -0.1042
51348OCT     C1 2695   6.300  13.817  13.046  0.2257 -0.2399 -0.1631
51348OCT     C2 2696   5.896  14.037  12.862 -0.1961  0.4189 -0.0172
51349OCT     C1 2697  17.661  22.846  15.992 -0.2983 -0.1009  0.0472
51349OCT     C2 2698  18.076  22.835  16.072 -0.1222 -0.1342 -0.1887
51350OCT     C1 2699  17.258   0.269   1.674 -0.0644  0.1573  0.2827
51350OCT     C2 2700  17.610   0.383   1.377  0.2858  0.0290 -0.0546
51351OCT     C1 2701  10.426  16.131   7.117 -0.3282  0.2248  0.0595
51351OCT     C2 2702  10.023  16.015   6.876  0.0403  0.3522 -0.4327
51352OCT     C1 2703   0.634  20.297  11.638 -0.2467  0.1449 -0.0580
51352OCT     C2 2704   0.876  19.988  11.395  0.0995 -0.1922 -0.0706
51353OCT     C1 2705   5.263  23.314  15.707 -0.1368 -0.0105  0.1935
51353OCT     C2 2706   5.096   0.008  15.640  0.1305 -0.2034 -0.1294
51354OCT     C1 2707  11.887   5.695  11.626  0.3778  0.0670 -0.0935
51354OCT     C2 2708  12.052   6.075  11.317  0.5348  0.0011  0.1735
51355OCT     C1 2709   8.102   5.356   5.158 -0.3885  0.0681 -0.0471
51355OCT     C2 2710   7.999   5.589   5.600  0.0337  0.1419  0.0436
51356OCT     C1 2711  18.744  10.642   3.994 -0.0807 -0.1890 -0.1597
51356OCT     C2 2712  19.067  10.380   4.160  0.2467  0.4484 -0.1162
51357OCT     C1 2713  15.696  17.666  21.246  0.0417  0.0622 -0.1660
51357OCT     C2 2714  16.084  17.944  21.312  0.1125  0.0503  0.4026
51358OCT     C1 2715  16.009   5.403   9.052  0.0659  0.0878 -0.1292
51358OCT     C2 2716  16.196   5.853   9.179  0.0239 -0.2068 -0.0007
51359OCT     C1 2717  10.989   3.757  19.640 -0.0650  0.1410  0.2663
51359OCT     C2 2718  11.199   3.446  19.923  0.1716 -0.1141  0.0234
51360OCT     C1 2719  23.318   4.509  21.139  0.1523  0.1948 -0.0085
51360OCT     C2 2720  23.271   4.373  21.568  0.1299  0.2353  0.1158
51361OCT     C1 2721  20.471   6.906  21.320  0.0860  0.2084  0.1823
51361OCT     C2 2722  20.259   7.311  21.501 -0.2213  0.0239 -0.5777
51362OCT     C1 2723  22.965  13.205   6.378 -0.1383  0.0545 -0.2811
51362OCT     C2 2724  23.199  13.531   6.077  0.0920 -0.2807  0.1361
51363OCT     C1 2725  15.454  17.919  15.456 -0.1902 -0.2494  0.1021
51363OCT     C2 2726  15.413  17.506  15.224 -0.3205  0.2310 -0.0130
51364OCT     C1 2727  22.998   0.628   7.864  0.2874  0.1186  0.2448
51364OCT     C2 2728  23.302   0.388   8.124 -0.1148 -0.1573 -0.2249
51365OCT     C1 2729   9.191   6.373   8.407  0.0241 -0.3264  0.0490
51365OCT     C2 2730   8.787   6.233   8.684  0.0378 -0.1658  0.1785
51366OCT     C1 2731  14.979   4.510  12.254 -0.4179  0.2815 -0.0129
51366OCT     C2 2732  14.928   4.057  12.411 -0.0628  0.0099  0.1959
51367OCT     C1 2733   2.218   9.321   2.710 -0.1026 -0.2641 -0.0195
51367OCT     C2 2734   2.346   9.158   2.334  0.1046 -0.0593 -0.1538
51368OCT     C1 2735   8.053   5.630  10.101  0.0392  0.1839 -0.0290
51368OCT     C2 2736   8.279   5.265  10.190 -0.0557 -0.1435 -0.0001
51369OCT     C1 2737  14.553   2.314   5.048 -0.1217 -0.1910  0.2216
51369OCT     C2 2738  14.344   2.365   4.669 -0.1560  0.3053 -0.0760
51370OCT     C1 2739  10.870  10.739   1.229  0.2055 -0.0313  0.4093
51370OCT     C2 2740  11.175  11.058   1.036  0.1079 -0.1316 -0.0981
51371OCT     C1 2741  14.942  17.059   8.103  0.1129  0.2226 -0.4695
51371OCT     C2 2742  14.890  17.494   8.276  0.1775  0.0867 -0.3699
51372OCT     C1 2743  19.730  20.576   6.054 -0.2528 -0.0346 -0.0080
51372OCT     C2 2744  19.849  21.062   6.189 -0.1927  0.3591 -0.0242
51373OCT     C1 2745   2.850  15.870   5.853  0.0106 -0.0739 -0.2290
51373OCT     C2 2746   2.707  15.487   5.694  0.0676 -0.0686 -0.2300
51374OCT     C1 2747  23.623  16.436  14.861 -0.2846  0.1973 -0.1199
51374OCT     C2 2748  23.421  16.011  14.699  0.0167 -0.3528  0.0777
51375OCT     C1 2749   2.378  11.714  23.041 -0.1652  0.0664 -0.2425
51375OCT     C2 2750   2.716  11.784  23.389 -0.0923 -0.0804  0.3830
51376OCT     C1 2751  12.466   7.884  18.853  0.2684 -0.0282  0.0931
51376OCT     C2 2752  12.236   8.068  19.232 -0.4088 -0.2605 -0.2602
51377OCT     C1 2753   2.069  19.307  13.482 -0.2784  0.0710 -0.3857
51377OCT     C2 2754   1.869  19.677  13.382  0.1854 -0.0890 -0.5737
51378OCT     C1 2755   7.498  13.117   6.355  0.4077  0.0152  0.0154
51378OCT     C2 2756   7.738  13.515   6.229 -0.0862 -0.1957 -0.3459
51379OCT     C1 2757   5.567  10.976   8.463 -0.3050  0.3513  0.1605
51379OCT     C2 2758   5.755  10.600   8.269  0.1145 -0.3592 -0.0713
51380OCT     C1 2759   0.830  16.467  18.826  0.0277 -0.1598  0.4261
51380OCT     C2 2760   1.054  16.204  18.541 -0.1159  0.1637  0.2166
51381OCT     C1 2761   2.034   3.591   0.658  0.2581  0.0559  0.0387
51381OCT     C2 2762   2.289   3.580   1.052  0.0232  0.1165  0.0418
51382OCT     C1 2763  11.432   7.006   3.309  0.2564  0.3109 -0.0986
51382OCT     C2 2764  11.851   7.086   3.176 -0.0518  0.0637  0.3678
51383OCT     C1 2765  21.698  10.976  16.174 -0.1141 -0.1383  0.3130
51383OCT     C2 2766  22.067  11.226  15.970 -0.1782 -0.2255  0.1314
51384OCT     C1 2767  19.015  21.050   4.064  0.0261  0.0874 -0.0306
51384OCT     C2 2768  18.928  21.143   4.509 -0.1218 -0.0236  0.1205
51385OCT     C1 2769  10.246   3.378  11.130 -0.1569 -0.1067  0.2353
51385OCT     C2 2770   9.854   3.571  11.059  0.0539 -0.0419 -0.2182
51386OCT     C1 2771   3.702   2.330   9.365  0.1698  0.4021  0.2068
51386OCT     C2 2772   3.647   2.512   9.800 -0.3184 -0.1238  0.2825
51387OCT     C1 2773   0.434  10.077   1.767 -0.2564 -0.0045 -0.2954
51387OCT     C2 2774   0.437  10.508   1.672  0.1415  0.3126 -0.3385
51388OCT     C1 2775  23.711  23.223   8.756 -0.1602 -0.1141  0.0994
51388OCT     C2 2776   0.418  23.043   8.776 -0.1134 -0.0247 -0.0469
51389OCT     C1 2777   2.870   2.102  23.660  0.1292 -0.0121 -0.0991
51389OCT     C2 2778   2.461   2.018   0.070  0.3818 -0.2869  0.0262
51390OCT     C1 2779  14.773  17.333  12.725  0.4522 -0.4437 -0.0317
51390OCT     C2 2780  14.548  16.986  12.507  0.1253  0.1017  0.0685
51391OCT     C1 2781  14.622   3.565   2.819 -0.0576 -0.0770  0.1051
51391OCT     C2 2782  14.238   3.319   2.691 -0.0380  0.2394  0.1505
51392OCT     C1 2783   5.396  15.300  17.173  0.1524  0.2013  0.1053
51392OCT     C2 2784   5.542  15.294  16.712  0.1331 -0.0141  0.1439
51393OCT     C1 2785  11.538   5.611   2.698 -0.5537 -0.4365 -0.1449
51393OCT     C2 2786  11.793   6.017   2.562 -0.1680 -0.0213  0.0855
51394OCT     C1 2787  10.974   4.282  22.128 -0.0765 -0.0880 -0.4666
51394OCT     C2 2788  10.922   4.645  22.387  0.0140 -0.0746  0.1114
51395OCT     C1 2789   8.966  13.699  18.065 -0.1407 -0.0236  0.2464
51395OCT     C2 2790   9.427  13.801  17.940  0.3462 -0.1174 -0.1348
51396OCT     C1 2791  16.875   9.677  15.121  0.0513 -0.2817 -0.0450
51396OCT     C2 2792  17.153   9.845  14.842 -0.1201  0.0579  0.5343
51397OCT     C1 2793  19.173  13.311  22.761  0.2925  0.3262 -0.1401
51397OCT     C2 2794  19.010  13.424  22.304  0.2256 -0.1805 -0.0825
51398OCT     C1 2795  17.539  20.983  12.088 -0.1704  0.1071  0.1959
51398OCT     C2 2796  17.312  20.608  12.317  0.4479  0.0554 -0.1745
51399OCT     C1 2797  11.765  10.084   4.420  0.0185  0.2449 -0.1838
51399OCT     C2 2798  12.048  10.362   4.688 -0.2127  0.3238 -0.7735
51400OCT     C1 2799   1.355  14.027  14.119 -0.3077 -0.0512  0.1993
51400OCT     C2 2800   1.543  14.413  14.381 -0.1444  0.2974 -0.0563
51401OCT     C1 2801  17.945   1.004   7.691 -0.1567 -0.0287  0.0980
51401OCT     C2 2802  18.427   0.956   7.805 -0.1508 -0.3286 -0.1577
51402OCT     C1 2803  19.362   2.354   2.157  0.0381  0.3952  0.0320
51402OCT     C2 2804  19.037   2.697   2.164 -0.1500  0.0740 -0.2572
51403OCT     C1 2805   6.649   2.007   6.624  0.2748 -0.1617  0.1432
51403OCT     C2 2806   6.196   2.171   6.640  0.1058 -0.1341  0.0112
51404OCT     C1 2807  17.742  10.804  12.511 -0.2065  0.2730 -0.0697
51404OCT     C2 2808  17.331  10.851  12.755  0.2501 -0.2357 -0.2352
51405OCT     C1 2809  17.652   1.689  22.061 -0.0796 -0.5228  0.0232
51405OCT     C2 2810  17.680   1.814  21.560  0.1606 -0.4288 -0.3885
51406OCT     C1 2811  15.302  15.074  20.276 -0.1836 -0.0904  0.1510
51406OCT     C2 2812  15.316  15.429  19.917  0.3771 -0.2627  0.4048
51407OCT     C1 2813  13.934  20.560  21.285 -0.2318 -0.0564 -0.2367
51407OCT     C2 2814  13.933  20.069  21.340  0.0362  0.2089  0.0314
51408OCT     C1 2815  23.227  12.165   4.612  0.2888  0.2136  0.2488
51408OCT     C2 2816  23.189  11.763   4.803  0.1318  0.1134 -0.0307
51409OCT     C1 2817   1.001   1.737  11.052  0.3125 -0.1643 -0.0866
51409OCT     C2 2818   0.713   1.853  10.711 -0.1240  0.2154  0.1031
51410OCT     C1 2819  20.381  22.188  14.272  0.0856 -0.0417 -0.1077
51410OCT     C2 2820  19.943  22.047  14.420 -0.1398 -0.2258  0.1242
51411OCT     C1 2821  22.343  23.589  11.013 -0.1936  0.0724 -0.0863
51411OCT     C2 2822  22.078   0.045  10.685 -0.0970 -0.1672 -0.0766
51412OCT     C1 2823  19.634   8.962  23.153  0.4616  0.2926  0.0542
51412OCT     C2 2824  19.974   8.810  23.391  0.0483  0.1056  0.0792
51413OCT     C1 2825  12.454  22.975   5.639  0.2521 -0.0852 -0.3007
51413OCT     C2 2826  12.087  22.704   5.485  0.2204 -0.0602 -0.0682
51414OCT     C1 2827  22.770  13.335   8.862  0.4972  0.0233  0.0559
51414OCT     C2 2828  22.978  13.666   8.631  0.3815  0.0071  0.2476
51415OCT     C1 2829  14.428  15.486   2.869  0.1404 -0.0111 -0.0091
51415OCT     C2 2830  14.587  15.761   3.260 -0.2007 -0.0664 -0.0813
51416OCT     C1 2831  14.112  14.064   3.112 -0.2701 -0.2831 -0.3684
51416OCT     C2 2832  14.574  14.137   3.113 -0.0852 -0.2750 -0.4056
51417OCT     C1 2833   5.627  22.677  13.095  0.1611 -0.1650 -0.0562
51417OCT     C2 2834   5.220  22.486  12.946  0.2596  0.2582  0.2311
51418OCT     C1 2835  15.050   5.494  21.128 -0.0044  0.3506 -0.0539
51418OCT     C2 2836  15.010   5.014  21.226 -0.0633 -0.0363 -0.0218
51419OCT     C1 2837   8.877   3.153  20.760 -0.1952  0.2964  0.0014
51419OCT     C2 2838   8.569   2.835  20.721 -0.3045 -0.0662  0.3034
51420OCT     C1 2839  19.337   7.576  18.654  0.3653 -0.1250  0.1463
51420OCT     C2 2840  19.493   7.323  19.029 -0.2065  0.2547 -0.0566
51421OCT     C1 2841  16.454   0.917  17.935  0.2037 -0.2200 -0.5031
51421OCT     C2 2842  16.633   0.628  17.666  0.0908  0.1493  0.2952
51422OCT     C1 2843  11.346  19.386   9.879  0.1313 -0.0561  0.2708
51422OCT     C2 2844  11.237  18.997   9.661 -0.0257  0.1690  0.2026
51423OCT     C1 2845  19.530  17.880  17.375  0.3356  0.2439  0.0735
51423OCT     C2 2846  19.379  18.315  17.345 -0.0000  0.0257 -0.0324
51424OCT     C1 2847  13.068   0.309   4.523 -0.2027 -0.1776 -0.0187
51424OCT     C2 2848  12.706   0.380   4.906  0.3646 -0.1151 -0.0072
51425OCT     C1 2849   6.047  13.073   7.647 -0.2610  0.1011 -0.3078
51425OCT     C2 2850   6.110  13.488   7.862 -0.2306 -0.1096 -0.0359
51426OCT     C1 2851   9.629  11.200  11.082 -0.2166 -0.0616 -0.0129
51426OCT     C2 2852   9.986  11.290  10.902 -0.4427  0.1890 -0.0332
51427OCT     C1 2853  11.795   2.671  10.276 -0.2331 -0.0020 -0.1482
51427OCT     C2 2854  11.409   2.380  10.406 -0.0099 -0.1595 -0.2173
51428OCT     C1 2855  15.684   7.756  21.169  0.0509  0.0698  0.0736
51428OCT     C2 2856  15.955   8.145  21.015  0.2188  0.0267 -0.1182
51429OCT     C1 2857  14.344  17.830   3.474  0.0329 -0.3117  0.0741
51429OCT     C2 2858  14.701  17.550   3.477  0.0410  0.1090 -0.2180
51430OCT     C1 2859  18.570  17.612  16.647 -0.2457 -0.0719 -0.1569
51430OCT     C2 2860  18.252  17.472  16.957 -0.3549 -0.2014 -0.3460
51431OCT     C1 2861   2.570   7.945  22.872  0.0546 -0.0617  0.2017
51431OCT     C2 2862   2.992   8.098  22.765  0.2413  0.0007 -0.2308
51432OCT     C1 2863  21.796  18.711   8.720 -0.2431 -0.2167 -0.1958
51432OCT     C2 2864  21.644  18.373   8.463 -0.0902 -0.1874  0.0974
51433OCT     C1 2865   5.311  19.681   8.674 -0.1768 -0.5410 -0.0054
51433OCT     C2 2866   5.550  19.420   9.021 -0.2064  0.0195  0.2235
51434OCT     C1 2867  12.376   5.136   3.279 -0.2069 -0.0611 -0.0804
51434OCT     C2 2868  12.785   5.020   3.205  0.0796  0.1361  0.4014
51435OCT     C1 2869   4.388  22.745  18.548 -0.0333  0.2312 -0.1322
51435OCT     C2 2870   4.180  22.317  18.755  0.0480 -0.0994  0.1777
51436OCT     C1 2871  19.915  13.685   2.307 -0.0052  0.2160 -0.0566
51436OCT     C2 2872  20.309  13.716   2.588 -0.0641  0.1719 -0.2543
51437OCT     C1 2873   8.471   4.395  10.123 -0.1073 -0.3492  0.0368
51437OCT     C2 2874   8.375   3.959  10.098  0.2068  0.1513 -0.3052
51438OCT     C1 2875  17.360  14.062  13.580 -0.0037 -0.0467  0.0283
51438OCT     C2 2876  17.276  14.274  13.167  0.1764  0.1314  0.2221
51439OCT     C1 2877   1.116  19.829  14.516  0.2688 -0.0493 -0.1842
51439OCT     C2 2878   0.693  20.112  14.619 -0.2623 -0.0838  0.0005
51440OCT     C1 2879   5.050   7.767  11.386  0.1190  0.2801 -0.0535
51440OCT     C2 2880   4.842   7.896  10.994 -0.2408 -0.1377 -0.1030
51441OCT     C1 2881  14.342  14.748   7.905 -0.1238  0.1826 -0.0281
51441OCT     C2 2882  14.474  14.724   7.435 -0.1643  0.2316  0.5096
51442OCT     C1 2883  11.733  15.933   9.938 -0.4744 -0.2005 -0.2575
51442OCT     C2 2884  11.975  16.040   9.590 -0.0555  0.0862  0.3527
51443OCT     C1 2885  17.377  22.870  12.985 -0.2064  0.2827 -0.2614
51443OCT     C2 2886  17.319  22.470  13.286  0.0573  0.2607 -0.1820
51444OCT     C1 2887  23.544   4.075  11.519  0.1206  0.0941 -0.1391
51444OCT     C2 2888  23.196   3.963  11.822 -0.0498  0.1206  0.1791
51445OCT     C1 2889   7.673  12.948  21.076  0.1431  0.2591  0.2843
51445OCT     C2 2890   7.525  13.015  21.487  0.0138  0.4115  0.0431
51446OCT     C1 2891  18.122  13.559  12.842 -0.2181 -0.0842  0.1333
51446OCT     C2 2892  18.338  13.352  13.241  0.0416 -0.2171  0.1871
51447OCT     C1 2893  14.449   9.498  15.905  0.1778 -0.1585  0.0734
51447OCT     C2 2894  14.020   9.388  15.873 -0.0841 -0.1367 -0.2046
51448OCT     C1 2895  21.533   4.264   3.265 -0.0084  0.1077 -0.2407
51448OCT     C2 2896  21.919   4.022   3.385  0.3056  0.5852  0.0429
51449OCT     C1 2897  21.673   8.887   2.969  0.0432 -0.0998  0.1578
51449OCT     C2 2898  21.634   9.319   3.043 -0.3130 -0.1518  0.0166
51450OCT     C1 2899  19.022  13.332  13.088  0.4564 -0.2260  0.0592
51450OCT     C2 2900  18.674  13.456  12.832 -0.0705 -0.1644 -0.1967
51451OCT     C1 2901  19.422  11.710   6.483 -0.0054 -0.1417  0.1892
51451OCT     C2 2902  19.672  11.320   6.289  0.0080  0.1281 -0.5853
51452OCT     C1 2903  20.355  17.378  21.948 -0.0662 -0.0292  0.0602
51452OCT     C2 2904  20.764  17.346  21.720  0.5130 -0.0287 -0.1364
51453OCT     C1 2905  19.109  14.239   4.332  0.3056 -0.2474 -0.0030
51453OCT     C2 2906  18.910  13.907   4.558  0.6727  0.6959  0.1123
51454OCT     C1 2907   7.352  14.884  18.568 -0.0837  0.0665  0.2173
51454OCT     C2 2908   7.645  14.779  18.279  0.0299  0.4302  0.0137
51455OCT     C1 2909   5.875  19.096   3.253 -0.0702 -0.3797 -0.2053
51455OCT     C2 2910   5.593  18.852   3.540  0.1281  0.0490  0.0959
51456OCT     C1 2911  13.399   7.102  14.409  0.0770 -0.1248 -0.0965
51456OCT     C2 2912  13.551   7.508  14.380  0.1934 -0.2562 -0.0269
51457OCT     C1 2913  18.025  11.373  23.155  0.0382  0.1840  0.2114
51457OCT     C2 2914  18.322  10.987  23.176 -0.3318 -0.3595 -0.4890
51458OCT     C1 2915  13.005  19.445   1.033  0.4105 -0.0519  0.0623
51458OCT     C2 2916  12.640  19.145   0.789 -0.4491  0.1383 -0.2888
51459OCT     C1 2917   4.572  11.938  11.582 -0.0824 -0.2237 -0.1555
51459OCT     C2 2918   4.915  11.914  11.373 -0.0934  0.0512  0.0928
51460OCT     C1 2919   7.294   5.755   7.834 -0.0799 -0.1866 -0.2206
51460OCT     C2 2920   6.851   5.731   7.648 -0.1822  0.1963  0.0911
51461OCT     C1 2921  23.512  23.668   8.812  0.3068  0.2677 -0.0246
51461OCT     C2 2922  23.132   0.115   8.577  0.0886  0.0601 -0.2587
51462OCT     C1 2923  15.197   3.390  21.746  0.1763 -0.0392 -0.4268
51462OCT     C2 2924  15.261   3.067  22.121 -0.0680 -0.0952  0.0443
51463OCT     C1 2925   2.042   4.054  10.517 -0.3630 -0.0885 -0.0849
51463OCT     C2 2926   2.133   3.607  10.587 -0.2595 -0.2361 -0.0062
51464OCT     C1 2927  10.662  11.513   4.132 -0.3907  0.0900  0.1311
51464OCT     C2 2928  10.746  11.220   3.797  0.1749  0.2982  0.0252
51465OCT     C1 2929   3.052  12.270  20.077  0.1920 -0.1949 -0.0290
51465OCT     C2 2930   2.802  12.399  19.659 -0.1793 -0.0021  0.4195
51466OCT     C1 2931  23.578  12.570  10.357  0.0152  0.2080 -0.2493
51466OCT     C2 2932   0.127  12.602  10.756  0.0622  0.1875  0.1817
51467OCT     C1 2933  10.764  15.060  12.224  0.1359 -0.1176  0.0876
51467OCT     C2 2934  11.142  14.823  12.323 -0.3078  0.3786  0.2407
51468OCT     C1 2935  12.507   9.571   1.357  0.3340 -0.3861  0.0585
51468OCT     C2 2936  12.573   9.804   1.000 -0.1940  0.3745 -0.0451
51469OCT     C1 2937   2.626  13.285   3.252 -0.1767 -0.2493  0.0396
51469OCT     C2 2938   2.959  13.297   3.632  0.0357  0.0828 -0.4791
51470OCT     C1 2939  15.403  12.199  12.363 -0.2006  0.1063 -0.0905
51470OCT     C2 2940  15.229  11.825  12.081  0.0798 -0.2054 -0.1669
51471OCT     C1 2941  16.577  15.105  14.402 -0.3191  0.3102  0.2200
51471OCT     C2 2942  16.186  15.126  14.225  0.1024  0.1843  0.1269
51472OCT     C1 2943  15.665  18.021  20.294 -0.0781 -0.0079 -0.1360
51472OCT     C2 2944  16.012  18.243  20.121 -0.2874 -0.1712 -0.0698
51473OCT     C1 2945  20.781  16.393  23.395 -0.1525 -0.0191 -0.0843
51473OCT     C2 2946  21.273  16.414  23.481 -0.1426 -0.0531  0.0053
51474OCT     C1 2947  20.606   2.277   9.758 -0.0875  0.2417 -0.0602
51474OCT     C2 2948  20.684   2.685  10.000  0.1910  0.1761 -0.2765
51475OCT     C1 2949  17.753  22.291  21.259  0.0046 -0.1250 -0.2841
51475OCT     C2 2950  18.252  22.411  21.191 -0.1385  0.2774 -0.0841
51476OCT     C1 2951   2.796   9.924  22.840  0.2051 -0.1542 -0.1329
51476OCT     C2 2952   3.260  10.021  23.017  0.0054 -0.2352 -0.0296
51477OCT     C1 2953  17.118  21.321   9.748  0.1494 -0.1261  0.2473
51477OCT     C2 2954  16.846  21.117  10.041  0.0321  0.0537  0.0073
51478OCT     C1 2955  17.812  13.799  17.545  0.2631 -0.0128 -0.1766
51478OCT     C2 2956  17.689  14.127  17.193  0.1165 -0.1167  0.1727
51479OCT     C1 2957  20.408  20.440  22.448 -0.5346 -0.3484  0.1494
51479OCT     C2 2958  20.699  20.390  22.838 -0.0102  0.3237  0.1762
51480OCT     C1 2959   5.539   6.625   1.766 -0.0706  0.0749 -0.1648
51480OCT     C2 2960   5.963   6.520   1.684 -0.4172 -0.1812 -0.0628
51481OCT     C1 2961   3.853  20.776  21.138  0.1396  0.1814  0.1596
51481OCT     C2 2962   4.194  20.805  20.936  0.2368  0.0653  0.1443
51482OCT     C1 2963  14.522  21.239   3.202  0.4071  0.2805 -0.2527
51482OCT     C2 2964  14.733  21.358   2.829  0.1512 -0.0874 -0.0442
51483OCT     C1 2965   8.451  14.326  13.007 -0.1192  0.1743 -0.1100
51483OCT     C2 2966   8.752  14.137  12.720 -0.0718  0.0233  0.1454
51484OCT     C1 2967  15.094   6.776  19.325  0.3168 -0.0319 -0.2229
51484OCT     C2 2968  14.721   7.056  19.371  0.2218 -0.1070  0.0498
51485OCT     C1 2969  23.305   5.770   4.317 -0.0745 -0.0122  0.2555
51485OCT     C2 2970  22.857   5.761   4.393  0.0115  0.1780  0.1124
51486OCT     C1 2971   0.646   4.759  10.556 -0.0532 -0.2996  0.3377
51486OCT     C2 2972   0.970   4.753  10.905  0.3006 -0.3457 -0.2157
51487OCT     C1 2973  17.059   4.501  17.664  0.2467 -0.1815  0.0256
51487OCT     C2 2974  17.488   4.504  17.804  0.0459 -0.1274 -0.4026
51488OCT     C1 2975   0.434   9.839   5.457  0.0601  0.1269 -0.2972
51488OCT     C2 2976   0.302   9.395   5.398  0.6197 -0.3056 -0.2293
51489OCT     C1 2977   2.414   2.014   7.073  0.0021 -0.2460  0.1469
51489OCT     C2 2978   1.970   2.071   6.905  0.1229 -0.0577  0.2268
51490OCT     C1 2979   1.326  11.446  18.376 -0.3246  0.2248  0.0147
51490OCT     C2 2980   1.503  11.221  18.757 -0.1096  0.0880 -0.2144
51491OCT     C1 2981  23.112  10.241   7.601 -0.1671 -0.0602 -0.0890
51491OCT     C2 2982  23.197   9.755   7.714  0.4776  0.1869  0.1795
51492OCT     C1 2983  22.089   5.213  10.801  0.0917  0.0857  0.0068
51492OCT     C2 2984  22.376   5.428  11.071 -0.2179  0.1041  0.4224
51493OCT     C1 2985   0.277  18.579   4.794  0.2363 -0.1010  0.1610
51493OCT     C2 2986   0.200  18.097   4.661 -0.4023  0.0365  0.1313
51494OCT     C1 2987  20.802   2.257  19.783  0.1084  0.0414 -0.0719
51494OCT     C2 2988  20.946   2.685  20.043  0.1382  0.1294  0.0493
51495OCT     C1 2989   0.665  11.283   6.055 -0.2442 -0.3197  0.1633
51495OCT     C2 2990   0.362  11.383   6.363 -0.1482 -0.2208 -0.4298
51496OCT     C1 2991   3.005   8.124  18.524 -0.3382 -0.2127 -0.1146
51496OCT     C2 2992   3.051   7.892  18.907 -0.1660 -0.2547  0.0264
51497OCT     C1 2993   5.886  23.141   8.673  0.3261 -0.2926 -0.0346
51497OCT     C2 2994   5.710  23.511   8.686  0.0919 -0.0949 -0.0812
51498OCT     C1 2995  17.228  12.178  12.335 -0.2315 -0.0509 -0.3096
51498OCT     C2 2996  16.796  12.047  12.166 -0.1025  0.1321  0.2498
51499OCT     C1 2997   0.921   5.987   7.256 -0.1335  0.0950  0.4008
51499OCT     C2 2998   0.821   6.133   6.819  0.2401 -0.2059 -0.2147
51500OCT     C1 2999  16.282  10.755  22.969 -0.0135 -0.2972  0.3277
51500OCT     C2 3000  16.028  11.027  22.659  0.1559 -0.2848 -0.2071
51501OCT     C1 3001   3.229   6.942   9.092  0.1598  0.1738 -0.0134
51501OCT     C2 3002   2.787   6.803   8.930 -0.1635 -0.0425 -0.2264
51502OCT     C1 3003   3.731  16.796  13.073 -0.1151  0.1960  0.2100
51502OCT     C2 3004   3.713  16.302  13.004 -0.0610  0.3421 -0.1710
51503OCT     C1 3005  22.684  19.629  15.897 -0.1225 -0.0063 -0.0456
51503OCT     C2 3006  22.620  19.502  16.302  0.4961  0.0133 -0.2218
51504OCT     C1 3007   4.782  13.282  18.134  0.5101 -0.4740  0.0858
51504OCT     C2 3008   4.762  13.054  18.528  0.1812 -0.1605 -0.3412
51505OCT     C1 3009   0.161   5.196   3.057  0.2476 -0.0688 -0.2838
51505OCT     C2 3010   0.272   5.044   2.675 -0.2555 -0.1482 -0.0511
51506OCT     C1 3011   5.817   5.989  13.922 -0.1594  0.5890  0.1378
51506OCT     C2 3012   5.701   6.331  13.680 -0.1440  0.0778  0.0414
51507OCT     C1 3013  15.574  15.092   3.911  0.0534 -0.3519  0.2310
51507OCT     C2 3014  15.730  14.708   3.784  0.0521 -0.2291 -0.1834
51508OCT     C1 3015   4.772  23.303   0.232 -0.0380  0.2231  0.1508
51508OCT     C2 3016   4.688  23.118  23.592 -0.2234 -0.2177 -0.1240
51509OCT     C1 3017   9.308  10.497  11.636  0.3362  0.1206  0.0703
51509OCT     C2 3018   9.210  10.382  12.064  0.3038  0.1282 -0.1602
51510OCT     C1 3019  19.420   6.529   0.934 -0.4137 -0.1864  0.2020
51510OCT     C2 3020  19.233   6.190   0.729  0.2264 -0.2028 -0.3922
51511OCT     C1 3021   3.817  19.363  10.034  0.1728 -0.1674 -0.1039
51511OCT     C2 3022   3.459  19.454   9.748 -0.0994 -0.2050  0.1271
51512OCT     C1 3023  18.976  19.618  21.806 -0.2104  0.0963  0.1397
51512OCT     C2 3024  18.988  20.090  21.667  0.1136  0.2825  0.1382
51513OCT     C1 3025  21.747   2.024  18.687  0.0250  0.1173 -0.2393
51513OCT     C2 3026  21.384   1.872  18.961 -0.0276 -0.3039  0.0273
51514OCT     C1 3027  14.368  15.150  19.199 -0.0260 -0.1872  0.0763
51514OCT     C2 3028  14.697  15.203  19.504  0.3919 -0.3222 -0.2666
51515OCT     C1 3029  12.183  18.743   6.807 -0.1442 -0.2145  0.0238
51515OCT     C2 3030  12.318  18.279   6.882 -0.0840 -0.0716 -0.2135
51516OCT     C1 3031   9.376  23.698   3.926 -0.0078 -0.0210  0.0652
51516OCT     C2 3032   8.955   0.023   3.847  0.2259  0.0158 -0.0087
51517OCT     C1 3033   4.101   3.501   8.430  0.0628 -0.3017 -0.0506
51517OCT     C2 3034   4.399   3.563   8.750  0.1258  0.3921 -0.0862
51518OCT     C1 3035  12.249  17.589   7.250 -0.6719  0.3014  0.1492
51518OCT     C2 3036  12.190  17.261   7.596 -0.0900 -0.0659 -0.0259
51519OCT     C1 3037   3.954   5.929  23.221 -0.1175 -0.2901  0.0618
51519OCT     C2 3038   4.031   6.177  22.795 -0.0465 -0.0293 -0.0190
51520OCT     C1 3039  21.340   7.245  23.555 -0.4123  0.1265 -0.5762
51520OCT     C2 3040  21.637   7.259  23.177  0.1679 -0.2768  0.3018
51521OCT     C1 3041   8.504   9.970  19.246 -0.1167  0.1891 -0.3306
51521OCT     C2 3042   8.275   9.638  19.014 -0.3479 -0.1600 -0.1834
51522OCT     C1 3043  14.989   9.966   9.456  0.0359  0.1809  0.3959
51522OCT     C2 3044  14.837   9.598   9.679  0.2618 -0.2852  0.2261
51523OCT     C1 3045   0.963   2.416   7.572 -0.1952 -0.2241 -0.5418
51523OCT     C2 3046   0.728   2.498   7.205  0.2227 -0.1266  0.0505
51524OCT     C1 3047   0.382   1.653   8.088 -0.1008  0.4479  0.3035
51524OCT     C2 3048   0.644   1.833   8.370 -0.2944  0.4609 -0.1434
51525OCT     C1 3049  19.578   6.899  20.875 -0.3082 -0.0384 -0.3260
51525OCT     C2 3050  19.576   6.450  21.104 -0.1747  0.1269 -0.3339
51526OCT     C1 3051   7.418   3.951   4.389 -0.3419 -0.4971  0.0101
51526OCT     C2 3052   7.402   4.129   3.963  0.0085 -0.1182 -0.2203
51527OCT     C1 3053  21.582   5.143   1.895  0.0578 -0.0875  0.1390
51527OCT     C2 3054  21.799   5.444   2.151  0.5186  0.1276 -0.3503
51528OCT     C1 3055   5.748  20.088   2.656 -0.2290  0.2308  0.1415
51528OCT     C2 3056   5.525  19.747   2.647 -0.1309  0.1565  0.0370
51529OCT     C1 3057  21.314  14.088   4.456 -0.5069 -0.0578 -0.1473
51529OCT     C2 3058  21.513  14.168   4.027 -0.2001  0.0172 -0.0376
51530OCT     C1 3059  18.963  20.498  10.773 -0.1660  0.2436 -0.3168
51530OCT     C2 3060  18.959  20.879  11.117 -0.0181 -0.3542 -0.1130
51531OCT     C1 3061   5.163  20.576  21.413 -0.3489 -0.0278  0.1485
51531OCT     C2 3062   4.806  20.831  21.611 -0.1743 -0.1583 -0.0020
51532OCT     C1 3063  12.905  15.137   6.426  0.0230 -0.1356  0.0455
51532OCT     C2 3064  12.548  14.959   6.623 -0.4099 -0.3837  0.0031
51533OCT     C1 3065   2.347  16.439   7.409  0.2922 -0.0387  0.0573
51533OCT     C2 3066   2.131  16.171   7.731 -0.0194 -0.0411 -0.0606
51534OCT     C1 3067  23.527   8.646  20.319  0.0437  0.0260 -0.1311
51534OCT     C2 3068   0.154   8.770  20.584  0.2250 -0.1062  0.0444
51535OCT     C1 3069   9.470   4.458  14.910 -0.2940  0.2129  0.1675
51535OCT     C2 3070   9.531   4.696  14.480  0.0768  0.0014 -0.1047
51536OCT     C1 3071  15.329  20.156  21.556  0.1532 -0.3453  0.2648
51536OCT     C2 3072  14.877  20.206  21.404 -0.0527  0.0251 -0.1886
51537OCT     C1 3073  23.628   3.302  21.938  0.1807 -0.0486 -0.1223
51537OCT     C2 3074  23.676   2.994  22.288  0.2356  0.2021 -0.4505
51538OCT     C1 3075  23.005  16.669   8.206  0.2047  0.3889  0.0143
51538OCT     C2 3076  22.811  16.203   8.402 -0.2677 -0.1361  0.0254
51539OCT     C1 3077  15.088  21.067  22.413  0.0503  0.3573 -0.0975
51539OCT     C2 3078  15.309  21.467  22.409 -0.0675 -0.1876 -0.0023
51540OCT     C1 3079  19.309   1.441  21.757 -0.1383 -0.1222 -0.0906
51540OCT     C2 3080  19.689   1.635  21.933 -0.1430 -0.2574 -0.0873
51541OCT     C1 3081  11.187  18.101  14.602 -0.0510  0.0492 -0.0137
51541OCT     C2 3082  11.218  17.906  14.988 -0.2987  0.0146  0.2927
51542OCT     C1 3083  15.444   5.071   8.593  0.2295 -0.0053 -0.2616
51542OCT     C2 3084  15.131   4.878   8.274 -0.1541 -0.0213 -0.1584
51543OCT     C1 3085  18.744  21.981   1.322  0.4244  0.0651 -0.0803
51543OCT     C2 3086  19.075  22.246   1.140  0.1526 -0.2286  0.3988
51544OCT     C1 3087   5.230   8.730   0.174 -0.0771  0.1418  0.1516
51544OCT     C2 3088   4.823   8.925   0.286 -0.0727 -0.3125  0.0819
51545OCT     C1 3089  15.786  16.523  20.179  0.5592  0.3362 -0.0144
51545OCT     C2 3090  15.732  16.195  20.533 -0.1338 -0.0061 -0.2128
51546OCT     C1 3091  16.700   6.881  23.084  0.2950 -0.1216 -0.2495
51546OCT     C2 3092  16.297   6.633  23.254 -0.2979  0.0335  0.2137
51547OCT     C1 3093   3.675  16.946  13.544 -0.1308  0.2192  0.1008
51547OCT     C2 3094   3.347  17.033  13.809 -0.3259 -0.2557  0.0387
51548OCT     C1 3095  16.692   2.072  15.100 -0.2032 -0.2224 -0.1518
51548OCT     C2 3096  17.124   2.143  14.955  0.1845  0.0733 -0.0782
51549OCT     C1 3097  12.705   1.115   3.578  0.2693  0.0130  0.0102
51549OCT     C2 3098  12.588   0.889   3.216  0.2742 -0.0021  0.0437
51550OCT     C1 3099  23.459   2.076  10.352  0.1260  0.2735 -0.0707
51550OCT     C2 3100  23.421   2.423  10.115 -0.0160 -0.2781 -0.1174
51551OCT     C1 3101   4.398  12.272   7.773  0.3685  0.3276  0.5157
51551OCT     C2 3102   4.732  12.195   7.502 -0.1252  0.1049  0.2014
51552OCT     C1 3103   6.333  18.510   3.791  0.0483  0.0901  0.2724
51552OCT     C2 3104   6.830  18.554   3.896  0.0799 -0.3714  0.1939
51553OCT     C1 3105   8.300  11.121   2.566  0.2801 -0.0872  0.1185
51553OCT     C2 3106   8.169  11.180   2.128  0.0255  0.0194 -0.2226
51554OCT     C1 3107  22.847  21.164  14.092  0.0444 -0.0810 -0.3459
51554OCT     C2 3108  23.263  21.322  14.205  0.0052  0.0245  0.2851
51555OCT     C1 3109   9.145   4.354  14.335 -0.0526 -0.2242  0.0946
51555OCT     C2 3110   9.135   3.892  14.249 -0.0281  0.1393  0.1368
51556OCT     C1 3111   9.509  11.701   0.696 -0.0406  0.0916  0.2931
51556OCT     C2 3112   9.518  11.368   1.046  0.2912  0.0963  0.0628
51557OCT     C1 3113  18.744   6.532  12.831  0.3064  0.0842  0.0422
51557OCT     C2 3114  18.633   6.925  13.048  0.3413 -0.4228  0.1503
51558OCT     C1 3115  11.081  16.944   7.314  0.1390 -0.0827 -0.0971
51558OCT     C2 3116  11.128  17.371   7.493  0.0941 -0.1246 -0.2915
51559OCT     C1 3117   2.518  17.987  10.980 -0.3794  0.3862 -0.0073
51559OCT     C2 3118   2.776  18.247  11.249  0.0665  0.4739 -0.1071
51560OCT     C1 3119   3.447  22.564  21.082 -0.1316 -0.2423  0.0532
51560OCT     C2 3120   3.905  22.580  20.988 -0.0195 -0.2976 -0.2661
51561OCT     C1 3121  12.306   7.942   7.862  0.0808 -0.1030  0.2355
51561OCT     C2 3122  12.636   7.597   7.962  0.0646 -0.1864 -0.0695
51562OCT     C1 3123   7.967   7.559  18.542 -0.0161  0.0315  0.5049
51562OCT     C2 3124   7.693   7.235  18.273 -0.0306 -0.4179  0.0369
51563OCT     C1 3125   6.953  17.559  23.434 -0.1770  0.1661  0.1602
51563OCT     C2 3126   7.148  17.530  22.973 -0.2612 -0.0481  0.0659
51564OCT     C1 3127   4.396  21.661  23.738 -0.2643 -0.0746 -0.0928
51564OCT     C2 3128   4.826  21.759  23.646 -0.0122  0.1853 -0.1213
51565OCT     C1 3129  19.826  15.511  16.227 -0.3803  0.3283 -0.1020
51565OCT     C2 3130  19.801  15.742  16.629  0.3613  0.4058 -0.1902
51566OCT     C1 3131  11.441   6.024   3.085  0.0334 -0.0361 -0.0102
51566OCT     C2 3132  11.892   6.100   3.244  0.1551 -0.2323  0.1111
51567OCT     C1 3133  16.385  11.688  20.816 -0.0200  0.1682 -0.0466
51567OCT     C2 3134  16.624  11.285  20.961  0.3038 -0.2441  0.1996
51568OCT     C1 3135  17.129  19.813  20.369 -0.1029 -0.3146 -0.2506
51568OCT     C2 3136  17.086  20.019  19.976 -0.1079  0.0874  0.1367
51569OCT     C1 3137  11.723  17.819  15.333  0.1475  0.1603 -0.3957
51569OCT     C2 3138  11.685  18.310  15.448 -0.0455  0.1766 -0.0491
51570OCT     C1 3139  11.215  12.764   2.148  0.0282 -0.1580  0.3111
51570OCT     C2 3140  11.576  12.748   1.847 -0.0984 -0.1567  0.1622
51571OCT     C1 3141  13.944   5.798  20.206  0.1404  0.0007 -0.0033
51571OCT     C2 3142  14.019   5.333  20.100  0.2278 -0.2476 -0.1537
51572OCT     C1 3143   6.091  22.236  12.296 -0.1430  0.1436  0.0409
51572OCT     C2 3144   5.747  22.508  12.208 -0.2478  0.3160  0.0845
51573OCT     C1 3145  15.176  17.907  12.766  0.0031 -0.0263  0.2143
51573OCT     C2 3146  14.923  17.758  12.425 -0.0083  0.2388  0.0889
51574OCT     C1 3147   8.248   1.898  21.608 -0.1680  0.1643  0.3333
51574OCT     C2 3148   8.399   1.774  22.008 -0.1980 -0.2384  0.0006
51575OCT     C1 3149  16.703  14.789   5.367 -0.2684  0.3149  0.4862
51575OCT     C2 3150  16.611  14.303   5.527  0.4310 -0.0499  0.3621
51576OCT     C1 3151   7.808   8.193   0.862 -0.0462  0.0864  0.1537
51576OCT     C2 3152   8.274   8.216   0.759 -0.4054  0.0935 -0.2417
51577OCT     C1 3153   4.586   3.824   7.134 -0.2463  0.1062  0.1098
51577OCT     C2 3154   4.369   3.825   7.580 -0.0830 -0.2414  0.0669
51578OCT     C1 3155  14.676  15.415  14.756 -0.2360  0.1288  0.2144
51578OCT     C2 3156  14.731  15.013  15.015 -0.1015 -0.1579 -0.3906
51579OCT     C1 3157  16.997  11.057  19.582  0.0966  0.4520  0.1996
51579OCT     C2 3158  16.759  11.048  19.960  0.0318 -0.0434  0.1041
51580OCT     C1 3159  12.989   4.496   5.127 -0.4775  0.0671  0.0158
51580OCT     C2 3160  13.166   4.919   5.057 -0.1141  0.1208 -0.4945
51581OCT     C1 3161   0.927   6.235  19.539 -0.3216 -0.1986  0.1883
51581OCT     C2 3162   0.919   5.809  19.739  0.0396 -0.0150  0.1362
51582OCT     C1 3163  12.403   2.063  23.462 -0.1676 -0.0412  0.0434
51582OCT     C2 3164  12.375   2.147   0.209 -0.1695 -0.1346  0.2519
51583OCT     C1 3165  16.723   6.804  10.310 -0.3789 -0.2772 -0.3439
51583OCT     C2 3166  16.505   7.215  10.235 -0.0495 -0.0053 -0.1040
51584OCT     C1 3167   9.321   2.733  13.459  0.0515 -0.0919  0.2524
51584OCT     C2 3168   8.883   2.731  13.702  0.0494  0.1119  0.2301
51585OCT     C1 3169  21.493   8.698  14.277  0.2788 -0.2939 -0.0274
51585OCT     C2 3170  21.895   8.768  14.016  0.0931  0.1463 -0.3166
51586OCT     C1 3171  21.259   7.211  14.425  0.3592 -0.0677 -0.1472
51586OCT     C2 3172  21.231   7.307  14.893 -0.0925  0.1581 -0.0459
51587OCT     C1 3173   2.094   4.312  15.907 -0.0080 -0.6749 -0.5592
51587OCT     C2 3174   1.741   4.555  15.784 -0.1137  0.1207  0.1450
51588OCT     C1 3175  20.746  23.012   2.101 -0.1879  0.1783 -0.1591
51588OCT     C2 3176  20.653  22.766   1.707  0.2958 -0.2663 -0.1114
51589OCT     C1 3177  23.222  18.480  12.553 -0.0831  0.4729  0.0837
51589OCT     C2 3178  22.868  18.510  12.275 -0.1982 -0.2126  0.0820
51590OCT     C1 3179   0.460  16.355   3.474  0.0900 -0.1582  0.2276
51590OCT     C2 3180   0.064  16.666   3.367 -0.0490  0.2776 -0.0009
51591OCT     C1 3181  12.829  18.668  19.469  0.4729  0.1672  0.4269
51591OCT     C2 3182  13.136  18.672  19.874 -0.4281 -0.1708  0.1378
51592OCT     C1 3183   8.843  19.684  16.391  0.0258 -0.1210  0.1042
51592OCT     C2 3184   8.863  19.577  16.822 -0.1750 -0.0032  0.1435
51593OCT     C1 3185  21.769  14.799   8.786  0.0404  0.5943 -0.5562
51593OCT     C2 3186  22.152  14.977   8.559  0.0827 -0.1454  0.1325
51594OCT     C1 3187  15.583  11.531  18.545  0.0306 -0.1508 -0.0756
51594OCT     C2 3188  15.799  11.912  18.723  0.2971 -0.1036 -0.2562
51595OCT     C1 3189   2.896   4.849   6.297  0.0518 -0.1321 -0.7022
51595OCT     C2 3190   2.639   4.888   6.682  0.0697 -0.2425  0.1008
51596OCT     C1 3191   6.789   8.429   0.806  0.0430 -0.0551 -0.0760
51596OCT     C2 3192   6.548   8.178   0.515 -0.0195 -0.1831 -0.1786
51597OCT     C1 3193  17.043  23.659  15.119 -0.0515 -0.1515 -0.0979
51597OCT     C2 3194  16.757  23.289  15.014  0.2123  0.1323  0.1665
51598OCT     C1 3195   6.642  15.046  17.503  0.1213 -0.3841  0.2090
51598OCT     C2 3196   6.392  15.057  17.908  0.1850  0.0465 -0.0006
51599OCT     C1 3197  22.966  18.402  15.499  0.0442 -0.1193 -0.0778
51599OCT     C2 3198  23.250  18.289  15.175 -0.0491  0.0446  0.1344
51600OCT     C1 3199  17.075   3.151  17.939  0.2343  0.1725 -0.1630
51600OCT     C2 3200  17.335   3.516  18.052  0.1551  0.0173  0.3995
51601OCT     C1 3201  14.656  11.303   6.350 -0.1739  0.0224  0.1152
51601OCT     C2 3202  14.511  11.516   5.955 -0.0343  0.2431  0.2296
51602OCT     C1 3203  21.274   4.794   0.369 -0.0482  0.1670  0.1590
51602OCT     C2 3204  21.350   4.441   0.614 -0.0046  0.2656 -0.5751
51603OCT     C1 3205   0.423  13.377  15.438  0.0082  0.0929  0.1298
51603OCT     C2 3206   0.747  13.035  15.447 -0.0146  0.1211  0.0834
51604OCT     C1 3207   8.635  12.354  16.952 -0.0038 -0.1812 -0.4506
51604OCT     C2 3208   9.064  12.521  17.168  0.2234  0.2021 -0.0140
51605OCT     C1 3209   8.349   3.836  14.921 -0.0123 -0.0418 -0.0635
51605OCT     C2 3210   8.089   4.138  15.120 -0.4210  0.0224  0.1365
51606OCT     C1 3211  14.057   5.346  10.181  0.1215 -0.0212 -0.1247
51606OCT     C2 3212  14.090   5.800  10.035  0.2228 -0.2209  0.0320
51607OCT     C1 3213   3.086   3.502   4.502 -0.4010 -0.4780 -0.2583
51607OCT     C2 3214   3.504   3.699   4.571  0.0904 -0.0332 -0.0520
51608OCT     C1 3215  20.592  16.281   4.686  0.1925 -0.0312  0.3510
51608OCT     C2 3216  20.983  16.096   4.574  0.2005 -0.1969 -0.1460
51609OCT     C1 3217  20.866  12.322   5.818 -0.2363 -0.0857  0.0128
51609OCT     C2 3218  20.531  12.349   5.525  0.1088 -0.1511 -0.0894
51610OCT     C1 3219  16.538  16.781   4.348 -0.0887  0.2034  0.1425
51610OCT     C2 3220  16.894  16.613   4.081  0.5250  0.3430  0.3096
51611OCT     C1 3221   7.969   4.522  20.904 -0.0815  0.3222 -0.3136
51611OCT     C2 3222   8.386   4.322  20.778 -0.0572  0.0563 -0.2029
51612OCT     C1 3223  17.529  18.747  22.903  0.1993 -0.1962 -0.3572
51612OCT     C2 3224  17.354  18.456  23.198 -0.1555 -0.2326 -0.1397
51613OCT     C1 3225   4.310   8.159  11.741 -0.1079  0.0318  0.3412
51613OCT     C2 3226   4.104   8.005  12.151 -0.2512  0.2955  0.1460
51614OCT     C1 3227  15.821   9.275  20.811  0.0041 -0.1664 -0.0980
51614OCT     C2 3228  15.412   9.217  20.607  0.1662 -0.1677 -0.2731
51615OCT     C1 3229   7.692   4.252   1.174  0.1941  0.1911  0.1533
51615OCT     C2 3230   7.857   4.366   0.739  0.2612  0.1092  0.0322
51616OCT     C1 3231   2.367  18.846   2.640  0.4335 -0.3624  0.0298
51616OCT     C2 3232   2.228  18.692   2.207  0.2077  0.2207  0.1089
51617OCT     C1 3233  23.614  21.733  15.512 -0.1300  0.0916  0.0035
51617OCT     C2 3234   0.379  21.925  15.544 -0.1364  0.2301 -0.3369
51618OCT     C1 3235  12.636   4.992  15.256  0.2487 -0.0544 -0.2386
51618OCT     C2 3236  12.703   4.807  14.813 -0.0214  0.1430  0.0002
51619OCT     C1 3237  13.868   2.844  15.930 -0.2548  0.1219 -0.2604
51619OCT     C2 3238  13.930   2.355  15.986  0.1568 -0.0609 -0.3719
51620OCT     C1 3239  14.850  17.064  11.053 -0.0351  0.1272 -0.4721
51620OCT     C2 3240  14.455  16.820  11.265  0.1288 -0.3485  0.0497
51621OCT     C1 3241  19.844  12.712   8.924  0.1917 -0.1869  0.3296
51621OCT     C2 3242  19.929  12.516   8.533  0.0319 -0.0128  0.2154
51622OCT     C1 3243  23.276   5.902  18.320 -0.0154 -0.0363  0.1175
51622OCT     C2 3244  23.584   5.930  17.958 -0.0342  0.0681 -0.2684
51623OCT     C1 3245   2.822   9.928  18.157  0.0252 -0.1452  0.0363
51623OCT     C2 3246   3.246  10.079  18.268 -0.1508 -0.1582  0.3394
51624OCT     C1 3247  12.189  13.380  19.624 -0.0446  0.2806 -0.1122
51624OCT     C2 3248  11.822  13.142  19.520  0.0587  0.0052  0.3377
51625OCT     C1 3249  21.076   0.464   4.628  0.1792  0.3299 -0.1445
51625OCT     C2 3250  20.578   0.565   4.637 -0.2801 -0.2256  0.2549
51626OCT     C1 3251  23.078  17.806   2.820 -0.2509 -0.2338  0.0269
51626OCT     C2 3252  22.660  18.017   2.779  0.2580  0.1271  0.0487
51627OCT     C1 3253   8.329  23.495  19.457  0.1104  0.0351  0.1812
51627OCT     C2 3254   8.186  23.123  19.697 -0.0207 -0.0977  0.1523
51628OCT     C1 3255   8.527   0.303  13.732  0.0391  0.3394 -0.0633
51628OCT     C2 3256   8.369   0.194  14.172  0.4336  0.0929  0.2846
51629OCT     C1 3257  21.897  14.829  15.155  0.2804 -0.0810  0.2396
51629OCT     C2 3258  21.473  14.867  15.364  0.1347 -0.6177  0.1912
51630OCT     C1 3259  21.910  13.928  22.047 -0.3401  0.1461 -0.0117
51630OCT     C2 3260  22.188  13.542  21.854 -0.2548 -0.0918 -0.1277
51631OCT     C1 3261  18.429  14.515  14.049  0.1593  0.1667 -0.0857
51631OCT     C2 3262  18.628  14.085  14.034 -0.0750 -0.1782 -0.1676
51632OCT     C1 3263  17.111   2.684   8.775  0.2474 -0.2143  0.4654
51632OCT     C2 3264  16.778   2.428   8.566 -0.2538 -0.0568 -0.1865
51633OCT     C1 3265   3.403  10.134  16.407  0.1980  0.2544  0.1841
51633OCT     C2 3266   3.460   9.799  16.747 -0.1824  0.0916 -0.2259
51634OCT     C1 3267   9.891  10.908  16.250  0.4203 -0.1996 -0.2309
51634OCT     C2 3268   9.835  10.478  16.388 -0.1180 -0.1589 -0.0952
51635OCT     C1 3269  19.575  12.367  12.084 -0.0068 -0.2422  0.2425
51635OCT     C2 3270  19.882  12.170  11.806 -0.0477  0.0474  0.4784
51636OCT     C1 3271   0.146  14.250   6.298 -0.0709  0.1222 -0.0721
51636OCT     C2 3272   0.206  14.365   5.820 -0.1633  0.1003  0.0203
51637OCT     C1 3273   2.304   2.804   6.361  0.1212 -0.1457  0.1495
51637OCT     C2 3274   1.861   2.864   6.450  0.0005  0.0029  0.2088
51638OCT     C1 3275  19.165  18.960  20.193 -0.2333 -0.0957 -0.0991
51638OCT     C2 3276  19.124  18.511  20.125 -0.0989  0.1010  0.1248
51639OCT     C1 3277  20.431  18.980   0.553  0.1320 -0.1538 -0.1036
51639OCT     C2 3278  20.456  19.103   0.110 -0.0288 -0.1061 -0.2704
51640OCT     C1 3279  23.381  18.032   3.726 -0.1918  0.0762  0.0324
51640OCT     C2 3280  23.329  17.588   3.596  0.3629  0.1266  0.4019
51641OCT     C1 3281  19.341   9.037   3.327 -0.0800 -0.1706 -0.1216
51641OCT     C2 3282  19.325   8.706   2.981  0.2146  0.1944  0.0215
51642OCT     C1 3283   6.093   0.642  20.798 -0.1386 -0.1319  0.2801
51642OCT     C2 3284   5.882   0.558  20.322 -0.0685  0.0640 -0.2227
51643OCT     C1 3285   0.812  23.594  22.725 -0.0211  0.1678 -0.1923
51643OCT     C2 3286   0.990  23.265  22.391  0.2769 -0.1516 -0.0444
51644OCT     C1 3287   3.358  21.826  16.986 -0.2755  0.0014 -0.5711
51644OCT     C2 3288   3.298  22.100  16.669  0.0999 -0.0001  0.2166
51645OCT     C1 3289  12.673   9.349  12.301 -0.3186 -0.2593  0.1218
51645OCT     C2 3290  13.066   9.404  12.484  0.2640  0.0752 -0.4942
51646OCT     C1 3291  10.516  21.849   8.464 -0.0463 -0.1012  0.2875
51646OCT     C2 3292  10.755  22.189   8.223  0.1705 -0.1634  0.3176
51647OCT     C1 3293  21.919  12.771   5.592 -0.1157  0.2656  0.0569
51647OCT     C2 3294  21.510  12.981   5.607  0.0754 -0.0219 -0.5220
51648OCT     C1 3295   7.926  16.818  15.085  0.0840 -0.4311 -0.4448
51648OCT     C2 3296   7.805  16.821  14.633 -0.0137  0.2147  0.2185
51649OCT     C1 3297   4.954  11.746   6.576  0.0087  0.2335  0.0465
51649OCT     C2 3298   4.838  12.038   6.213 -0.1586 -0.0548  0.0834
51650OCT     C1 3299  11.457   5.605  17.517 -0.1287  0.1517 -0.0383
51650OCT     C2 3300  11.101   5.409  17.271  0.1940 -0.0761 -0.1882
51651OCT     C1 3301  18.029   3.653  19.923  0.4047 -0.5551  0.2746
51651OCT     C2 3302  18.087   3.253  20.186  0.2859  0.1181  0.0000
51652OCT     C1 3303   5.990   5.650   2.833  0.1201 -0.0649 -0.0856
51652OCT     C2 3304   6.206   5.496   2.433 -0.0572  0.0934  0.5407
51653OCT     C1 3305  21.150  17.994   2.856  0.1591 -0.2847 -0.0685
51653OCT     C2 3306  20.814  18.240   2.964 -0.2045  0.2194  0.1150
51654OCT     C1 3307   6.708   8.659  13.954 -0.0042 -0.2129 -0.2330
51654OCT     C2 3308   6.816   8.483  13.537  0.0675  0.0720  0.3673
51655OCT     C1 3309   6.251  12.790  20.728 -0.0484 -0.1105  0.4882
51655OCT     C2 3310   6.152  12.688  20.267 -0.0903 -0.2393  0.4225
51656OCT     C1 3311   4.937   6.059   7.696 -0.0130 -0.0257 -0.1163
51656OCT     C2 3312   5.242   6.169   8.029  0.1549 -0.1096  0.0874
51657OCT     C1 3313   1.485   5.635   4.249 -0.0772 -0.0368 -0.2321
51657OCT     C2 3314   1.598   6.050   4.017  0.1589  0.2683  0.0897
51658OCT     C1 3315  10.060   2.973  10.206  0.1858 -0.0165 -0.0267
51658OCT     C2 3316   9.871   3.016   9.761  0.3376 -0.2307 -0.1350
51659OCT     C1 3317  17.334  11.500  17.457  0.0169  0.0384 -0.3788
51659OCT     C2 3318  17.572  11.251  17.766  0.4436 -0.2604  0.0951
51660OCT     C1 3319   6.100   9.769   3.716 -0.1942 -0.2946  0.0053
51660OCT     C2 3320   6.103   9.440   3.416  0.0055  0.2650 -0.0999
51661OCT     C1 3321  18.608  15.604   9.818 -0.0882 -0.0736  0.2159
51661OCT     C2 3322  18.383  15.421   9.447 -0.0575 -0.0453  0.1573
51662OCT     C1 3323  14.814  20.146  18.012 -0.0701 -0.1120  0.1626
51662OCT     C2 3324  14.516  20.548  17.971  0.3849  0.5585  0.1962
51663OCT     C1 3325   2.528  12.559  21.546 -0.2449  0.2106  0.3471
51663OCT     C2 3326   2.525  13.031  21.480 -0.1195 -0.1296  0.1750
51664OCT     C1 3327   0.534  23.317  20.076  0.1697 -0.0223 -0.0477
51664OCT     C2 3328   0.678  23.236  19.692  0.0285 -0.5675  0.1050
51665OCT     C1 3329  10.418   4.328   8.894 -0.1353 -0.1393  0.4215
51665OCT     C2 3330  10.667   3.948   9.132 -0.0885  0.3546 -0.0126
51666OCT     C1 3331  10.093  15.941  21.431  0.2488 -0.2785 -0.0226
51666OCT     C2 3332  10.051  15.500  21.299  0.0867  0.1090 -0.0590
51667OCT     C1 3333  19.256  14.120  17.625  0.0384  0.1803 -0.0774
51667OCT     C2 3334  19.088  14.519  17.801 -0.0534 -0.1177 -0.5154
51668OCT     C1 3335   0.507   0.514   4.225 -0.1705  0.1427  0.2169
51668OCT     C2 3336   0.543   0.144   4.442 -0.0014 -0.2456 -0.0032
51669OCT     C1 3337  14.640  19.497  16.875 -0.0716 -0.0972 -0.1605
51669OCT     C2 3338  14.475  19.044  16.957  0.3236  0.2370 -0.1630
51670OCT     C1 3339   1.298   5.399  14.775  0.1794 -0.0645  0.1195
51670OCT     C2 3340   1.703   5.161  14.627 -0.0702  0.1792 -0.4396
51671OCT     C1 3341  23.594  10.514  10.311 -0.5275  0.0792 -0.4249
51671OCT     C2 3342  23.402  10.717  10.721  0.2684 -0.3043 -0.0053
51672OCT     C1 3343   2.531   8.065   0.073 -0.2786 -0.1619 -0.0705
51672OCT     C2 3344   2.466   8.211  23.380  0.2909  0.1802  0.1382
51673OCT     C1 3345  17.193   0.885  12.699  0.0336  0.2830 -0.1713
51673OCT     C2 3346  17.636   0.935  12.977 -0.2143  0.1873 -0.5267
51674OCT     C1 3347  13.479  15.461   1.778 -0.1417  0.2102 -0.0958
51674OCT     C2 3348  13.797  15.823   1.758  0.1734  0.1633 -0.0358
51675OCT     C1 3349   1.625  12.852  11.957 -0.2959  0.0780 -0.1785
51675OCT     C2 3350   1.919  12.719  11.666  0.1430  0.1485  0.2226
51676OCT     C1 3351   7.061   5.177   9.729 -0.0466 -0.0983 -0.1308
51676OCT     C2 3352   6.785   5.512   9.573  0.0479 -0.2552 -0.0042
51677OCT     C1 3353  15.312   4.322  17.573  0.2016  0.0862 -0.2145
51677OCT     C2 3354  15.250   4.739  17.351  0.0053  0.0064 -0.1063
51678OCT     C1 3355  12.152  19.695   4.538  0.0792  0.2579  0.2390
51678OCT     C2 3356  11.763  19.991   4.377 -0.2174 -0.4018 -0.4165
51679OCT     C1 3357  22.993  11.144   5.083  0.0633 -0.0409  0.0087
51679OCT     C2 3358  22.732  10.818   5.250 -0.2614  0.7510  0.0425
51680OCT     C1 3359  17.246   5.640   0.407  0.1511  0.2951 -0.2663
51680OCT     C2 3360  17.099   5.647  23.717 -0.2774  0.1495 -0.2501
51681OCT     C1 3361  10.496  17.190  16.962  0.2225  0.2366 -0.1421
51681OCT     C2 3362  10.304  16.808  16.741 -0.2689 -0.2953  0.0373
51682OCT     C1 3363   9.503  23.461  12.646  0.3007 -0.1025 -0.0353
51682OCT     C2 3364   9.902  23.360  12.436 -0.0251 -0.0144  0.3016
51683OCT     C1 3365  11.997  17.051  20.308  0.0483 -0.0848 -0.0998
51683OCT     C2 3366  11.563  16.907  20.169  0.3721 -0.0038 -0.4203
51684OCT     C1 3367  14.636   8.329   5.923  0.1689  0.0467  0.1398
51684OCT     C2 3368  14.581   8.539   6.321 -0.2382  0.2665 -0.4013
51685OCT     C1 3369   8.189  10.711  12.825 -0.1192  0.2501 -0.1673
51685OCT     C2 3370   7.853  11.095  12.762 -0.0693 -0.4706 -0.4094
51686OCT     C1 3371   6.362  19.163  15.415 -0.0001  0.0362  0.0311
51686OCT     C2 3372   6.211  19.575  15.609 -0.0982  0.1678 -0.1448
51687OCT     C1 3373   2.135   9.660   6.703  0.0103  0.1048  0.0986
51687OCT     C2 3374   1.742   9.899   6.752  0.2559 -0.4149 -0.3458
51688OCT     C1 3375  11.834  13.144   8.249 -0.1106 -0.1594  0.1449
51688OCT     C2 3376  12.051  13.027   8.613 -0.0803 -0.2328 -0.1736
51689OCT     C1 3377   2.796  15.408   5.092 -0.1503 -0.0913  0.0701
51689OCT     C2 3378   2.838  15.089   5.436 -0.3176 -0.0181 -0.1754
51690OCT     C1 3379  17.395  19.984   7.894  0.0145 -0.2219  0.2380
51690OCT     C2 3380  16.941  19.829   7.847  0.0109  0.0682 -0.1807
51691OCT     C1 3381   5.231   2.928  17.073 -0.0173  0.1371 -0.2514
51691OCT     C2 3382   5.244   3.344  17.163 -0.1621 -0.0931  0.1219
51692OCT     C1 3383  10.937  18.227  21.617  0.0777  0.1001 -0.0881
51692OCT     C2 3384  10.847  17.947  21.983 -0.2547 -0.0709 -0.3770
51693OCT     C1 3385  11.438   2.340   1.465  0.1679 -0.1920  0.0373
51693OCT     C2 3386  11.682   2.740   1.251 -0.1746 -0.0012  0.0777
51694OCT     C1 3387   8.978   5.970  10.245 -0.1948 -0.1111  0.0439
51694OCT     C2 3388   9.073   6.167  10.633 -0.1868  0.5807  0.1145
51695OCT     C1 3389   7.845  20.221   7.568  0.0167  0.2898  0.3947
51695OCT     C2 3390   8.085  19.872   7.625 -0.2020 -0.0411  0.1671
51696OCT     C1 3391  13.902  22.633   0.351  0.0244 -0.1576  0.2583
51696OCT     C2 3392  14.202  22.710  23.737  0.2659  0.0516 -0.0244
51697OCT     C1 3393  23.329  21.573  21.049 -0.2067  0.4178 -0.0370
51697OCT     C2 3394  23.079  21.181  20.989 -0.0580 -0.0438  0.2208
51698OCT     C1 3395  21.426  18.805  13.489 -0.1415  0.0190  0.4255
51698OCT     C2 3396  21.282  18.801  13.008 -0.0717  0.1314  0.0317
51699OCT     C1 3397   4.402   0.971   1.193 -0.6044 -0.3922 -0.3033
51699OCT     C2 3398   4.320   1.022   0.716  0.2260  0.0537 -0.0087
51700OCT     C1 3399  13.466  10.009  13.374 -0.0718  0.3540 -0.0151
51700OCT     C2 3400  13.840   9.804  13.374 -0.0812  0.0898  0.0545
51701OCT     C1 3401  12.720  12.104  22.912  0.3040  0.1787  0.1283
51701OCT     C2 3402  13.148  12.006  23.017 -0.0011  0.0734 -0.0100
51702OCT     C1 3403   2.512  21.042  13.285 -0.2688  0.0401  0.1957
51702OCT     C2 3404   2.504  21.517  13.202  0.1032  0.2116 -0.3012
51703OCT     C1 3405  15.349  20.912  13.196 -0.1066  0.0157 -0.0202
51703OCT     C2 3406  15.265  21.084  13.703 -0.4369 -0.0615  0.2312
51704OCT     C1 3407   5.483  15.299   6.325 -0.2101  0.0125 -0.2786
51704OCT     C2 3408   5.939  15.256   6.249 -0.0223 -0.0920  0.2151
51705OCT     C1 3409  21.204   8.695   5.590  0.1718  0.1872  0.1689
51705OCT     C2 3410  21.607   8.676   5.353  0.0878  0.2891  0.1702
51706OCT     C1 3411  22.645  14.888  23.070  0.1147 -0.0669  0.1107
51706OCT     C2 3412  22.317  14.834  22.793 -0.1512  0.1566 -0.2045
51707OCT     C1 3413   1.894  22.989  14.829 -0.3969  0.2031  0.1518
51707OCT     C2 3414   1.979  22.634  14.538  0.0312 -0.0725  0.1919
51708OCT     C1 3415   3.723  11.527   4.809  0.1162 -0.0387 -0.2557
51708OCT     C2 3416   3.584  11.215   5.208 -0.4212  0.0699 -0.2409
51709OCT     C1 3417  12.031   5.490  16.634 -0.2729  0.0251 -0.2926
51709OCT     C2 3418  11.846   5.048  16.661  0.2176 -0.0419 -0.2711
51710OCT     C1 3419   5.986   8.149  15.869 -0.0407  0.3123  0.1176
51710OCT     C2 3420   5.719   8.228  15.477  0.0580  0.0773 -0.2930
51711OCT     C1 3421  16.177  12.485   2.872 -0.1692  0.2318  0.1452
51711OCT     C2 3422  15.808  12.514   3.155 -0.2075  0.1281  0.1771
51712OCT     C1 3423   3.340  16.508  23.427 -0.0931 -0.0404 -0.1171
51712OCT     C2 3424   3.041  16.788  23.602 -0.2379 -0.0538  0.2237
51713OCT     C1 3425  23.404   1.330   7.073 -0.1515 -0.1168  0.0711
51713OCT     C2 3426  23.125   1.584   6.824 -0.0896 -0.0857  0.2385
51714OCT     C1 3427   2.189  10.229   0.819  0.0666  0.2593  0.3503
51714OCT     C2 3428   2.016  10.196   1.289 -0.0468  0.1452 -0.1224
51715OCT     C1 3429   0.787  23.431   8.253  0.3967  0.1015 -0.0306
51715OCT     C2 3430   0.402  23.185   8.104  0.0169 -0.0390  0.3199
51716OCT     C1 3431  16.353   2.166  12.971  0.0347  0.0076 -0.1860
51716OCT     C2 3432  16.398   1.859  13.334  0.0781  0.1010 -0.2186
51717OCT     C1 3433   7.161  15.048   8.303  0.2088 -0.1203 -0.0299
51717OCT     C2 3434   7.035  14.808   8.608  0.2355  0.2678 -0.2953
51718OCT     C1 3435  17.976  15.066  16.375  0.4107  0.1919 -0.0430
51718OCT     C2 3436  17.693  14.734  16.120  0.4430  0.1459  0.2949
51719OCT     C1 3437  18.619   5.032  14.900  0.4311  0.2275  0.1123
51719OCT     C2 3438  18.337   5.114  15.198  0.0802  0.2434  0.0525
51720OCT     C1 3439  15.062  23.101  21.289 -0.3526 -0.0459  0.2664
51720OCT     C2 3440  14.663  22.988  21.411  0.1885 -0.2317  0.1154
51721OCT     C1 3441  16.134  20.437   6.973 -0.0729  0.3662 -0.0715
51721OCT     C2 3442  16.328  20.104   7.247 -0.1975  0.0522  0.0972
51722OCT     C1 3443   6.185  18.785  17.262 -0.1264 -0.0011 -0.2075
51722OCT     C2 3444   6.111  18.722  17.746 -0.1408  0.0785  0.0189
51723OCT     C1 3445  18.331  17.261   2.504  0.1927 -0.0295  0.3574
51723OCT     C2 3446  18.026  17.314   2.135  0.1079 -0.1103  0.0099
51724OCT     C1 3447   8.953  17.989  23.163 -0.2491 -0.2311 -0.0096
51724OCT     C2 3448   8.971  18.129  22.731  0.0072  0.2261 -0.0343
51725OCT     C1 3449   9.035   5.913  17.209  0.5746  0.1238  0.1717
51725OCT     C2 3450   9.286   6.306  17.114  0.2396 -0.1402  0.0466
51726OCT     C1 3451  16.095  11.854  13.676  0.0583  0.2923 -0.1932
51726OCT     C2 3452  16.520  12.100  13.675  0.3552 -0.1459 -0.2100
51727OCT     C1 3453  19.622   0.024  16.404 -0.0708  0.1058 -0.2950
51727OCT     C2 3454  20.033  23.506  16.444  0.1118  0.1842 -0.1505
51728OCT     C1 3455  23.599   7.039   3.004 -0.1152  0.1662 -0.0489
51728OCT     C2 3456  23.269   7.042   2.741  0.1302 -0.0115 -0.1233
51729OCT     C1 3457   5.112  15.504  15.934 -0.1569  0.1283 -0.3917
51729OCT     C2 3458   5.259  15.591  16.323  0.0558  0.1877 -0.0148
51730OCT     C1 3459  18.014   0.484  22.424 -0.0500  0.1108 -0.2054
51730OCT     C2 3460  17.583   0.419  22.309  0.0484  0.0124 -0.1685
51731OCT     C1 3461   1.462  19.418  15.413  0.3710 -0.0902  0.0397
51731OCT     C2 3462   1.367  18.939  15.311  0.2230 -0.1881  0.1935
51732OCT     C1 3463   0.846   5.822  20.223  0.1823  0.4808 -0.2455
51732OCT     C2 3464   0.842   6.113  20.465  0.0645 -0.0830 -0.0259
51733OCT     C1 3465   1.160  20.600  19.104  0.3693 -0.0433  0.0190
51733OCT     C2 3466   1.290  20.448  18.692 -0.2441  0.0333 -0.0319
51734OCT     C1 3467  19.580  17.766  22.612  0.1666 -0.1638  0.1591
51734OCT     C2 3468  19.295  17.673  22.951  0.3330 -0.3300  0.0637
51735OCT     C1 3469  23.296   0.986   9.116  0.1259 -0.2790  0.4210
51735OCT     C2 3470  23.593   1.163   8.797 -0.0681  0.0797  0.2429
51736OCT     C1 3471  19.587   0.178   3.872  0.1578  0.0505  0.1460
51736OCT     C2 3472  19.146   0.280   3.636  0.1948  0.1423  0.1569
51737OCT     C1 3473  11.188   7.022   6.812 -0.0661 -0.5644  0.3867
51737OCT     C2 3474  10.763   6.759   6.868  0.1499  0.0393 -0.2060
51738OCT     C1 3475  18.471   2.144   8.218 -0.2835 -0.2353  0.1602
51738OCT     C2 3476  18.143   2.062   8.506  0.1300  0.1005  0.2297
51739OCT     C1 3477   4.356   8.466  19.592  0.0402 -0.2448  0.1932
51739OCT     C2 3478   4.479   7.996  19.675 -0.0167  0.1181 -0.0054
51740OCT     C1 3479  12.619   9.934  14.156 -0.2352 -0.2638 -0.1102
51740OCT     C2 3480  12.246   9.633  14.125  0.2783 -0.0618  0.2821
51741OCT     C1 3481  10.583  13.468   1.760  0.0943  0.1816  0.0700
51741OCT     C2 3482  10.385  13.279   2.100 -0.2973 -0.0246 -0.3474
51742OCT     C1 3483   6.413   9.061  13.969  0.3461 -0.1983 -0.0091
51742OCT     C2 3484   6.811   9.235  13.855 -0.0446  0.1358  0.0646
51743OCT     C1 3485  15.953   7.436   9.562 -0.1266 -0.4185 -0.2115
51743OCT     C2 3486  15.804   7.488   9.950 -0.2771 -0.1958  0.0013
51744OCT     C1 3487   4.833  14.696  15.507 -0.0319 -0.0318  0.2541
51744OCT     C2 3488   4.437  14.751  15.247 -0.1570  0.0412 -0.1967
51745OCT     C1 3489  18.430   3.401  22.020  0.1080  0.3484 -0.0437
51745OCT     C2 3490  18.083   3.072  21.912  0.0410 -0.1580  0.1060
51746OCT     C1 3491  10.242  15.233   2.853 -0.0502  0.1574 -0.2015
51746OCT     C2 3492  10.612  15.423   3.030 -0.2542  0.0191  0.1266
51747OCT     C1 3493  21.881  16.908   4.005  0.0154  0.2519 -0.0302
51747OCT     C2 3494  21.690  16.940   4.412  0.1042 -0.1277 -0.1690
51748OCT     C1 3495  23.725  19.165  22.718 -0.1945  0.0557 -0.2356
51748OCT     C2 3496  23.611  18.959  23.176 -0.0725  0.0903 -0.1890
51749OCT     C1 3497  18.666  21.580  16.299 -0.5296 -0.0217 -0.2819
51749OCT     C2 3498  18.899  21.975  16.135  0.0099 -0.0767  0.1099
51750OCT     C1 3499   7.735   4.184  11.804  0.1272 -0.1471 -0.0436
51750OCT     C2 3500   7.724   4.097  11.347 -0.4135 -0.0813  0.1401
51751OCT     C1 3501  10.030   8.648   9.447  0.3085 -0.1642 -0.8197
51751OCT     C2 3502   9.694   8.881   9.285 -0.1564 -0.0643 -0.3260
51752OCT     C1 3503   6.978  11.166   8.609  0.4103  0.1497 -0.2423
51752OCT     C2 3504   6.512  11.133   8.550  0.1355  0.1131 -0.2128
51753OCT     C1 3505  15.875   0.222   8.047  0.0700 -0.0112 -0.1012
51753OCT     C2 3506  16.284   0.358   8.149  0.1984  0.0107  0.0315
51754OCT     C1 3507   1.214  11.943   2.794 -0.1296 -0.1081 -0.1967
51754OCT     C2 3508   1.596  11.660   2.756  0.0439 -0.0822 -0.1432
51755OCT     C1 3509   4.286  17.631   2.997 -0.0198  0.2144  0.3169
51755OCT     C2 3510   4.708  17.485   2.851  0.0420 -0.0299 -0.4467
51756OCT     C1 3511   3.175  19.816  15.254 -0.0591  0.4071  0.0905
51756OCT     C2 3512   3.067  19.675  14.840  0.0130 -0.0394 -0.3173
51757OCT     C1 3513   8.333   4.121  19.860 -0.1351  0.2241  0.1581
51757OCT     C2 3514   8.843   4.107  19.831  0.3074  0.1235 -0.1966
51758OCT     C1 3515  15.659  11.914   1.801  0.3144 -0.2505  0.1063
51758OCT     C2 3516  15.216  12.077   1.946  0.2196 -0.0756 -0.2880
51759OCT     C1 3517  13.942  18.851  16.405 -0.0330  0.0389  0.1107
51759OCT     C2 3518  14.291  18.560  16.190 -0.2037 -0.0444 -0.0680
51760OCT     C1 3519  12.241  22.576  18.009  0.1989 -0.3009  0.2931
51760OCT     C2 3520  12.703  22.610  17.928  0.0421  0.0086 -0.1580
51761OCT     C1 3521   5.103  11.487  18.421 -0.2045  0.1602 -0.0598
51761OCT     C2 3522   4.696  11.545  18.631 -0.1242  0.5331  0.2102
51762OCT     C1 3523   9.283  13.548   9.081  0.0780  0.1701 -0.1912
51762OCT     C2 3524   9.356  13.834   8.717 -0.1938  0.1415  0.1002
51763OCT     C1 3525   6.649  21.032   0.017  0.1928  0.1574  0.1018
51763OCT     C2 3526   6.222  20.796  23.630 -0.1693  0.0196  0.1808
51764OCT     C1 3527   8.734  17.873  10.670  0.1441 -0.0355  0.2603
51764OCT     C2 3528   8.327  18.099  10.519 -0.3474  0.0341 -0.0839
51765OCT     C1 3529   5.793  23.277   7.778  0.5167 -0.0702  0.2161
51765OCT     C2 3530   5.614  23.150   7.330 -0.1003  0.1715 -0.0141
51766OCT     C1 3531   9.574  23.443   2.717 -0.2305 -0.2416  0.3543
51766OCT     C2 3532  10.021  23.268   2.649  0.0736 -0.3690 -0.1481
51767OCT     C1 3533  15.270   1.918   6.407 -0.0611  0.1055 -0.0262
51767OCT     C2 3534  15.263   1.844   6.817 -0.0572 -0.2287  0.5220
51768OCT     C1 3535   9.406  12.722  10.229  0.1128 -0.2090 -0.1885
51768OCT     C2 3536   9.655  12.709   9.865 -0.0626 -0.0923  0.1480
51769OCT     C1 3537   2.789  22.224  22.807 -0.0009 -0.1737 -0.0692
51769OCT     C2 3538   2.468  22.560  22.867 -0.2097  0.0695 -0.1023
51770OCT     C1 3539  21.994  20.319   3.649  0.4432  0.1168 -0.1045
51770OCT     C2 3540  22.379  20.397   3.909 -0.4665 -0.0054  0.0385
51771OCT     C1 3541   6.477  16.864  15.121  0.1855  0.0144  0.1330
51771OCT     C2 3542   6.393  17.307  15.163  0.2316 -0.3427 -0.4187
51772OCT     C1 3543  20.762  15.772  15.137 -0.5616 -0.1274 -0.0607
51772OCT     C2 3544  20.337  15.987  15.244  0.3353 -0.0510 -0.4142
51773OCT     C1 3545   2.574  14.628  15.677  0.2602  0.1920  0.0426
51773OCT     C2 3546   2.956  14.766  15.900 -0.0183 -0.1324 -0.0013
51774OCT     C1 3547  20.323  12.963   1.905  0.0728 -0.0571 -0.2968
51774OCT     C2 3548  19.893  12.880   1.675 -0.2725  0.0471  0.3212
51775OCT     C1 3549   4.585  23.699   1.924  0.2458  0.2235 -0.1992
51775OCT     C2 3550   4.626  23.297   1.654  0.3163  0.1001  0.2656
51776OCT     C1 3551  19.635  19.379   7.871  0.2054  0.3126 -0.4195
51776OCT     C2 3552  19.361  19.624   8.188 -0.3170  0.1787  0.3136
51777OCT     C1 3553   7.580  21.031   3.196  0.2775 -0.2801 -0.1773
51777OCT     C2 3554   7.938  21.223   2.918  0.0563 -0.0238  0.0796
51778OCT     C1 3555   2.638  22.161   8.337  0.0169  0.0734 -0.0820
51778OCT     C2 3556   2.697  21.692   8.195  0.0519 -0.0065 -0.0486
51779OCT     C1 3557   1.502  13.823   6.383  0.3449 -0.1357  0.0603
51779OCT     C2 3558   1.425  13.393   6.246  0.3890 -0.0802 -0.1243
51780OCT     C1 3559   6.636  15.787  12.578  0.0274  0.1029 -0.2891
51780OCT     C2 3560   6.435  16.209  12.762 -0.1350  0.2241 -0.1414
51781OCT     C1 3561   4.010  16.430   7.683 -0.1074  0.2815 -0.0316
51781OCT     C2 3562   4.077  16.613   7.262 -0.2600 -0.1170  0.2432
51782OCT     C1 3563  10.815  16.566   8.451 -0.0015  0.2147  0.2442
51782OCT     C2 3564  11.301  16.611   8.627  0.1923 -0.0992 -0.1944
51783OCT     C1 3565   7.383   2.921   4.596 -0.2275 -0.0004  0.0432
51783OCT     C2 3566   7.264   2.708   4.133 -0.3756  0.2222 -0.0182
51784OCT     C1 3567  13.431   1.992   0.331  0.0758 -0.2246 -0.3354
51784OCT     C2 3568  13.812   2.008   0.573 -0.0926 -0.3340 -0.3409
51785OCT     C1 3569  18.726  10.864   9.473 -0.2900 -0.2724  0.3921
51785OCT     C2 3570  19.089  10.667   9.626 -0.1534  0.2336 -0.1343
51786OCT     C1 3571  17.138   9.789   3.471 -0.4660  0.1676  0.1107
51786OCT     C2 3572  16.783   9.979   3.281 -0.0377 -0.0330  0.2839
51787OCT     C1 3573  21.526   3.345   3.829 -0.1483 -0.3222 -0.1728
51787OCT     C2 3574  21.079   3.172   3.833  0.2210 -0.0109  0.0419
51788OCT     C1 3575  10.443   9.549  20.196  0.1946 -0.1765 -0.0899
51788OCT     C2 3576  10.602   9.899  19.880 -0.0372  0.3481  0.2074
51789OCT     C1 3577   3.471   5.512  19.879  0.0328 -0.0431  0.0464
51789OCT     C2 3578   3.930   5.385  19.964 -0.1386 -0.0722 -0.1218
51790OCT     C1 3579  21.635  23.720   3.789  0.0053  0.1030 -0.1367
51790OCT     C2 3580  21.976   0.289   3.724  0.0826 -0.0189 -0.0190
51791OCT     C1 3581  11.659  13.335  20.474 -0.1920  0.0867 -0.2203
51791OCT     C2 3582  12.006  13.183  20.773 -0.1247  0.0607 -0.2668
51792OCT     C1 3583   1.046  21.211   3.013  0.2924  0.1552 -0.1391
51792OCT     C2 3584   0.967  21.676   3.081 -0.2659  0.2618  0.2113
51793OCT     C1 3585   4.382  12.476   7.266  0.0750 -0.2467  0.0890
51793OCT     C2 3586   4.035  12.553   7.596 -0.3733 -0.0093 -0.4232
51794OCT     C1 3587  15.100  14.204   0.692  0.0610  0.0723 -0.1741
51794OCT     C2 3588  15.287  14.609   0.507  0.1757 -0.0535 -0.2972
51795OCT     C1 3589   6.316  14.684   5.653  0.0880  0.5567  0.1531
51795OCT     C2 3590   6.607  14.385   5.802 -0.0403 -0.1269  0.0209
51796OCT     C1 3591  21.591  15.624  20.664  0.0561 -0.3031  0.0343
51796OCT     C2 3592  21.652  15.249  20.391  0.2312  0.7365 -0.0177
51797OCT     C1 3593  23.740   4.642   8.095  0.1602 -0.3006 -0.0305
51797OCT     C2 3594   0.021   4.384   8.469 -0.3242  0.1825 -0.2481
51798OCT     C1 3595   1.755  20.594  23.052  0.0750  0.0006 -0.1192
51798OCT     C2 3596   1.780  20.847  23.437 -0.4222 -0.2426 -0.3071
51799OCT     C1 3597  22.568  16.076   8.920 -0.0823 -0.0744 -0.1864
51799OCT     C2 3598  22.958  15.840   8.775 -0.1324 -0.0589  0.3471
51800OCT     C1 3599  19.419   0.941   5.640  0.0203  0.3393  0.1060
51800OCT     C2 3600  19.278   0.644   5.965  0.0564  0.3609 -0.2545
51801OCT     C1 3601  10.922  23.133  10.862 -0.0504 -0.0411 -0.1288
51801OCT     C2 3602  10.454  23.085  10.785  0.0102  0.0905  0.1101
51802OCT     C1 3603  16.206   1.020  23.065 -0.2871 -0.1253  0.0323
51802OCT     C2 3604  16.065   0.587  22.918  0.2579  0.0655 -0.0522
51803OCT     C1 3605   5.007   0.184  18.684  0.1107  0.0281  0.1144
51803OCT     C2 3606   5.215  23.727  19.032 -0.0422  0.2294 -0.0226
51804OCT     C1 3607  21.465  21.239   3.163  0.3919  0.1385  0.1189
51804OCT     C2 3608  21.831  21.507   3.329  0.2004  0.3879  0.1190
51805OCT     C1 3609   7.022   3.988   2.847  0.1428 -0.0301  0.2200
51805OCT     C2 3610   6.606   3.756   2.937  0.0570  0.2675 -0.0689
51806OCT     C1 3611   3.040  10.811   2.817  0.0289 -0.1337 -0.3465
51806OCT     C2 3612   3.432  10.845   2.599 -0.0214 -0.0477  0.0822
51807OCT     C1 3613   0.449   3.754  20.208  0.2576  0.0288 -0.3429
51807OCT     C2 3614   0.711   4.123  20.072 -0.0939  0.2736 -0.2774
51808OCT     C1 3615  14.192  18.139   5.055 -0.2752  0.1166 -0.1347
51808OCT     C2 3616  13.832  17.827   5.201 -0.1913 -0.0720 -0.0581
51809OCT     C1 3617  21.858   8.869  21.455 -0.5825  0.1547  0.1186
51809OCT     C2 3618  21.882   8.909  20.963 -0.1967  0.0442 -0.2739
51810OCT     C1 3619  10.575   1.423  21.975 -0.2160 -0.1731  0.1443
51810OCT     C2 3620  10.285   1.256  21.636  0.0053  0.2709  0.2150
51811OCT     C1 3621  21.788  22.358  15.230 -0.2304  0.2105 -0.1589
51811OCT     C2 3622  21.703  22.490  15.695 -0.0830 -0.2012  0.3732
51812OCT     C1 3623  20.270  22.150  20.635 -0.1371 -0.1437 -0.0236
51812OCT     C2 3624  20.722  21.934  20.679  0.3368  0.0302  0.3667
51813OCT     C1 3625   0.088  15.057   2.580  0.3054 -0.2122  0.0596
51813OCT     C2 3626  23.469  15.167   2.813 -0.0542  0.0310 -0.2026
51814OCT     C1 3627  22.896  21.663   3.628  0.1095 -0.0135  0.0980
51814OCT     C2 3628  22.700  21.840   3.224 -0.2225 -0.1515 -0.0293
51815OCT     C1 3629   0.515   7.887   9.920 -0.0027 -0.3890  0.1319
51815OCT     C2 3630   0.628   7.486   9.678  0.0275  0.3787 -0.2290
51816OCT     C1 3631  14.942  13.805  19.455  0.0178 -0.3811  0.1479
51816OCT     C2 3632  14.774  13.370  19.436  0.0699 -0.4166  0.5292
51817OCT     C1 3633   3.105   9.425  11.228 -0.1071  0.5443 -0.2260
51817OCT     C2 3634   3.252   9.048  11.582  0.2181 -0.0643  0.4687
51818OCT     C1 3635  16.176  16.872   5.205  0.0312  0.2385  0.2934
51818OCT     C2 3636  16.018  17.305   5.245  0.0233 -0.1039  0.0323
51819OCT     C1 3637   2.444  13.079  10.031  0.0966 -0.0706 -0.4099
51819OCT     C2 3638   2.094  13.181  10.365  0.0417 -0.0356  0.0398
51820OCT     C1 3639   4.082   2.941  19.440 -0.0194  0.0762  0.0603
51820OCT     C2 3640   4.473   3.011  19.118  0.5163  0.1541  0.0420
51821OCT     C1 3641  13.316   5.900   2.831 -0.2097 -0.2739  0.0517
51821OCT     C2 3642  12.929   5.700   2.663 -0.3218 -0.3038 -0.0821
51822OCT     C1 3643   5.536   9.574   3.260 -0.2107 -0.2977 -0.1718
51822OCT     C2 3644   5.852   9.856   3.011 -0.0901 -0.0803  0.0721
51823OCT     C1 3645  11.999   7.271  17.860  0.4463  0.1355 -0.2118
51823OCT     C2 3646  11.998   6.956  17.520 -0.1606 -0.0409  0.0734
51824OCT     C1 3647  17.866  17.134   0.299 -0.3717 -0.0214  0.0114
51824OCT     C2 3648  17.881  16.763   0.563 -0.2513 -0.3583  0.1040
51825OCT     C1 3649  14.602  21.498  17.005  0.0843 -0.2776  0.0641
51825OCT     C2 3650  14.424  21.192  17.301 -0.1947 -0.2621 -0.0593
51826OCT     C1 3651  14.572  11.069  17.414 -0.0049  0.2872 -0.0944
51826OCT     C2 3652  14.332  11.187  17.042  0.0444  0.1331 -0.1145
51827OCT     C1 3653  18.352  15.560  11.065 -0.0626 -0.0656  0.0961
51827OCT     C2 3654  18.252  15.142  11.287  0.1318  0.1090  0.2123
51828OCT     C1 3655  12.656  20.054  11.570 -0.0597  0.1835  0.2403
51828OCT     C2 3656  13.026  20.343  11.743 -0.0171  0.3155 -0.0304
51829OCT     C1 3657  13.169  17.864   2.437 -0.0790 -0.0827 -0.0619
51829OCT     C2 3658  13.021  17.618   2.832 -0.0730 -0.0197 -0.0539
51830OCT     C1 3659  19.900   9.049   1.982 -0.0747  0.1458 -0.0952
51830OCT     C2 3660  20.192   8.922   2.383 -0.1738 -0.0989 -0.0542
51831OCT     C1 3661  23.252  22.525   7.332 -0.0643  0.0307 -0.1374
51831OCT     C2 3662  23.658  22.674   7.145  0.0510 -0.1432  0.0287
51832OCT     C1 3663  16.893  19.466   8.914  0.2640  0.4637  0.0512
51832OCT     C2 3664  16.692  19.053   9.044 -0.1977 -0.0049 -0.1897
51833OCT     C1 3665  22.978   5.854  23.640 -0.3042 -0.3608  0.2826
51833OCT     C2 3666  23.445   5.800  23.691 -0.1562  0.2110  0.2422
51834OCT     C1 3667  22.648   6.481  21.624  0.1396  0.1403  0.0954
51834OCT     C2 3668  22.480   6.068  21.625 -0.3477  0.0443 -0.1676
51835OCT     C1 3669   3.278   4.830   2.983  0.4005  0.0130 -0.1383
51835OCT     C2 3670   2.844   5.054   2.870 -0.1473  0.2836 -0.1147
51836OCT     C1 3671   4.741   4.450  17.476 -0.1965  0.1384  0.0903
51836OCT     C2 3672   4.477   4.146  17.248  0.0199  0.0986 -0.2734
51837OCT     C1 3673  20.617  22.545  15.367 -0.0469  0.1845  0.3314
51837OCT     C2 3674  20.854  22.623  14.953 -0.0018  0.0487 -0.1650
51838OCT     C1 3675  21.802   4.042   8.952  0.3012 -0.0668  0.1685
51838OCT     C2 3676  21.846   3.589   8.835 -0.2695 -0.0413 -0.3189
51839OCT     C1 3677   8.273  17.685  22.354 -0.3988  0.1288  0.0917
51839OCT     C2 3678   8.476  17.295  22.609 -0.0010  0.1069  0.4840
51840OCT     C1 3679  10.213  19.455   2.621 -0.0904 -0.1470 -0.0282
51840OCT     C2 3680  10.477  19.815   2.528  0.1989  0.1257  0.2208
51841OCT     C1 3681   2.951  20.314  18.341 -0.1665 -0.2061  0.3108
51841OCT     C2 3682   2.738  19.899  18.224  0.0526  0.1307  0.1676
51842OCT     C1 3683  22.622  23.323  13.057  0.2849 -0.0474 -0.1734
51842OCT     C2 3684  22.423  23.058  12.683  0.3539  0.3692  0.1796
51843OCT     C1 3685  16.931   1.671  18.893 -0.1651  0.0294  0.1590
51843OCT     C2 3686  16.505   1.787  18.941 -0.1363 -0.1063  0.0740
51844OCT     C1 3687  17.810  14.363   2.218  0.3729  0.3140  0.0049
51844OCT     C2 3688  18.177  14.529   2.524  0.1601 -0.0245 -0.0797
51845OCT     C1 3689   2.531  17.811  15.471  0.0181  0.2538  0.2245
51845OCT     C2 3690   2.516  18.082  15.821 -0.4210 -0.0075 -0.0431
51846OCT     C1 3691  21.206  21.568   4.543 -0.0190 -0.0592 -0.4081
51846OCT     C2 3692  20.976  21.810   4.872 -0.2079 -0.1210  0.0475
51847OCT     C1 3693  19.749   8.564  18.593 -0.3085  0.1292 -0.3771
51847OCT     C2 3694  19.417   8.308  18.870  0.1697  0.5236 -0.0973
51848OCT     C1 3695  13.237   4.791   0.706 -0.1447 -0.0548 -0.1663
51848OCT     C2 3696  13.313   4.353   0.831  0.0991 -0.0199  0.1767
51849OCT     C1 3697  13.578  12.402  10.474  0.0566 -0.0725 -0.1483
51849OCT     C2 3698  13.429  12.049  10.168 -0.2248 -0.0287 -0.6881
51850OCT     C1 3699  12.808   3.410   4.141 -0.1917  0.1895 -0.0556
51850OCT     C2 3700  12.825   3.836   4.164  0.0588 -0.0493  0.0065
51851OCT     C1 3701  11.127  21.748   1.715 -0.1501 -0.0047  0.0286
51851OCT     C2 3702  11.021  21.502   1.305 -0.1144 -0.2230 -0.0004
51852OCT     C1 3703   9.329   4.301   7.398 -0.1590 -0.0976  0.1008
51852OCT     C2 3704   9.768   4.394   7.473  0.1100  0.0797  0.4141
51853OCT     C1 3705  12.373  10.521  11.775 -0.1417  0.3288 -0.0302
51853OCT     C2 3706  12.220  10.294  12.131  0.0995 -0.1392 -0.1016
51854OCT     C1 3707  13.122  16.054  14.120  0.2362 -0.0143 -0.0959
51854OCT     C2 3708  13.466  16.331  14.143  0.0243 -0.2574  0.0284
51855OCT     C1 3709   3.951   1.771   2.756  0.3267  0.0668 -0.4006
51855OCT     C2 3710   3.787   2.224   2.753  0.1541  0.1712 -0.1317
51856OCT     C1 3711  12.464   0.509   2.301  0.3297  0.1716  0.6457
51856OCT     C2 3712  12.321   0.920   2.340  0.1221  0.1987  0.1901
51857OCT     C1 3713  19.546  16.874   4.018 -0.1208  0.0605  0.1159
51857OCT     C2 3714  19.280  16.678   4.255 -0.2125 -0.0037  0.2559
51858OCT     C1 3715  13.517   6.589  19.770 -0.3001  0.1452 -0.0982
51858OCT     C2 3716  13.049   6.747  19.658 -0.1003  0.0086 -0.0511
51859OCT     C1 3717   9.938   7.576   1.788  0.0222  0.2726  0.1822
51859OCT     C2 3718  10.104   7.998   1.837 -0.1052  0.2415  0.0184
51860OCT     C1 3719   1.457  13.890  16.413 -0.0835 -0.1255 -0.0441
51860OCT     C2 3720   1.835  13.611  16.527 -0.2503  0.0490  0.1611
51861OCT     C1 3721   0.864   1.099  20.569 -0.1089 -0.0411 -0.1199
51861OCT     C2 3722   0.445   1.350  20.556 -0.2156 -0.0299 -0.1856
51862OCT     C1 3723  18.844  19.017  15.233  0.0489 -0.2176  0.1643
51862OCT     C2 3724  18.371  18.989  15.156  0.2836  0.2964 -0.1716
51863OCT     C1 3725  23.268   4.207  13.351 -0.2994  0.5073 -0.1270
51863OCT     C2 3726  22.909   4.000  13.128 -0.2729 -0.2658  0.3214
51864OCT     C1 3727  10.012   2.520  12.381 -0.3654 -0.0556 -0.0268
51864OCT     C2 3728   9.932   2.333  12.801 -0.2237 -0.2445  0.1275
51865OCT     C1 3729  23.481  20.069  10.491 -0.1103  0.0870 -0.2016
51865OCT     C2 3730  23.644  20.232  10.897  0.6320  0.3738  0.2685
51866OCT     C1 3731  20.850   2.336  15.809 -0.1528  0.1721 -0.3794
51866OCT     C2 3732  21.182   2.325  15.504 -0.1026 -0.0311 -0.2549
51867OCT     C1 3733  20.167  12.888  21.444 -0.2001 -0.2612  0.1750
51867OCT     C2 3734  20.257  12.992  21.887  0.2045 -0.0082  0.1283
51868OCT     C1 3735  20.083   0.543  14.077 -0.0349 -0.0204  0.0023
51868OCT     C2 3736  19.959   0.203  14.378  0.2287 -0.1788 -0.0150
51869OCT     C1 3737  12.687  13.710   0.358 -0.3281 -0.1680  0.0994
51869OCT     C2 3738  13.128  13.700   0.287 -0.0585  0.1987  0.1258
51870OCT     C1 3739   9.617  23.234  14.707  0.3883  0.0954  0.0024
51870OCT     C2 3740   9.203  23.371  14.577 -0.1260 -0.0777 -0.0072
51871OCT     C1 3741   1.767   5.545   6.032 -0.2137 -0.0351  0.1205
51871OCT     C2 3742   2.166   5.362   5.744  0.2016 -0.1384  0.0197
51872OCT     C1 3743  21.825   2.479   8.720  0.2406 -0.0670  0.1433
51872OCT     C2 3744  21.550   2.285   9.063 -0.0357 -0.3372  0.1759
51873OCT     C1 3745   0.953  17.577  23.107  0.0145 -0.0073  0.0550
51873OCT     C2 3746   1.374  17.806  23.250  0.0386 -0.0470 -0.1519
51874OCT     C1 3747  23.662  12.435   4.977 -0.0723  0.1611  0.2139
51874OCT     C2 3748   0.299  12.292   5.215  0.0244 -0.0674 -0.2126
51875OCT     C1 3749  20.020  13.741   7.729  0.0674  0.5122 -0.1891
51875OCT     C2 3750  20.387  13.735   8.090 -0.1102  0.2678 -0.0051
51876OCT     C1 3751   0.826   5.585   3.896 -0.2456 -0.1558 -0.1659
51876OCT     C2 3752   0.830   5.313   3.552 -0.1664  0.0161 -0.2105
51877OCT     C1 3753   8.373  19.747   3.912 -0.0981 -0.0590  0.0288
51877OCT     C2 3754   8.570  19.402   3.626 -0.2358 -0.0010 -0.0782
51878OCT     C1 3755   3.644  20.023   1.523  0.0138 -0.0731 -0.2535
51878OCT     C2 3756   3.862  19.807   1.193  0.1193  0.4980  0.0731
51879OCT     C1 3757   0.952  12.249   4.390  0.0403 -0.0640 -0.1078
51879OCT     C2 3758   0.890  12.216   3.922  0.1950 -0.0224  0.1230
51880OCT     C1 3759  10.461   8.971   9.659 -0.3015 -0.3071  0.0635
51880OCT     C2 3760  10.680   8.675   9.399  0.0666 -0.3032 -0.5770
51881OCT     C1 3761  19.358  20.340   2.182  0.1903  0.3087  0.0520
51881OCT     C2 3762  19.553  20.201   2.584  0.1444  0.2174  0.3075
51882OCT     C1 3763  10.506   4.892  18.882 -0.1451  0.5866  0.0837
51882OCT     C2 3764  10.201   5.059  18.603  0.0117  0.0309 -0.1507
51883OCT     C1 3765   5.975  21.861  14.675 -0.0635 -0.1813  0.0471
51883OCT     C2 3766   5.614  21.637  14.410  0.1262  0.1461 -0.1220
51884OCT     C1 3767  10.971   7.429  11.113  0.1680 -0.2966 -0.2445
51884OCT     C2 3768  11.290   7.088  11.127 -0.0591  0.0911  0.2388
51885OCT     C1 3769  16.994  12.178   3.758  0.1792 -0.2551  0.1140
51885OCT     C2 3770  17.315  12.377   3.999  0.0851 -0.5032  0.2135
51886OCT     C1 3771  13.084  15.007  14.999 -0.3468 -0.1415  0.4663
51886OCT     C2 3772  12.912  15.366  15.159  0.1893  0.1308 -0.1032
51887OCT     C1 3773  17.061  14.606  22.033 -0.0459  0.0917  0.1673
51887OCT     C2 3774  17.126  14.937  21.682 -0.0510  0.1745 -0.1163
51888OCT     C1 3775   8.030  21.124  14.856  0.2050  0.1417  0.1144
51888OCT     C2 3776   8.106  20.979  15.261  0.1475 -0.3894  0.0236
51889OCT     C1 3777  22.435  19.083   5.661 -0.1332 -0.2152 -0.4285
51889OCT     C2 3778  22.791  19.064   6.014 -0.2981  0.0475  0.1693
51890OCT     C1 3779  19.150  22.690  17.810  0.2012 -0.1439 -0.2083
51890OCT     C2 3780  18.791  22.871  18.001  0.0546  0.0434 -0.5345
51891OCT     C1 3781   7.882   0.044   4.135 -0.1497 -0.1451 -0.5552
51891OCT     C2 3782   8.124  23.397   4.102 -0.3047  0.0026 -0.1628
51892OCT     C1 3783  17.594  23.512  18.048 -0.2816 -0.2570  0.2345
51892OCT     C2 3784  17.719  23.137  18.303  0.5197 -0.3425  0.1456
51893OCT     C1 3785  10.154  11.312  14.826  0.1326  0.1662 -0.3690
51893OCT     C2 3786   9.707  11.240  14.983  0.2911 -0.2157 -0.2237
51894OCT     C1 3787   8.726  17.999   3.940  0.2324  0.1626  0.2285
51894OCT     C2 3788   8.593  18.080   4.351 -0.1205  0.1394  0.1107
51895OCT     C1 3789  20.932   1.503   5.590 -0.1436  0.3336  0.1987
51895OCT     C2 3790  20.675   1.492   5.950  0.0518  0.0666  0.2401
51896OCT     C1 3791   0.959   3.532  16.879 -0.0630  0.0913 -0.0130
51896OCT     C2 3792   1.162   3.571  16.495  0.4575  0.2563 -0.3895
51897OCT     C1 3793  10.874   7.384  15.658 -0.1166 -0.4110 -0.0337
51897OCT     C2 3794  11.229   7.037  15.712 -0.1820  0.1264  0.0274
51898OCT     C1 3795  23.288  12.886  11.990  0.0175 -0.0379  0.0515
51898OCT     C2 3796  22.923  12.950  11.692 -0.1653 -0.2201  0.4256
51899OCT     C1 3797  19.762   9.281   1.401 -0.0219 -0.1483 -0.1150
51899OCT     C2 3798  19.708   9.695   1.397 -0.2691 -0.0429  0.3488
51900OCT     C1 3799   6.100   3.290  16.089  0.0544  0.2377  0.4509
51900OCT     C2 3800   6.428   3.191  16.402  0.0482  0.1347  0.1648
51901OCT     C1 3801   1.096  19.391  16.868  0.0722 -0.0305  0.0139
51901OCT     C2 3802   1.398  19.318  16.501 -0.1163 -0.5813  0.0307
51902OCT     C1 3803   7.971  19.925  17.861  0.0803 -0.1236  0.1988
51902OCT     C2 3804   7.952  20.316  17.559 -0.1881 -0.0959  0.2925
51903OCT     C1 3805  19.555   1.632  19.726  0.2939  0.1081 -0.1419
51903OCT     C2 3806  20.024   1.590  19.694 -0.0600 -0.0658 -0.2037
51904OCT     C1 3807   0.981   1.744   5.434  0.3069 -0.2637 -0.0115
51904OCT     C2 3808   1.055   1.457   5.774  0.0968 -0.2604  0.4569
51905OCT     C1 3809   1.434  14.628  12.537  0.1684 -0.1898  0.4733
51905OCT     C2 3810   1.466  15.020  12.211 -0.3668 -0.1024  0.0907
51906OCT     C1 3811  20.007   4.644   7.772  0.1510 -0.1030 -0.0504
51906OCT     C2 3812  20.191   4.387   7.424 -0.4664 -0.0665  0.1303
51907OCT     C1 3813   2.253  16.760  15.586 -0.0035 -0.2791  0.1601
51907OCT     C2 3814   1.976  16.967  15.269  0.1555  0.3922 -0.2277
51908OCT     C1 3815  15.365  19.491  20.218 -0.0922  0.0593  0.0217
51908OCT     C2 3816  15.755  19.336  20.039 -0.2313  0.0810  0.0318
51909OCT     C1 3817   8.119   3.403   6.134  0.0262  0.2368 -0.3163
51909OCT     C2 3818   7.883   3.185   5.720  0.1941 -0.0944  0.0569
51910OCT     C1 3819  20.142   2.942  14.123  0.2271 -0.1488  0.0101
51910OCT     C2 3820  19.706   3.130  14.258  0.2723  0.1140  0.0313
51911OCT     C1 3821  22.537  17.030   6.856  0.0978  0.1517 -0.0971
51911OCT     C2 3822  22.278  16.674   6.905 -0.0547  0.2243  0.2715
51912OCT     C1 3823   8.887  12.878   7.794 -0.0574  0.2659 -0.0227
51912OCT     C2 3824   8.958  12.425   7.694  0.0059 -0.1112 -0.0047
51913OCT     C1 3825  14.616   2.443   7.201 -0.1762  0.0519 -0.1580
51913OCT     C2 3826  14.283   2.466   7.514 -0.2479 -0.1593 -0.1175
51914OCT     C1 3827   6.293  13.405  21.928 -0.2566  0.0641 -0.1318
51914OCT     C2 3828   6.662  13.404  22.216  0.0990  0.0295 -0.1593
51915OCT     C1 3829  18.745   2.576  12.928  0.2348 -0.2654  0.0855
51915OCT     C2 3830  18.743   2.364  13.306 -0.0257  0.1128 -0.3518
51916OCT     C1 3831   6.810   3.864  16.454  0.1980 -0.2428  0.5008
51916OCT     C2 3832   7.135   4.140  16.517 -0.0332  0.1184 -0.1642
51917OCT     C1 3833   0.950   1.207   5.308  0.2436 -0.0562 -0.2016
51917OCT     C2 3834   0.562   1.362   5.553  0.1009  0.1677 -0.2048
51918OCT     C1 3835  11.175   9.344   7.173  0.1819 -0.0066  0.2784
51918OCT     C2 3836  10.917   9.162   6.810 -0.1771  0.2229 -0.0054
51919OCT     C1 3837   2.330  18.582   0.836 -0.1693 -0.0469 -0.0643
51919OCT     C2 3838   2.060  18.983   0.851  0.1852 -0.1503 -0.0958
51920OCT     C1 3839  21.356  23.571   0.952 -0.0565  0.1022  0.0985
51920OCT     C2 3840  21.530   0.272   0.947  0.3337 -0.0515  0.1943
51921OCT     C1 3841   1.809  11.920   8.787  0.1678 -0.0566  0.3653
51921OCT     C2 3842   2.142  11.977   8.453 -0.3482 -0.3237  0.0695
51922OCT     C1 3843   4.715  12.207  21.845 -0.3654  0.4212  0.2584
51922OCT     C2 3844   4.913  11.926  21.541  0.1648  0.0205 -0.4790
51923OCT     C1 3845   5.236  23.240  21.147 -0.2211 -0.0951  0.0307
51923OCT     C2 3846   4.988  23.014  20.875  0.2044 -0.1795  0.1535
51924OCT     C1 3847  10.949   2.740   3.785 -0.0616 -0.0233 -0.2869
51924OCT     C2 3848  11.259   2.891   4.024  0.0506  0.3616  0.2434
51925OCT     C1 3849  22.617   6.142   5.184  0.1892  0.1427 -0.3816
51925OCT     C2 3850  22.558   6.529   4.874 -0.0516 -0.5195  0.3208
51926OCT     C1 3851  20.429   4.648  18.069  0.2707 -0.0400 -0.0708
51926OCT     C2 3852  20.465   4.338  18.465 -0.3202 -0.0773  0.3383
51927OCT     C1 3853  15.362  15.688  21.271  0.0127 -0.0719 -0.3577
51927OCT     C2 3854  15.161  15.286  21.103 -0.2434 -0.1363 -0.0393
51928OCT     C1 3855  15.972  18.062  10.231 -0.0151 -0.0253 -0.1514
51928OCT     C2 3856  15.994  17.857  10.630 -0.4009 -0.3097 -0.3873
51929OCT     C1 3857  11.545  18.611   3.205 -0.1155  0.1940 -0.1879
51929OCT     C2 3858  11.421  18.292   2.872 -0.0627 -0.1790 -0.1676
51930OCT     C1 3859   7.642   4.708   2.997  0.0984 -0.2055 -0.2862
51930OCT     C2 3860   7.435   4.295   2.986  0.1834  0.1173  0.2523
51931OCT     C1 3861  18.155  21.354  17.676 -0.1562 -0.1561  0.0184
51931OCT     C2 3862  17.652  21.514  17.797 -0.0944 -0.6255 -0.1609
51932OCT     C1 3863  14.781   3.191   2.443 -0.0925  0.1886  0.1555
51932OCT     C2 3864  15.102   2.799   2.488  0.0971  0.1354 -0.0097
51933OCT     C1 3865  10.299   6.528  11.756  0.0138  0.2351  0.3376
51933OCT     C2 3866  10.287   6.872  11.526 -0.0349 -0.1934  0.0578
51934OCT     C1 3867  19.261  19.289  22.461 -0.2404  0.1545 -0.1029
51934OCT     C2 3868  19.169  19.112  22.927 -0.3929  0.1956  0.1531
51935OCT     C1 3869  22.075   6.212   2.483 -0.0949 -0.0186  0.0046
51935OCT     C2 3870  22.474   6.412   2.289 -0.2825 -0.2403 -0.0950
51936OCT     C1 3871  18.492   4.711   3.899  0.2407 -0.2929  0.4499
51936OCT     C2 3872  18.653   5.084   4.150 -0.3396  0.1111 -0.1247
51937OCT     C1 3873  11.757   3.203  12.937 -0.1897 -0.2529 -0.0150
51937OCT     C2 3874  12.061   2.798  13.017 -0.0927  0.0874  0.0480
51938OCT     C1 3875  10.981   2.292  19.510  0.0853 -0.2753  0.0803
51938OCT     C2 3876  10.832   1.855  19.480 -0.0186 -0.0923  0.1756
51939OCT     C1 3877  16.382   1.243  14.905  0.2554  0.2248  0.2572
51939OCT     C2 3878  16.624   1.613  14.957 -0.2657  0.0029 -0.3561
51940OCT     C1 3879   2.458  18.113  10.130  0.1315 -0.0260 -0.0387
51940OCT     C2 3880   2.180  18.075  10.492  0.2949  0.1089 -0.3300
51941OCT     C1 3881  11.967  20.018   5.746 -0.0012  0.4000 -0.2712
51941OCT     C2 3882  12.130  20.415   5.870  0.0668  0.0139  0.2086
51942OCT     C1 3883  14.476   5.467  16.025 -0.2765 -0.0091  0.1032
51942OCT     C2 3884  14.847   5.737  15.884 -0.0979  0.2425 -0.1953
51943OCT     C1 3885   8.748   4.179  14.110  0.0503  0.3990 -0.0593
51943OCT     C2 3886   8.555   4.144  14.558  0.1930  0.0360 -0.1617
51944OCT     C1 3887   2.019  12.610   5.865 -0.0109  0.0156  0.1302
51944OCT     C2 3888   2.090  12.216   6.066 -0.1841  0.2311  0.0055
51945OCT     C1 3889   4.911  20.949   8.367 -0.2802 -0.0174  0.0196
51945OCT     C2 3890   5.291  21.214   8.245 -0.2843  0.2398 -0.0009
51946OCT     C1 3891   5.605  13.299  16.136  0.0549 -0.0817  0.2244
51946OCT     C2 3892   5.983  13.221  15.860  0.1933 -0.0841  0.1408
51947OCT     C1 3893   8.574  18.372   8.311 -0.1051 -0.0958 -0.0090
51947OCT     C2 3894   8.813  17.949   8.369 -0.3434 -0.0784 -0.3782
51948OCT     C1 3895  14.103  17.022  13.197 -0.0035  0.2568  0.2053
51948OCT     C2 3896  14.112  16.834  12.751 -0.3509  0.0046 -0.3937
51949OCT     C1 3897  20.726   0.123   4.332  0.0203 -0.0986 -0.2794
51949OCT     C2 3898  20.677  23.398   4.231  0.1693 -0.0346 -0.0715
51950OCT     C1 3899   3.513  18.480  22.539 -0.0764 -0.0585 -0.0773
51950OCT     C2 3900   3.488  18.343  22.960 -0.3809 -0.0088  0.2495
51951OCT     C1 3901  22.045  10.705   1.490 -0.0629 -0.0615  0.0447
51951OCT     C2 3902  22.469  10.788   1.633 -0.1207 -0.1623  0.0081
51952OCT     C1 3903  10.794  13.927   8.909 -0.1047 -0.0481  0.1274
51952OCT     C2 3904  10.773  14.354   9.007  0.0854 -0.1253 -0.1995
51953OCT     C1 3905   5.804  10.424   8.980  0.1622 -0.1106  0.0754
51953OCT     C2 3906   5.873   9.951   8.999  0.1212 -0.1318 -0.0177
51954OCT     C1 3907  18.641  12.293   4.591  0.0372  0.1014 -0.1108
51954OCT     C2 3908  18.184  12.329   4.697 -0.1423  0.0279  0.0742
51955OCT     C1 3909   0.176  12.219  22.246  0.1943 -0.0973  0.2607
51955OCT     C2 3910   0.574  12.089  22.208 -0.1073 -0.2784  0.5898
51956OCT     C1 3911  18.597   2.160  15.746  0.1540  0.2270 -0.2216
51956OCT     C2 3912  19.071   2.064  15.709  0.2878  0.1778  0.5287
51957OCT     C1 3913   8.005  20.044   7.152  0.1067  0.1436  0.0186
51957OCT     C2 3914   7.740  19.964   6.813 -0.1859  0.1660  0.3073
51958OCT     C1 3915   3.477  12.897   7.231  0.0867  0.2885 -0.3043
51958OCT     C2 3916   3.623  12.502   7.013 -0.2254 -0.0962  0.0171
51959OCT     C1 3917   1.549  10.434  16.604 -0.3211  0.0868 -0.1553
51959OCT     C2 3918   1.991  10.218  16.583 -0.0855 -0.0929 -0.1486
51960OCT     C1 3919  13.007  11.879   6.484 -0.2527 -0.2246 -0.0964
51960OCT     C2 3920  13.263  11.769   6.080 -0.2013  0.2170  0.0517
51961OCT     C1 3921   7.055  12.509   9.472 -0.0376 -0.4327 -0.1572
51961OCT     C2 3922   6.794  12.330   9.142  0.0581  0.0004  0.0600
51962OCT     C1 3923  14.647   0.477  21.061 -0.2328  0.1868 -0.1554
51962OCT     C2 3924  14.467   0.154  21.378 -0.0543 -0.0459  0.1487
51963OCT     C1 3925   0.271  19.659   8.276 -0.2429 -0.0301 -0.2874
51963OCT     C2 3926   0.618  19.969   8.248  0.1616 -0.2485  0.4790
51964OCT     C1 3927  11.354  16.116  17.004  0.2641 -0.3665  0.0444
51964OCT     C2 3928  11.709  16.012  17.293  0.0333 -0.2561 -0.5341
51965OCT     C1 3929   3.888  13.636  18.435  0.0081 -0.2266 -0.0301
51965OCT     C2 3930   3.698  14.037  18.177  0.0314  0.3735  0.2835
51966OCT     C1 3931   9.842  23.141  21.559  0.0671 -0.1267 -0.1172
51966OCT     C2 3932   9.434  23.431  21.556  0.0405  0.5470  0.0605
51967OCT     C1 3933   8.253  15.456   8.095  0.1942 -0.3172 -0.1017
51967OCT     C2 3934   7.950  15.287   8.412  0.0919  0.1571  0.0857
51968OCT     C1 3935  18.569   7.959   6.589  0.0502 -0.1705  0.0294
51968OCT     C2 3936  18.479   7.785   6.995  0.1402  0.0856 -0.0499
51969OCT     C1 3937  14.399   0.841   2.949  0.1428  0.0350 -0.2954
51969OCT     C2 3938  14.338   1.221   2.691 -0.5231 -0.0475 -0.0504
51970OCT     C1 3939  13.783  16.568   7.407  0.3549 -0.0709 -0.1859
51970OCT     C2 3940  14.176  16.848   7.426 -0.1735 -0.0140 -0.0599
51971OCT     C1 3941   5.131   7.997  15.023 -0.0137  0.2425 -0.0237
51971OCT     C2 3942   5.441   8.090  14.685  0.4266  0.2530 -0.1567
51972OCT     C1 3943   8.615   9.306   4.279  0.1675 -0.2145  0.2949
51972OCT     C2 3944   8.891   9.251   3.892 -0.0278  0.0993  0.1114
51973OCT     C1 3945  18.779   7.601  14.518  0.3236 -0.3296  0.0251
51973OCT     C2 3946  18.397   7.408  14.530  0.1189 -0.3000  0.1627
51974OCT     C1 3947   6.890  23.683   8.824 -0.1888  0.1835  0.0937
51974OCT     C2 3948   6.766  23.558   8.364  0.0699 -0.2802  0.2167
51975OCT     C1 3949  11.535   7.928   8.977  0.1084  0.0449  0.2370
51975OCT     C2 3950  11.678   8.333   8.766 -0.1005  0.1319 -0.0560
51976OCT     C1 3951   5.482  21.028  14.676  0.2234  0.0130 -0.3090
51976OCT     C2 3952   5.358  21.413  14.927  0.0130  0.3025 -0.2530
51977OCT     C1 3953  21.459  15.745  23.315  0.1289  0.2891  0.3703
51977OCT     C2 3954  21.642  16.169  23.300  0.1442 -0.1045 -0.0865
51978OCT     C1 3955  22.204  15.897  15.163 -0.3155  0.1236 -0.0617
51978OCT     C2 3956  21.929  15.524  15.329  0.0246  0.1729  0.2916
51979OCT     C1 3957   6.403  14.333  22.018  0.0821 -0.4373 -0.1586
51979OCT     C2 3958   6.643  14.360  22.457  0.0400  0.0030  0.1207
51980OCT     C1 3959   8.043   3.618  13.710  0.0105  0.1306  0.0261
51980OCT     C2 3960   7.651   3.516  13.493  0.0774  0.2602 -0.1554
51981OCT     C1 3961   5.233   8.221   0.835 -0.2598 -0.2885 -0.2365
51981OCT     C2 3962   5.498   8.304   1.205  0.0728 -0.0740 -0.0886
51982OCT     C1 3963  12.253  22.931  21.022 -0.2631 -0.2396 -0.2320
51982OCT     C2 3964  11.911  22.698  21.243  0.1240  0.0483  0.2505
51983OCT     C1 3965  16.039   4.098  20.822 -0.3477  0.3606  0.3001
51983OCT     C2 3966  15.632   4.136  21.052 -0.1914 -0.0858 -0.1606
51984OCT     C1 3967   1.285  17.647   8.132 -0.1341  0.4831 -0.0209
51984OCT     C2 3968   0.951  17.624   7.782  0.0211 -0.0865  0.3436
51985OCT     C1 3969   0.736  18.373   8.672  0.0513 -0.2330  0.1293
51985OCT     C2 3970   0.548  18.431   9.109  0.0202 -0.0089 -0.2528
51986OCT     C1 3971   0.133  18.462   9.354 -0.0775 -0.1453 -0.1075
51986OCT     C2 3972   0.130  17.997   9.373 -0.4206  0.2450  0.1622
51987OCT     C1 3973   0.842   8.009   6.618 -0.2174 -0.0009 -0.5207
51987OCT     C2 3974   0.728   7.707   6.982 -0.0729  0.0950  0.0730
51988OCT     C1 3975   7.853   6.423  14.765  0.1075  0.4197  0.0915
51988OCT     C2 3976   7.477   6.593  14.599  0.1170 -0.0756 -0.0708
51989OCT     C1 3977  15.481  20.064  12.733 -0.0897 -0.3175 -0.2990
51989OCT     C2 3978  15.302  20.538  12.827 -0.1947 -0.0893 -0.1151
51990OCT     C1 3979  15.402  20.310  10.977  0.4058 -0.3210 -0.2362
51990OCT     C2 3980  15.315  19.899  11.215  0.2281 -0.1312 -0.0458
51991OCT     C1 3981  15.303  13.477  16.813  0.0750 -0.1360  0.2715
51991OCT     C2 3982  15.014  13.507  17.146 -0.0994  0.4688 -0.1610
51992OCT     C1 3983   4.905  10.825   5.155  0.0360  0.1559 -0.1252
51992OCT     C2 3984   4.576  10.483   5.343  0.1549  0.2519  0.2687
51993OCT     C1 3985  23.691   0.237  17.517  0.0185  0.2738 -0.0502
51993OCT     C2 3986   0.079  23.547  17.404  0.1356  0.1422 -0.0235
51994OCT     C1 3987   9.856   3.164  11.357 -0.2381  0.2626 -0.1039
51994OCT     C2 3988   9.527   3.464  11.503 -0.0307 -0.0199  0.2387
51995OCT     C1 3989  17.393  13.527   0.881 -0.1537  0.2518 -0.2803
51995OCT     C2 3990  17.734  13.231   1.095  0.2620  0.1944 -0.2217
51996OCT     C1 3991   0.905  20.128   0.435 -0.5240  0.2487  0.0336
51996OCT     C2 3992   0.492  20.293   0.363 -0.0349 -0.1430 -0.1152
51997OCT     C1 3993   8.790  21.394  17.330  0.1156  0.1397 -0.2046
51997OCT     C2 3994   8.832  20.899  17.372 -0.2836  0.1924 -0.4763
51998OCT     C1 3995  14.570  20.305   7.834 -0.1791 -0.2968 -0.3380
51998OCT     C2 3996  14.483  19.840   7.965 -0.0371 -0.0836  0.2003
51999OCT     C1 3997   2.305   5.444  18.891 -0.0252 -0.1383  0.3227
51999OCT     C2 3998   2.078   5.778  18.671 -0.2400 -0.2668  0.1654
52000OCT     C1 3999   1.594  18.621  21.827 -0.3354  0.3087  0.0694
52000OCT     C2 4000   1.746  18.671  21.393  0.2893  0.0708 -0.0202
52001OCT     C1 4001  17.543  20.985  15.258  0.1048 -0.0649 -0.0542
52001OCT     C2 4002  17.076  21.113  15.121  0.3097 -0.0994  0.0154
52002OCT     C1 4003  12.819  16.778  11.739 -0.0029  0.5894  0.2763
52002OCT     C2 4004  12.372  16.648  11.718 -0.0823  0.0417  0.3220
52003OCT     C1 4005  22.762   8.662  13.249  0.1596 -0.1328 -0.0197
52003OCT     C2 4006  23.139   8.428  13.075  0.1891  0.0335 -0.5027
52004OCT     C1 4007  22.728   8.310  13.821 -0.3580 -0.0861  0.0327
52004OCT     C2 4008  22.458   7.908  13.705 -0.0971  0.2378 -0.4045
52005OCT     C1 4009  12.623  15.375   3.080 -0.0093 -0.0675  0.1577
52005OCT     C2 4010  12.180  15.163   3.033 -0.1203 -0.0853  0.3560
52006OCT     C1 4011   5.838  20.322  17.579 -0.0916  0.0212 -0.2575
52006OCT     C2 4012   5.398  20.471  17.702 -0.0477 -0.1713  0.3975
52007OCT     C1 4013   4.144  22.255   6.640  0.3058 -0.1129 -0.1316
52007OCT     C2 4014   3.736  22.002   6.568 -0.0983  0.2932  0.0221
52008OCT     C1 4015  19.126   5.826  21.493  0.0568 -0.1402 -0.0917
52008OCT     C2 4016  18.785   6.132  21.478  0.1161  0.2704 -0.2355
52009OCT     C1 4017  11.000   7.285  12.007 -0.3292 -0.0246  0.1404
52009OCT     C2 4018  10.842   7.697  12.118 -0.2812  0.3668 -0.0336
52010OCT     C1 4019  21.076  17.803   7.605 -0.1791 -0.1173 -0.0926
52010OCT     C2 4020  21.177  18.140   7.823 -0.1826 -0.2343 -0.0962
52011OCT     C1 4021   4.213  20.637  22.472 -0.0668  0.0707 -0.1169
52011OCT     C2 4022   4.329  20.252  22.688 -0.0834  0.3259 -0.0553
52012OCT     C1 4023   1.308   2.517   5.060  0.0993 -0.0184 -0.1169
52012OCT     C2 4024   1.715   2.513   4.933 -0.3757 -0.1796 -0.1266
52013OCT     C1 4025  15.301  20.136   3.766  0.4459 -0.1783 -0.2742
52013OCT     C2 4026  14.901  20.405   3.614 -0.2620  0.1921  0.2913
52014OCT     C1 4027   5.720  15.159   9.959 -0.1460 -0.2288 -0.1367
52014OCT     C2 4028   5.241  15.198   9.963  0.0138  0.3514 -0.6228
52015OCT     C1 4029  10.461  18.230  22.167 -0.4438  0.0642  0.1169
52015OCT     C2 4030  10.060  18.134  22.210 -0.1734  0.2036  0.1200
52016OCT     C1 4031   9.462   3.487   9.770 -0.2223 -0.2045 -0.2532
52016OCT     C2 4032   9.268   3.903   9.732 -0.3839 -0.2026 -0.1082
52017OCT     C1 4033   4.678  13.520  17.146  0.3426 -0.0177  0.0909
52017OCT     C2 4034   4.841  13.091  17.051  0.1421 -0.3024  0.0876
52018OCT     C1 4035   4.759  13.508   0.851 -0.1414  0.0956 -0.1105
52018OCT     C2 4036   4.978  13.885   1.009  0.1509 -0.0255  0.0824
52019OCT     C1 4037   1.981   1.788   6.448  0.1595 -0.2862 -0.6203
52019OCT     C2 4038   2.002   2.105   6.116  0.3310  0.0161 -0.4108
52020OCT     C1 4039   8.875  21.045  22.334  0.1933  0.0258 -0.2325
52020OCT     C2 4040   9.104  21.022  22.705 -0.1923 -0.0541 -0.0692
52021OCT     C1 4041   2.020   0.973   6.572  0.0345 -0.0822 -0.0267
52021OCT     C2 4042   2.446   0.789   6.647  0.1068  0.0662 -0.0348
52022OCT     C1 4043  19.747   1.766  21.407  0.1335 -0.1086 -0.2232
52022OCT     C2 4044  20.130   1.604  21.241 -0.0186  0.0353  0.0800
52023OCT     C1 4045   0.331  17.650  19.835  0.0246 -0.2757 -0.2571
52023OCT     C2 4046   0.287  18.032  19.567 -0.1883  0.0249  0.2029
52024OCT     C1 4047  13.783  16.509   2.351 -0.1686 -0.0601 -0.0535
52024OCT     C2 4048  14.093  16.826   2.245  0.1090 -0.1634  0.1437
52025OCT     C1 4049  13.925  19.416  11.483 -0.1494 -0.7544  0.0502
52025OCT     C2 4050  13.684  19.544  11.861  0.3081  0.0661 -0.1513
52026OCT     C1 4051  17.899  10.756  22.218  0.0567  0.1602 -0.3575
52026OCT     C2 4052  17.953  10.727  22.692  0.0343 -0.1563 -0.3496
52027OCT     C1 4053  14.042  23.638   4.113  0.0703 -0.3079 -0.1357
52027OCT     C2 4054  14.156  23.295   4.461 -0.1696  0.1631 -0.1514
52028OCT     C1 4055  17.526  20.447  14.080  0.2495  0.0650  0.1726
52028OCT     C2 4056  17.570  20.262  13.601  0.0801 -0.4371 -0.0482
52029OCT     C1 4057   5.444  19.949   4.765 -0.0807 -0.2166  0.0642
52029OCT     C2 4058   5.239  19.674   4.484  0.1744 -0.4647  0.1641
52030OCT     C1 4059   4.107   1.041  20.307  0.4898 -0.1363  0.1070
52030OCT     C2 4060   4.543   1.174  20.084  0.1925 -0.2131 -0.0652
52031OCT     C1 4061  22.992   6.173   4.841  0.1030  0.4819 -0.1877
52031OCT     C2 4062  23.397   6.122   5.162  0.1513  0.2219  0.3115
52032OCT     C1 4063  13.405   2.999  14.731  0.0288 -0.1181 -0.2183
52032OCT     C2 4064  13.111   2.901  14.404  0.0035  0.1678 -0.3799
52033OCT     C1 4065  18.758  19.861   8.224 -0.0042 -0.2745 -0.2687
52033OCT     C2 4066  18.819  19.391   8.275 -0.1145  0.0338  0.1456
52034OCT     C1 4067   6.094  19.239   0.081  0.1115 -0.0703  0.1536
52034OCT     C2 4068   5.756  18.920  23.705  0.1203 -0.1965 -0.2295
52035OCT     C1 4069  13.808  22.464   4.198  0.0762  0.0502  0.4809
52035OCT     C2 4070  13.538  22.474   4.620 -0.0006  0.1158  0.1249
52036OCT     C1 4071   5.947  10.146  10.381 -0.0086  0.4739 -0.3040
52036OCT     C2 4072   5.895   9.896  10.776 -0.0570 -0.1160 -0.4181
52037OCT     C1 4073  11.486   2.368  22.137  0.4530 -0.1265  0.0002
52037OCT     C2 4074  11.365   2.564  21.713 -0.2995  0.1356 -0.0594
52038OCT     C1 4075   4.943   7.458   0.078 -0.0625  0.1585  0.1687
52038OCT     C2 4076   5.378   7.371   0.069  0.0677  0.1105  0.2595
52039OCT     C1 4077  17.892  18.136   3.025 -0.1666  0.0659 -0.0112
52039OCT     C2 4078  18.382  18.088   3.025  0.1445 -0.0154 -0.1419
52040OCT     C1 4079  22.206  12.000  18.458 -0.0201  0.1252 -0.0678
52040OCT     C2 4080  22.453  11.702  18.661  0.2029 -0.1185 -0.0631
52041OCT     C1 4081  12.035   5.373  19.561 -0.0255  0.1495 -0.1672
52041OCT     C2 4082  12.062   5.393  19.113 -0.5671  0.4275  0.0859
52042OCT     C1 4083   1.110   7.703  11.837 -0.2305 -0.3009  0.0418
52042OCT     C2 4084   1.547   7.755  12.019  0.3104 -0.0793  0.1614
52043OCT     C1 4085   5.956   2.072  21.591  0.1023 -0.0363 -0.2652
52043OCT     C2 4086   5.788   2.053  22.028 -0.3485 -0.2511 -0.1800
52044OCT     C1 4087  11.346  11.810  20.547 -0.2284  0.4294  0.1224
52044OCT     C2 4088  11.482  12.093  20.209 -0.0527 -0.0566 -0.3700
52045OCT     C1 4089  14.298  19.477   6.108 -0.3697  0.1712 -0.1485
52045OCT     C2 4090  14.037  19.148   5.902 -0.0496  0.5114 -0.0207
52046OCT     C1 4091  22.074  20.748  12.778 -0.2261 -0.1109  0.2288
52046OCT     C2 4092  21.748  21.063  12.708  0.1334 -0.1639 -0.1663
52047OCT     C1 4093  23.061  12.661   1.451 -0.3369 -0.0300  0.0507
52047OCT     C2 4094  23.198  12.311   1.728 -0.1554 -0.1921  0.0268
52048OCT     C1 4095   5.844  17.749  15.578  0.1518  0.4412 -0.0516
52048OCT     C2 4096   5.572  17.411  15.399 -0.1032 -0.0869 -0.1818
52049OCT     C1 4097  14.232  22.634   1.192 -0.0695 -0.1641 -0.0658
52049OCT     C2 4098  14.177  22.153   1.124  0.0891 -0.2613 -0.2444
52050OCT     C1 4099   8.836  15.116   2.646 -0.0834  0.0052  0.3223
52050OCT     C2 4100   8.747  15.248   2.183 -0.0481  0.0352 -0.0599
52051OCT     C1 4101   9.195   4.997  14.309 -0.2930  0.1375 -0.0103
52051OCT     C2 4102   8.990   4.855  14.707  0.3177 -0.0394  0.0629
52052OCT     C1 4103   9.199   4.035  20.514 -0.1405  0.0033 -0.0424
52052OCT     C2 4104   8.834   4.283  20.703  0.0559 -0.2164 -0.1289
52053OCT     C1 4105   6.528   1.942   2.870  0.4391 -0.0875  0.0199
52053OCT     C2 4106   6.266   1.596   3.060 -0.0779 -0.0147  0.1382
52054OCT     C1 4107  13.239   6.442  13.350  0.2111 -0.0763  0.0312
52054OCT     C2 4108  13.136   6.926  13.309 -0.0047  0.1860  0.0797
52055OCT     C1 4109  11.258   4.447   3.790 -0.0294  0.3536  0.2039
52055OCT     C2 4110  11.376   4.899   3.679  0.0762  0.2770  0.0376
52056OCT     C1 4111   6.623  21.488   1.730  0.0167  0.2945  0.0956
52056OCT     C2 4112   6.245  21.683   1.525 -0.0860  0.0709  0.3859
52057OCT     C1 4113   2.135   6.260  10.006  0.1744 -0.0726  0.0342
52057OCT     C2 4114   2.181   6.688  10.208 -0.1904  0.1147 -0.1529
52058OCT     C1 4115  23.399   9.106  10.031  0.1414 -0.0487 -0.0261
52058OCT     C2 4116  23.053   9.430  10.159  0.2588 -0.0232 -0.4263
52059OCT     C1 4117   3.815   3.168   3.351 -0.0727  0.1417 -0.1078
52059OCT     C2 4118   3.908   2.712   3.559  0.2579  0.1595  0.1791
52060OCT     C1 4119  20.567  12.569  23.554  0.2722  0.4089 -0.1311
52060OCT     C2 4120  20.980  12.537  23.654  0.1543 -0.2226 -0.2114
52061OCT     C1 4121  18.994  19.480   7.077  0.0902 -0.1102 -0.0877
52061OCT     C2 4122  19.339  19.859   7.006  0.0973 -0.2067  0.0566
52062OCT     C1 4123   6.883   9.285  12.679 -0.0862  0.3650 -0.1439
52062OCT     C2 4124   6.838   9.673  12.400  0.0094  0.1927 -0.1888
52063OCT     C1 4125  19.318   6.033  14.742 -0.0285  0.0757  0.2475
52063OCT     C2 4126  18.987   6.329  14.629  0.2277  0.0376 -0.0362
52064OCT     C1 4127  16.978   6.333  15.490  0.0139 -0.1752  0.1520
52064OCT     C2 4128  16.772   5.890  15.706  0.1637 -0.2701 -0.0631
52065OCT     C1 4129  12.861  15.271  23.161 -0.4908  0.0431 -0.1475
52065OCT     C2 4130  13.063  15.642  23.324  0.0842  0.1774  0.0732
52066OCT     C1 4131   1.178  11.655   6.784  0.0179  0.1664  0.3719
52066OCT     C2 4132   0.758  11.700   6.536 -0.0987  0.2655 -0.1018
52067OCT     C1 4133   8.171  20.831  11.772  0.0036 -0.2262  0.2158
52067OCT     C2 4134   8.188  20.767  11.313  0.1321  0.2123 -0.0732
52068OCT     C1 4135   9.519  15.690   6.402  0.2939 -0.2718 -0.0917
52068OCT     C2 4136   9.389  15.186   6.272 -0.1330 -0.2759 -0.2361
52069OCT     C1 4137  15.716   2.401  22.268 -0.4059  0.0065 -0.0802
52069OCT     C2 4138  15.789   2.855  22.369  0.3567  0.0135 -0.2741
52070OCT     C1 4139   8.957   9.781  11.277 -0.1851 -0.0181  0.0883
52070OCT     C2 4140   9.067  10.035  10.923  0.1957 -0.0609 -0.2663
52071OCT     C1 4141   8.569  12.532  11.498  0.0507  0.0611 -0.1159
52071OCT     C2 4142   8.844  12.177  11.501  0.0010 -0.0010  0.2334
52072OCT     C1 4143  12.805  13.635   6.194 -0.1384 -0.0071  0.1278
52072OCT     C2 4144  13.067  13.301   5.975 -0.0818  0.0757  0.2388
52073OCT     C1 4145   5.081   6.601  22.966 -0.0137 -0.0976 -0.0545
52073OCT     C2 4146   4.843   6.490  23.367 -0.3338  0.1621 -0.2660
52074OCT     C1 4147   9.736   7.297  14.372 -0.2860 -0.0389 -0.4250
52074OCT     C2 4148   9.803   6.952  14.112  0.3415 -0.1118  0.1502
52075OCT     C1 4149   6.051   6.216   3.006 -0.1255  0.1963  0.2497
52075OCT     C2 4150   6.454   6.121   2.856 -0.1585 -0.0298 -0.0565
52076OCT     C1 4151   3.392  10.693   3.285  0.1747 -0.0924 -0.0015
52076OCT     C2 4152   3.742  10.314   3.359  0.0165 -0.2414  0.2254
52077OCT     C1 4153   6.120  11.368   2.259 -0.1031  0.0246 -0.0698
52077OCT     C2 4154   6.146  11.136   2.706  0.2326 -0.0168  0.1140
52078OCT     C1 4155   9.146   3.921  23.555  0.3784  0.3897  0.4357
52078OCT     C2 4156   9.442   3.624   0.033  0.1640  0.1447  0.1203
52079OCT     C1 4157   1.849  15.194  20.180 -0.1037  0.0452 -0.1078
52079OCT     C2 4158   1.657  15.423  20.488 -0.1465  0.1357  0.2587
52080OCT     C1 4159  19.968  20.940   5.276 -0.1356  0.3927 -0.1754
52080OCT     C2 4160  19.790  20.490   5.092  0.0648 -0.6177  0.2011
52081OCT     C1 4161   6.304  20.177   4.626 -0.2794 -0.1436  0.2614
52081OCT     C2 4162   6.591  19.863   4.814  0.2512  0.0244 -0.0716
52082OCT     C1 4163  12.790   1.326  12.377  0.1960 -0.0621  0.0685
52082OCT     C2 4164  12.749   1.751  12.542 -0.4498  0.5451 -0.3799
52083OCT     C1 4165  21.846  22.551   9.409 -0.1515 -0.1522  0.0384
52083OCT     C2 4166  21.790  22.184   9.147 -0.1009 -0.1285  0.3137
52084OCT     C1 4167   9.653  10.199   6.668  0.3694  0.2343 -0.3337
52084OCT     C2 4168   9.597  10.632   6.463 -0.4714  0.1443  0.1264
52085OCT     C1 4169  15.076  10.068   1.261 -0.0168 -0.3547  0.1288
52085OCT     C2 4170  15.219  10.046   1.742  0.2713  0.2705  0.2099
52086OCT     C1 4171   9.701   4.499  19.764 -0.1294  0.0275 -0.2958
52086OCT     C2 4172  10.028   4.261  19.493  0.0012 -0.1567  0.0482
52087OCT     C1 4173  11.713   7.554   9.985 -0.1158 -0.0822  0.2530
52087OCT     C2 4174  11.905   7.124   9.959 -0.2105  0.5447  0.0552
52088OCT     C1 4175   3.261  10.801  16.531 -0.2785 -0.2399 -0.3219
52088OCT     C2 4176   3.028  10.580  16.172  0.1716  0.0325  0.0598
52089OCT     C1 4177  19.022  11.064  13.361 -0.1566  0.0558  0.5639
52089OCT     C2 4178  19.131  10.788  12.983 -0.0236 -0.0455 -0.1560
52090OCT     C1 4179  18.621  17.162   8.892 -0.1104 -0.1726  0.1526
52090OCT     C2 4180  18.409  16.870   9.212  0.2715 -0.1183 -0.1192
52091OCT     C1 4181  14.001  10.024  22.667  0.3125 -0.1964  0.0217
52091OCT     C2 4182  14.077  10.182  22.198  0.1439 -0.0924 -0.4128
52092OCT     C1 4183  11.635   6.521   3.223  0.0523  0.2044  0.1500
52092OCT     C2 4184  11.328   6.560   3.542  0.3289 -0.2114  0.2024
52093OCT     C1 4185  20.531   7.823  20.383  0.3521 -0.3206 -0.1067
52093OCT     C2 4186  20.450   8.021  20.801  0.1090 -0.1633 -0.0523
52094OCT     C1 4187  21.136  12.715  12.485 -0.1560 -0.1879  0.0829
52094OCT     C2 4188  20.964  12.740  12.908  0.2129  0.3192  0.0381
52095OCT     C1 4189   4.338  15.639  23.731  0.0701 -0.1773 -0.1464
52095OCT     C2 4190   4.682  15.745   0.268  0.0159  0.2529  0.1096
52096OCT     C1 4191  18.991   4.128  10.208  0.0532 -0.0432  0.2115
52096OCT     C2 4192  18.640   4.342   9.963  0.2404 -0.0153  0.1905
52097OCT     C1 4193  22.619  19.454   1.058  0.1265 -0.1228 -0.6097
52097OCT     C2 4194  22.286  19.713   0.785 -0.0420 -0.0560 -0.1617
52098OCT     C1 4195   5.588   5.282   8.291 -0.1173  0.0534  0.2050
52098OCT     C2 4196   6.003   5.184   8.487  0.0870  0.0630 -0.0016
52099OCT     C1 4197  22.400  22.282   3.008  0.1243 -0.1630  0.1163
52099OCT     C2 4198  22.162  22.583   3.197 -0.1944  0.4393 -0.2415
52100OCT     C1 4199   6.441  18.151   9.243 -0.3028 -0.1206  0.0819
52100OCT     C2 4200   6.111  18.321   9.527  0.2841  0.4527 -0.0232
52101OCT     C1 4201  17.127   6.119  11.391  0.5247  0.3166 -0.3009
52101OCT     C2 4202  16.714   5.996  11.096 -0.0217 -0.0430  0.0013
52102OCT     C1 4203  18.029   6.369   5.035 -0.1485 -0.2681 -0.4153
52102OCT     C2 4204  18.061   6.054   5.411  0.1617  0.2050  0.1713
52103OCT     C1 4205   4.480   5.235   5.293 -0.1291 -0.0732  0.2957
52103OCT     C2 4206   4.349   5.020   5.713  0.1599  0.1599 -0.2600
52104OCT     C1 4207  18.875   2.325   0.868  0.2070 -0.2558 -0.0794
52104OCT     C2 4208  19.303   2.250   0.648  0.2200 -0.2220  0.0239
52105OCT     C1 4209   8.201  20.634  15.590 -0.1248  0.0950 -0.2843
52105OCT     C2 4210   7.961  20.247  15.704 -0.0007  0.2662  0.3228
52106OCT     C1 4211  17.734   6.900   4.936 -0.2381 -0.0421  0.5037
52106OCT     C2 4212  17.337   6.830   4.729  0.0476  0.2447 -0.2564
52107OCT     C1 4213  20.404  19.570  14.337  0.2330  0.2073 -0.3078
52107OCT     C2 4214  19.948  19.384  14.473 -0.3469  0.0045  0.4429
52108OCT     C1 4215  13.679   0.633   6.294 -0.1129  0.1052  0.2127
52108OCT     C2 4216  13.848   0.837   5.987 -0.5075 -0.0959  0.3851
52109OCT     C1 4217   0.312  14.675   6.505  0.1215 -0.1569  0.2791
52109OCT     C2 4218   0.545  14.999   6.741  0.2280 -0.2520  0.0942
52110OCT     C1 4219  13.646  15.978  11.324  0.0317  0.2442 -0.0885
52110OCT     C2 4220  13.704  15.503  11.364 -0.0040 -0.0453 -0.0387
52111OCT     C1 4221  21.260   7.826   3.627  0.3569 -0.1455 -0.1331
52111OCT     C2 4222  20.779   7.790   3.731 -0.0222 -0.0799 -0.3043
52112OCT     C1 4223  18.779  12.160   1.287  0.2101  0.0159 -0.0289
52112OCT     C2 4224  18.472  12.509   1.145  0.1818 -0.1666  0.2596
52113OCT     C1 4225   4.031   6.354   7.997  0.0577 -0.1666  0.2326
52113OCT     C2 4226   3.784   6.602   8.312  0.0547  0.1338 -0.0720
52114OCT     C1 4227  20.410  13.358   3.646 -0.1687  0.0278 -0.0283
52114OCT     C2 4228  20.755  13.414   3.989  0.0033  0.5449  0.1473
52115OCT     C1 4229  14.377   6.324   6.402 -0.2600  0.0355  0.0409
52115OCT     C2 4230  14.004   6.475   6.571 -0.0958 -0.0062  0.0414
52116OCT     C1 4231  17.442  12.344   0.977  0.0254  0.0283  0.4952
52116OCT     C2 4232  17.042  12.099   0.796  0.2850  0.1129 -0.4602
52117OCT     C1 4233   0.666  12.100   6.323  0.2412  0.0202  0.2853
52117OCT     C2 4234   1.081  12.141   6.515  0.0818 -0.0314 -0.2106
52118OCT     C1 4235  14.516   8.011   3.211  0.0577 -0.2177 -0.2059
52118OCT     C2 4236  14.967   7.855   3.224  0.2659 -0.1635  0.2143
52119OCT     C1 4237   3.607  14.579  16.452 -0.3465  0.2692  0.1134
52119OCT     C2 4238   3.483  14.905  16.141  0.1714  0.0818  0.1451
52120OCT     C1 4239   1.464   9.905  23.433  0.0546 -0.2611  0.2799
52120OCT     C2 4240   1.149   9.808  23.140 -0.2498 -0.1829 -0.2189
52121OCT     C1 4241  17.369  13.163  21.773  0.0795 -0.0099  0.0638
52121OCT     C2 4242  17.485  12.992  21.377  0.4016 -0.2929 -0.2286
52122OCT     C1 4243  10.701   0.242   7.388 -0.1068  0.1447  0.1121
52122OCT     C2 4244  10.444   0.264   7.754  0.0218  0.1516 -0.1777
52123OCT     C1 4245   9.294  11.020  18.972 -0.1818  0.1691  0.0401
52123OCT     C2 4246   9.699  11.115  18.710 -0.0640 -0.1893  0.2132
52124OCT     C1 4247   3.276   1.592  13.803  0.3030 -0.0238 -0.0980
52124OCT     C2 4248   3.714   1.602  13.669 -0.1003  0.1729 -0.4142
52125OCT     C1 4249  19.023   8.022   9.782 -0.1844  0.2937 -0.0882
52125OCT     C2 4250  19.021   8.434  10.025 -0.2972  0.4285 -0.2296
52126OCT     C1 4251   8.250   0.644  11.278 -0.1785  0.2422 -0.4846
52126OCT     C2 4252   8.545   0.395  11.504  0.4162 -0.2058  0.0349
52127OCT     C1 4253   1.874  17.402   7.296  0.2115  0.1435  0.0950
52127OCT     C2 4254   2.329  17.447   7.268  0.2370 -0.1130  0.4774
52128OCT     C1 4255   3.885  11.696   1.593  0.4924  0.0086  0.1009
52128OCT     C2 4256   3.698  11.317   1.751 -0.2266 -0.1251 -0.1681
52129OCT     C1 4257   4.230  16.186  20.892 -0.0075 -0.0110  0.4286
52129OCT     C2 4258   3.815  16.298  20.661 -0.1352  0.0448  0.3227
52130OCT     C1 4259  13.389   3.882   9.974  0.0171  0.1348  0.0542
52130OCT     C2 4260  12.964   4.055   9.943 -0.0143 -0.1184  0.2757
52131OCT     C1 4261  12.665  22.168  18.293  0.0495 -0.1273  0.0199
52131OCT     C2 4262  12.325  21.936  18.161  0.1507  0.2018  0.4084
52132OCT     C1 4263  15.392  18.227  13.521 -0.4428 -0.1829  0.6202
52132OCT     C2 4264  15.303  17.861  13.259  0.0171 -0.0524 -0.2183
52133OCT     C1 4265   7.889   4.068  13.786  0.0441 -0.0621  0.1839
52133OCT     C2 4266   7.600   4.372  14.042 -0.1271  0.3263 -0.1137
52134OCT     C1 4267   5.959  18.927   6.104  0.2497 -0.0006  0.2364
52134OCT     C2 4268   5.759  19.283   5.993  0.3967 -0.1390  0.0013
52135OCT     C1 4269   5.380   0.926  13.945 -0.1701 -0.2150  0.1395
52135OCT     C2 4270   5.449   1.151  13.518 -0.1652 -0.1929  0.0755
52136OCT     C1 4271  20.641   3.884  18.248  0.3493  0.0544  0.1087
52136OCT     C2 4272  20.783   3.509  17.922  0.1197  0.2432 -0.0819
52137OCT     C1 4273   4.451   5.849  22.186 -0.1562  0.0177 -0.2678
52137OCT     C2 4274   4.712   5.556  22.154  0.1088 -0.0268 -0.2503
52138OCT     C1 4275   1.589  19.981  21.718  0.1608  0.3416 -0.0853
52138OCT     C2 4276   1.463  19.652  21.495  0.0115  0.1384  0.1548
52139OCT     C1 4277   2.370  17.602  11.435  0.1544  0.1301 -0.0382
52139OCT     C2 4278   1.986  17.612  11.673  0.5343  0.3385 -0.2236
52140OCT     C1 4279  12.246  19.940  19.216 -0.2633  0.1393 -0.0308
52140OCT     C2 4280  12.248  20.285  18.827 -0.0911 -0.2607  0.0214
52141OCT     C1 4281   8.747  17.473   7.694  0.0334 -0.0843  0.1214
52141OCT     C2 4282   8.828  17.015   7.501 -0.2353 -0.1028 -0.2058
52142OCT     C1 4283   8.903   9.100   7.142 -0.4812 -0.1159  0.1173
52142OCT     C2 4284   9.384   9.061   7.182 -0.0292  0.3444  0.2285
52143OCT     C1 4285  13.086   1.483   8.064 -0.1894 -0.0071 -0.0879
52143OCT     C2 4286  12.863   1.140   7.873  0.0561 -0.0340 -0.1112
52144OCT     C1 4287  22.622   0.506  10.034 -0.0093 -0.5747 -0.1191
52144OCT     C2 4288  22.496   0.931   9.933  0.2076  0.1215  0.0925
52145OCT     C1 4289  17.604  15.108   1.427 -0.0742  0.1729  0.4595
52145OCT     C2 4290  17.374  15.515   1.548 -0.3367 -0.1975 -0.0151
52146OCT     C1 4291   0.851  17.354   0.351 -0.4808 -0.4779  0.2380
52146OCT     C2 4292   1.329  17.376   0.457  0.0974 -0.1648 -0.0047
52147OCT     C1 4293   5.415  19.496   5.146 -0.1295  0.2981 -0.0375
52147OCT     C2 4294   5.711  19.286   5.502 -0.1022 -0.0635  0.1086
52148OCT     C1 4295  12.491  23.144  11.214  0.1659 -0.0007  0.0781
52148OCT     C2 4296  12.708  23.589  11.206 -0.0731 -0.1087 -0.1147
52149OCT     C1 4297  20.752   2.073  18.364  0.0932  0.2792  0.0281
52149OCT     C2 4298  20.459   2.287  18.067 -0.1020 -0.0968 -0.0328
52150OCT     C1 4299  23.310  18.591   8.153 -0.3398  0.4481 -0.0659
52150OCT     C2 4300  23.054  18.776   8.456  0.1495 -0.0541 -0.1269
52151OCT     C1 4301   6.108  16.368   4.026  0.0464 -0.0392 -0.2953
52151OCT     C2 4302   6.319  16.531   3.611  0.1014  0.4142 -0.1353
52152OCT     C1 4303   6.650  18.427   9.693 -0.2199 -0.0081  0.1794
52152OCT     C2 4304   6.623  18.776   9.417  0.1336  0.1935 -0.1921
52153OCT     C1 4305   9.899   6.871  15.257  0.0319  0.1199  0.1980
52153OCT     C2 4306  10.258   7.069  15.014 -0.2899  0.0829 -0.1480
52154OCT     C1 4307  20.287   0.526   7.983  0.0164  0.0826  0.1973
52154OCT     C2 4308  20.427   0.389   7.607 -0.1216  0.0639 -0.1844
52155OCT     C1 4309  11.987  22.732  15.507  0.1405 -0.0182 -0.2206
52155OCT     C2 4310  12.157  22.694  15.935  0.0466 -0.1392  0.0678
52156OCT     C1 4311   1.097  11.355  20.609  0.2388  0.0103 -0.0636
52156OCT     C2 4312   1.468  11.059  20.716  0.1725  0.0644  0.2827
52157OCT     C1 4313  14.314   7.536   4.478  0.0678  0.0106  0.0929
52157OCT     C2 4314  13.886   7.591   4.573 -0.3905 -0.0776  0.0729
52158OCT     C1 4315   7.430  13.810  20.355 -0.3008  0.2850  0.1278
52158OCT     C2 4316   7.014  14.031  20.430  0.2819 -0.2394  0.3011
52159OCT     C1 4317  16.693  13.719  17.176  0.0639 -0.0165  0.0680
52159OCT     C2 4318  16.546  14.152  17.363  0.3765 -0.1584  0.1036
52160OCT     C1 4319   9.769  18.220   8.523 -0.0995  0.0482 -0.1265
52160OCT     C2 4320   9.958  17.993   8.139  0.0848 -0.2132  0.1148
52161OCT     C1 4321   0.180  10.784  17.681  0.1765  0.3275  0.2917
52161OCT     C2 4322   0.546  11.055  17.849  0.0726 -0.1685 -0.1760
52162OCT     C1 4323   1.086   5.821   0.537  0.2771  0.1009  0.0526
52162OCT     C2 4324   1.136   6.306   0.582 -0.0672  0.0178  0.1864
52163OCT     C1 4325  14.068   6.046  11.875  0.0961 -0.2606 -0.1045
52163OCT     C2 4326  14.437   6.314  11.842  0.0087 -0.3545  0.2918
52164OCT     C1 4327  22.651  17.031  11.775  0.1923 -0.0515  0.0577
52164OCT     C2 4328  22.500  16.603  11.833 -0.0204  0.1590  0.0517
52165OCT     C1 4329  11.339  12.318  12.752  0.2322 -0.0824 -0.1263
52165OCT     C2 4330  11.677  12.567  12.505 -0.3588 -0.0200  0.2835
52166OCT     C1 4331   9.352  18.950   8.175  0.0928 -0.3242  0.1277
52166OCT     C2 4332   9.045  18.657   8.280  0.1022 -0.0011 -0.0399
52167OCT     C1 4333  14.665   5.385   9.400  0.2220  0.1131  0.0583
52167OCT     C2 4334  14.428   5.426   9.819  0.1688 -0.0872 -0.0404
52168OCT     C1 4335   9.837   4.516  19.125 -0.3181  0.0067  0.0212
52168OCT     C2 4336   9.948   4.907  19.067  0.0476 -0.0236 -0.0039
52169OCT     C1 4337   7.146  13.584  19.339  0.0206 -0.1920 -0.4874
52169OCT     C2 4338   7.055  13.942  19.604  0.0721 -0.0183 -0.4185
52170OCT     C1 4339  20.761  19.160  19.883 -0.0124 -0.3997  0.1224
52170OCT     C2 4340  20.824  19.159  20.334  0.4127  0.1591 -0.1143
52171OCT     C1 4341  18.757  20.082  14.285 -0.2108  0.0043 -0.1960
52171OCT     C2 4342  19.157  19.805  14.191 -0.0358  0.3595  0.1817
52172OCT     C1 4343  15.518  10.251  10.990 -0.3378  0.2226  0.2814
52172OCT     C2 4344  15.469  10.409  11.406 -0.2215  0.2259 -0.1159
52173OCT     C1 4345   1.750  13.150  15.553  0.2058  0.0886  0.2373
52173OCT     C2 4346   1.816  13.115  15.072 -0.0828  0.2959  0.1025
52174OCT     C1 4347   0.882   9.516  19.476 -0.0957  0.2119  0.0413
52174OCT     C2 4348   0.644   9.235  19.174  0.0500  0.1130  0.0199
52175OCT     C1 4349   2.775  12.345   0.047 -0.0195  0.0210  0.3423
52175OCT     C2 4350   2.893  12.624  23.373  0.4849  0.0014  0.0166
52176OCT     C1 4351  19.081   3.821  21.390  0.3280  0.0823  0.2657
52176OCT     C2 4352  19.408   4.136  21.413 -0.0521 -0.1757 -0.0550
52177OCT     C1 4353   7.203   8.386   8.632  0.0798 -0.0403 -0.2228
52177OCT     C2 4354   7.051   8.245   9.082  0.2355 -0.2250 -0.4661
52178OCT     C1 4355  23.011  16.815  15.706 -0.1015 -0.2633 -0.2104
52178OCT     C2 4356  23.280  17.077  16.021  0.4514  0.1633 -0.0576
52179OCT     C1 4357   1.527  14.385   1.543  0.1427 -0.1207  0.2040
52179OCT     C2 4358   1.081  14.465   1.418  0.2158 -0.1513 -0.2747
52180OCT     C1 4359  19.635   5.108  19.648  0.0938  0.1204  0.0379
52180OCT     C2 4360  19.645   4.872  19.240 -0.0562  0.1549 -0.3846
52181OCT     C1 4361   2.191  13.455  23.213  0.0100 -0.3202  0.2280
52181OCT     C2 4362   2.530  13.587  22.888  0.1152  0.0972  0.0516
52182OCT     C1 4363  21.445  12.776  23.361  0.2104 -0.3074  0.0466
52182OCT     C2 4364  21.773  12.908  23.045 -0.3760  0.3373 -0.3421
52183OCT     C1 4365   3.881   3.082   6.202 -0.2737  0.0164  0.3562
52183OCT     C2 4366   3.975   3.228   6.604 -0.2582  0.0940  0.1384
52184OCT     C1 4367  13.557   8.602  13.470  0.2724  0.3697  0.2068
52184OCT     C2 4368  14.022   8.451  13.585 -0.0679  0.5323 -0.3710
52185OCT     C1 4369  13.973  19.182  18.416 -0.0861 -0.2760  0.5599
52185OCT     C2 4370  14.211  19.524  18.579  0.0763 -0.1884 -0.1318
52186OCT     C1 4371   9.896   2.546   7.778  0.2016 -0.0484 -0.0238
52186OCT     C2 4372   9.520   2.899   7.746  0.0540  0.2269  0.5365
52187OCT     C1 4373   0.720  22.916  14.078  0.2394  0.1231 -0.0660
52187OCT     C2 4374   1.016  22.886  14.413 -0.1352 -0.5304  0.0076
52188OCT     C1 4375   6.353  13.838   6.503  0.1458 -0.3282 -0.1928
52188OCT     C2 4376   6.173  13.425   6.593  0.0785 -0.2694 -0.1042
52189OCT     C1 4377  11.288  22.452  22.164 -0.0748 -0.1503  0.0745
52189OCT     C2 4378  11.366  22.910  22.134 -0.2172  0.1422 -0.1377
52190OCT     C1 4379   6.454  16.182   2.684 -0.0193 -0.0403  0.0503
52190OCT     C2 4380   6.825  16.455   2.523 -0.2551 -0.0401 -0.1494
52191OCT     C1 4381  23.623   0.869  11.876  0.0768 -0.0464  0.1691
52191OCT     C2 4382   0.273   0.785  11.933 -0.3218  0.1610 -0.3213
52192OCT     C1 4383  16.306   4.001   8.030 -0.3557 -0.2061  0.2146
52192OCT     C2 4384  16.596   3.666   7.941 -0.1658  0.1428 -0.1368
52193OCT     C1 4385   3.184  10.044  15.453 -0.1391  0.4766 -0.0777
52193OCT     C2 4386   3.222   9.705  15.076 -0.3324 -0.0438 -0.3551
52194OCT     C1 4387  20.919  17.010   8.831  0.2566  0.0984 -0.2139
52194OCT     C2 4388  20.784  17.171   8.386 -0.2668 -0.2461  0.2735
52195OCT     C1 4389   8.413  16.629  17.895  0.1912 -0.1047  0.1212
52195OCT     C2 4390   8.220  16.823  18.301 -0.0818  0.1283 -0.3862
52196OCT     C1 4391  15.189  13.204  15.363  0.1732 -0.0872 -0.2116
52196OCT     C2 4392  15.001  13.449  14.995  0.2133  0.2358  0.0202
52197OCT     C1 4393   9.592   7.153   6.234 -0.4669  0.5461 -0.1393
52197OCT     C2 4394   9.843   6.817   5.951  0.1806 -0.0530 -0.3090
52198OCT     C1 4395   8.150  14.627  13.310 -0.4001 -0.0181  0.0031
52198OCT     C2 4396   7.714  14.545  13.300  0.4541 -0.2583  0.0925
52199OCT     C1 4397   7.931   5.445  12.381 -0.2702 -0.0928 -0.0833
52199OCT     C2 4398   7.906   5.834  12.151  0.1137  0.1188 -0.0626
52200OCT     C1 4399  19.706  16.212  13.184  0.1722  0.1494 -0.1330
52200OCT     C2 4400  19.461  16.151  12.740  0.0368  0.0628 -0.1155
52201OCT     C1 4401   3.370  22.073  14.259  0.1936  0.0640 -0.0657
52201OCT     C2 4402   3.194  22.427  14.541  0.0222 -0.0596 -0.0628
52202OCT     C1 4403   5.912  22.851  13.482 -0.1131  0.0433  0.1113
52202OCT     C2 4404   6.007  22.410  13.320  0.2094 -0.1266  0.2721
52203OCT     C1 4405   7.496  20.602   0.537 -0.0653 -0.1193  0.1215
52203OCT     C2 4406   7.598  20.815   0.148 -0.2561  0.5011  0.0172
52204OCT     C1 4407   5.282   9.404  14.889 -0.0606  0.0821 -0.3449
52204OCT     C2 4408   5.588   9.107  14.977 -0.1830  0.0332 -0.2732
52205OCT     C1 4409  15.495   4.538   3.479 -0.0671  0.3149 -0.1131
52205OCT     C2 4410  15.531   4.149   3.735  0.0015  0.2449  0.2123
52206OCT     C1 4411   3.695  12.285  21.468 -0.2505 -0.0621 -0.2921
52206OCT     C2 4412   3.513  12.501  21.779  0.0906 -0.0733  0.1886
52207OCT     C1 4413  17.853   5.754  18.802 -0.0049  0.1118  0.0641
52207OCT     C2 4414  17.749   6.198  18.743 -0.2091  0.1914 -0.0150
52208OCT     C1 4415  14.357  11.707  10.044  0.4140 -0.1865  0.0620
52208OCT     C2 4416  14.492  12.126   9.876  0.0165 -0.0414  0.1329
52209OCT     C1 4417   7.421   8.756   4.516 -0.0810  0.4356 -0.2069
52209OCT     C2 4418   7.585   8.823   4.936  0.1406  0.1277  0.1538
52210OCT     C1 4419  11.292   1.625  12.916  0.0868  0.1093 -0.1914
52210OCT     C2 4420  11.291   2.098  12.795 -0.3570  0.0525  0.0107
52211OCT     C1 4421   0.334  21.046  22.493  0.3261  0.4299  0.1504
52211OCT     C2 4422   0.379  21.147  22.905 -0.0057 -0.1504  0.0670
52212OCT     C1 4423   8.224   8.988   7.822  0.4499 -0.1259  0.1209
52212OCT     C2 4424   8.494   9.032   8.201  0.0059  0.3349 -0.3175
52213OCT     C1 4425  21.285   4.023  15.397  0.2462 -0.4267  0.2443
52213OCT     C2 4426  21.677   4.141  15.310 -0.1207  0.3122  0.0601
52214OCT     C1 4427   0.324   7.276  18.211 -0.0884  0.1996 -0.0281
52214OCT     C2 4428   0.382   7.203  17.736 -0.2536 -0.1101 -0.0846
52215OCT     C1 4429   6.410   6.545  16.220  0.1971 -0.2097 -0.2781
52215OCT     C2 4430   6.831   6.635  15.899  0.3312  0.2432  0.2962
52216OCT     C1 4431  18.756  23.041   3.342  0.2058 -0.1304  0.1782
52216OCT     C2 4432  18.523  23.433   3.451  0.0579  0.0413 -0.0495
52217OCT     C1 4433  21.128   0.777  11.606  0.1964 -0.1776 -0.0955
52217OCT     C2 4434  21.161   1.183  11.823 -0.2982 -0.2456  0.0357
52218OCT     C1 4435  22.897   6.711  22.880 -0.2167  0.1358  0.0365
52218OCT     C2 4436  22.921   6.777  22.368  0.0072 -0.0857  0.1504
52219OCT     C1 4437  15.425  19.030   6.142  0.1654 -0.3176 -0.1880
52219OCT     C2 4438  15.316  19.455   6.292 -0.0015  0.0168  0.3440
52220OCT     C1 4439   5.984  21.439   7.705 -0.1478 -0.2420  0.1529
52220OCT     C2 4440   5.879  21.887   7.866  0.1248  0.0896 -0.2798
52221OCT     C1 4441   7.796   0.850   0.760  0.0896 -0.1073 -0.4266
52221OCT     C2 4442   7.985   0.908   1.206  0.3129 -0.0912  0.3560
52222OCT     C1 4443  17.666  11.111   5.266 -0.1096 -0.2531 -0.2881
52222OCT     C2 4444  17.707  10.676   5.268  0.2027 -0.3145 -0.2470
52223OCT     C1 4445  13.500  22.190  10.312  0.1063 -0.1000 -0.0408
52223OCT     C2 4446  13.944  22.259  10.444  0.0192 -0.2867  0.1576
52224OCT     C1 4447   5.132  23.062   1.678  0.0803 -0.1471  0.1176
52224OCT     C2 4448   5.530  23.001   1.410  0.0960 -0.2614 -0.0719
52225OCT     C1 4449   9.671   9.338   4.900 -0.2838 -0.0760 -0.2820
52225OCT     C2 4450   9.912   8.934   4.930  0.5546  0.1700  0.0402
52226OCT     C1 4451  19.075   2.202  17.155 -0.0538  0.0677 -0.0932
52226OCT     C2 4452  19.251   2.644  17.027 -0.5609 -0.2363  0.1321
52227OCT     C1 4453  11.175   2.672  11.578  0.1795 -0.4096  0.1547
52227OCT     C2 4454  11.223   2.517  11.130  0.1235 -0.0735 -0.0826
52228OCT     C1 4455  13.737   8.660  15.412  0.0031 -0.1396 -0.2380
52228OCT     C2 4456  13.424   8.384  15.377  0.0170  0.2213  0.1020
52229OCT     C1 4457  16.474   1.506  17.846 -0.1425 -0.3987  0.0367
52229OCT     C2 4458  16.777   1.215  17.608 -0.2601  0.0841 -0.3580
52230OCT     C1 4459   0.776  23.162  13.656  0.1375 -0.3096  0.0966
52230OCT     C2 4460   1.100  23.303  13.304  0.2587  0.0146 -0.2825
52231OCT     C1 4461  11.695  17.332   7.540 -0.0163  0.2656 -0.1219
52231OCT     C2 4462  11.500  17.547   7.179  0.1527  0.1121 -0.0422
52232OCT     C1 4463   5.928  12.868   4.976  0.1289  0.2580  0.0880
52232OCT     C2 4464   6.365  12.760   5.097 -0.3589  0.2685 -0.1246
52233OCT     C1 4465  14.641   4.275  20.010 -0.1478 -0.2642 -0.3972
52233OCT     C2 4466  14.694   4.502  20.435 -0.2630 -0.1212 -0.0658
52234OCT     C1 4467   1.738   2.863  16.786 -0.0128  0.0613  0.3329
52234OCT     C2 4468   1.265   3.086  16.786  0.2654  0.3093  0.1717
52235OCT     C1 4469  15.699  10.043  16.418 -0.2344 -0.0763 -0.0385
52235OCT     C2 4470  15.668   9.604  16.540  0.3898  0.1857 -0.3143
52236OCT     C1 4471  21.962   3.929  14.810 -0.1053 -0.3744 -0.1359
52236OCT     C2 4472  22.093   3.902  15.252 -0.1251 -0.3211  0.1246
52237OCT     C1 4473  23.734  20.413  21.826 -0.2230  0.0345  0.0458
52237OCT     C2 4474  23.540  20.290  22.231  0.1043 -0.2070 -0.0906
52238OCT     C1 4475  17.368  23.581   9.999  0.1841  0.3243  0.4959
52238OCT     C2 4476  17.631  23.706  10.385  0.0842  0.2448  0.3862
52239OCT     C1 4477   8.352  12.989  17.794  0.1961  0.1756  0.2302
52239OCT     C2 4478   8.686  13.312  17.860  0.1921 -0.0630 -0.0914
52240OCT     C1 4479  20.185   5.410  10.510 -0.1449 -0.1278  0.1407
52240OCT     C2 4480  19.824   5.652  10.519  0.0342 -0.0269  0.0398
52241OCT     C1 4481  18.347  16.177   1.106  0.0406  0.0556 -0.0262
52241OCT     C2 4482  17.925  16.276   0.898 -0.0577  0.0827 -0.1628
52242OCT     C1 4483   5.443  13.350  12.007 -0.1181 -0.0596 -0.1259
52242OCT     C2 4484   5.545  13.809  12.099  0.2445 -0.1486  0.4668
52243OCT     C1 4485   4.348   9.576  17.517 -0.1002 -0.0536  0.0902
52243OCT     C2 4486   4.211   9.749  17.109 -0.3067  0.1800 -0.1938
52244OCT     C1 4487   1.373   9.783  12.425  0.0581 -0.3367  0.1830
52244OCT     C2 4488   0.956   9.904  12.567 -0.0664  0.2131 -0.1306
52245OCT     C1 4489  10.460  12.975  18.323 -0.0754  0.0409  0.1158
52245OCT     C2 4490  10.008  12.963  18.144 -0.2467 -0.0342 -0.1572
52246OCT     C1 4491  12.573  22.991   8.353  0.1093 -0.1357  0.3331
52246OCT     C2 4492  12.217  22.757   8.483  0.2664  0.3721 -0.2156
52247OCT     C1 4493   2.822  16.773  12.775 -0.1642  0.2040  0.4200
52247OCT     C2 4494   3.003  16.408  12.504  0.2968  0.2032 -0.2197
52248OCT     C1 4495  15.158  13.205  20.249  0.2002 -0.4900 -0.0601
52248OCT     C2 4496  14.966  12.787  20.428  0.3978  0.0421 -0.2015
52249OCT     C1 4497  21.332  23.494  12.642 -0.4369  0.1980  0.1145
52249OCT     C2 4498  21.751  23.265  12.469 -0.1553  0.4311 -0.3186
52250OCT     C1 4499   1.028  23.689   7.260  0.0842  0.2162  0.0171
52250OCT     C2 4500   1.078  23.255   7.409  0.2556  0.2954  0.0168
52251OCT     C1 4501   0.763   3.566  12.575 -0.0329  0.2301  0.1662
52251OCT     C2 4502   1.119   3.855  12.577 -0.0750 -0.0087  0.5168
52252OCT     C1 4503   6.947   2.885  13.442  0.0016  0.0663  0.1174
52252OCT     C2 4504   6.956   2.466  13.606  0.0575 -0.1303 -0.1402
52253OCT     C1 4505  20.723  15.695   4.331  0.3098 -0.2344 -0.2262
52253OCT     C2 4506  20.424  15.850   4.605  0.2184  0.3000 -0.4000
52254OCT     C1 4507  20.900  23.044   7.417 -0.2088 -0.0968  0.0106
52254OCT     C2 4508  21.322  22.943   7.173 -0.0299  0.0911 -0.1824
52255OCT     C1 4509  12.243   3.020   5.149  0.0705  0.1000 -0.2598
52255OCT     C2 4510  12.621   2.848   5.398  0.2330  0.2668  0.1563
52256OCT     C1 4511  12.140  13.649   2.637  0.1814  0.1937 -0.0513
52256OCT     C2 4512  11.653  13.812   2.622 -0.1212  0.1384  0.0256
52257OCT     C1 4513  13.301  12.888   4.545  0.0701  0.0882 -0.0503
52257OCT     C2 4514  12.845  12.884   4.316  0.1346 -0.3517  0.2919
52258OCT     C1 4515   3.466  14.178   4.163  0.1940  0.3133  0.1687
52258OCT     C2 4516   3.957  14.129   4.112  0.2413 -0.0688  0.1485
52259OCT     C1 4517  19.744   0.657  23.214 -0.1706 -0.1056  0.0504
52259OCT     C2 4518  19.344   0.848  23.038  0.0750 -0.1703 -0.2829
52260OCT     C1 4519   6.641   3.371  13.827  0.0158 -0.3832  0.1398
52260OCT     C2 4520   6.413   2.962  13.614  0.2462  0.0968 -0.0131
52261OCT     C1 4521   0.321  18.747  22.753 -0.0038 -0.6494  0.3340
52261OCT     C2 4522   0.430  18.322  22.851 -0.2508  0.1034 -0.4387
52262OCT     C1 4523   4.142   8.319   3.226 -0.5232  0.0121  0.0899
52262OCT     C2 4524   3.851   8.337   3.632 -0.0374 -0.4922  0.0849
52263OCT     C1 4525  16.950  18.857  10.435 -0.1075  0.2057  0.0250
52263OCT     C2 4526  17.212  18.619  10.082 -0.3519 -0.2906 -0.1819
52264OCT     C1 4527   3.866   6.759  19.492  0.0054  0.1153 -0.0703
52264OCT     C2 4528   4.017   6.418  19.782  0.1286  0.2068  0.1403
52265OCT     C1 4529  10.642  16.827  16.203 -0.1948  0.3171  0.3705
52265OCT     C2 4530  10.558  17.271  16.143 -0.0310 -0.0619  0.2309
52266OCT     C1 4531   6.348  13.651   1.991  0.0257  0.1551 -0.1160
52266OCT     C2 4532   6.165  14.051   1.734 -0.2298 -0.0705  0.0256
52267OCT     C1 4533  20.622  13.784   1.008 -0.5294  0.0393  0.0393
52267OCT     C2 4534  20.717  13.407   0.653 -0.1095  0.0852  0.0610
52268OCT     C1 4535   5.627   5.908   3.960 -0.1065  0.1374  0.2229
52268OCT     C2 4536   5.335   5.635   4.204 -0.0274 -0.0559 -0.1875
52269OCT     C1 4537   2.694  10.581   9.802 -0.0203 -0.0462 -0.0703
52269OCT     C2 4538   2.436  10.930   9.856  0.0212  0.0360  0.2690
52270OCT     C1 4539  13.303  15.677  11.061  0.1802 -0.3295  0.2403
52270OCT     C2 4540  13.180  16.110  10.970  0.2281 -0.2404 -0.1305
52271OCT     C1 4541  22.845   1.729   8.154  0.0867  0.2590 -0.0683
52271OCT     C2 4542  23.158   2.053   8.281  0.1603 -0.1437 -0.3706
52272OCT     C1 4543  19.416   9.554  15.673  0.2209  0.3484  0.1840
52272OCT     C2 4544  19.563   9.889  15.377 -0.0854  0.2982 -0.2234
52273OCT     C1 4545  15.528   8.617   5.971  0.2069 -0.0164  0.1177
52273OCT     C2 4546  15.887   8.691   6.193  0.0604  0.1498  0.2955
52274OCT     C1 4547   4.701  19.097  19.561  0.2199  0.0419 -0.0955
52274OCT     C2 4548   5.148  19.185  19.461  0.0384  0.2496  0.2637
52275OCT     C1 4549   8.160   8.969  16.736  0.2930  0.0715  0.0796
52275OCT     C2 4550   8.136   8.871  16.247  0.1068 -0.1857 -0.2769
52276OCT     C1 4551  18.818  12.691   2.996  0.3217 -0.3127  0.0109
52276OCT     C2 4552  19.051  12.338   3.222 -0.2830  0.2201 -0.0704
52277OCT     C1 4553  13.033   0.895  18.753 -0.1614  0.0947 -0.1415
52277OCT     C2 4554  13.132   1.296  18.497  0.0581 -0.0221 -0.1689
52278OCT     C1 4555  14.148  15.591  23.436  0.3105 -0.0576  0.3428
52278OCT     C2 4556  14.443  15.963  23.390 -0.4027 -0.1184  0.3025
52279OCT     C1 4557   5.999   7.416   3.568  0.0665  0.0419 -0.4069
52279OCT     C2 4558   5.952   7.447   3.073  0.0748  0.1696  0.2196
52280OCT     C1 4559   4.417   2.554  18.385  0.0363 -0.0401 -0.1280
52280OCT     C2 4560   4.576   2.464  18.753  0.0808 -0.0489  0.1899
52281OCT     C1 4561  10.391  18.427   9.418  0.0078  0.1942 -0.0272
52281OCT     C2 4562   9.992  18.200   9.418  0.3094  0.1586  0.2070
52282OCT     C1 4563   6.340  14.795  22.433  0.1943 -0.1355  0.3377
52282OCT     C2 4564   6.102  15.136  22.652  0.1336 -0.3135  0.2338
52283OCT     C1 4565  10.481  18.155  15.276  0.0716  0.4742  0.0938
52283OCT     C2 4566  10.885  17.999  15.425  0.1000  0.0808 -0.2871
52284OCT     C1 4567  22.377  19.009  20.498 -0.2779  0.1860 -0.3964
52284OCT     C2 4568  22.571  19.125  20.922 -0.0120 -0.3067  0.0367
52285OCT     C1 4569   8.382   5.409  21.035  0.0812  0.2943 -0.1488
52285OCT     C2 4570   8.456   5.868  20.883 -0.3426  0.1641  0.1051
52286OCT     C1 4571  10.545  13.646   8.601 -0.0106 -0.1406  0.0322
52286OCT     C2 4572  10.948  13.754   8.301  0.2377 -0.1349  0.0313
52287OCT     C1 4573   3.895   8.105  11.364 -0.0904 -0.1202 -0.0431
52287OCT     C2 4574   3.793   8.252  11.774 -0.1999  0.1613 -0.0895
52288OCT     C1 4575   8.477   9.751  17.440  0.0010  0.2527  0.1813
52288OCT     C2 4576   8.632   9.600  17.026 -0.1566  0.1183 -0.0441
52289OCT     C1 4577  14.443  21.739  20.166  0.1235 -0.1903 -0.0982
52289OCT     C2 4578  14.495  22.145  20.332  0.3901 -0.1076  0.0906
52290OCT     C1 4579   0.560  14.807   2.894 -0.0130  0.1507 -0.2647
52290OCT     C2 4580   0.310  14.621   2.489  0.1523 -0.1242  0.0285
52291OCT     C1 4581  11.990  12.152   5.455  0.2569  0.0141  0.2763
52291OCT     C2 4582  12.215  11.989   5.095  0.1870 -0.1833 -0.1288
52292OCT     C1 4583   5.570  20.964  17.669 -0.2342 -0.2141  0.1927
52292OCT     C2 4584   5.375  21.153  17.316  0.1616 -0.1867  0.0155
52293OCT     C1 4585   3.079  20.336  11.135  0.0270  0.2496 -0.0243
52293OCT     C2 4586   3.243  19.904  10.989  0.3132  0.0113 -0.2680
52294OCT     C1 4587  19.557   6.087  12.559  0.1798  0.5446  0.1698
52294OCT     C2 4588  19.467   5.816  12.967 -0.1737 -0.4245 -0.2079
52295OCT     C1 4589   1.763  10.751  22.151 -0.0782 -0.1062  0.1432
52295OCT     C2 4590   1.502  10.474  22.435  0.0385 -0.0338  0.0315
52296OCT     C1 4591  20.043   6.902  12.889 -0.1424 -0.1250  0.1824
52296OCT     C2 4592  19.932   7.314  12.654  0.0271  0.2433  0.1810
52297OCT     C1 4593   4.376  13.904  21.900  0.0381  0.0575  0.0705
52297OCT     C2 4594   4.193  13.397  21.931 -0.1515 -0.1340 -0.2842
52298OCT     C1 4595  11.733  21.539  15.511  0.0769  0.1759  0.1074
52298OCT     C2 4596  11.788  21.374  15.959 -0.1004 -0.1349  0.0697
52299OCT     C1 4597  15.947  13.442   4.540  0.3753 -0.1558 -0.1313
52299OCT     C2 4598  16.299  13.701   4.656  0.2643 -0.0863  0.2362
52300OCT     C1 4599  14.082  21.030  16.862 -0.0054  0.0667 -0.0751
52300OCT     C2 4600  14.536  20.929  16.891  0.1847  0.3663  0.0244
52301OCT     C1 4601  16.299   9.780   9.976  0.3287 -0.0503 -0.0107
52301OCT     C2 4602  16.439  10.174  10.153  0.1769  0.3674  0.2477
52302OCT     C1 4603  20.100  10.149   3.383  0.3799  0.4551  0.1874
52302OCT     C2 4604  20.464   9.841   3.144  0.0186  0.0630  0.1268
52303OCT     C1 4605   3.374   9.091   6.802 -0.1208  0.0061  0.4792
52303OCT     C2 4606   3.406   8.604   6.694 -0.2019 -0.0792  0.2771
52304OCT     C1 4607   6.226   8.040   5.578  0.2270  0.3068 -0.1031
52304OCT     C2 4608   5.845   8.354   5.549 -0.1883  0.1791 -0.2584
52305OCT     C1 4609  11.224   4.300  14.562 -0.2355  0.2244  0.1701
52305OCT     C2 4610  11.169   4.231  15.026  0.0172  0.0766  0.2430
52306OCT     C1 4611  21.371  20.984  15.932  0.0856 -0.0055  0.1473
52306OCT     C2 4612  21.407  21.166  15.509  0.0427 -0.1951 -0.3143
52307OCT     C1 4613  14.368  18.763  11.108  0.1904 -0.0052 -0.1899
52307OCT     C2 4614  14.533  18.801  10.707 -0.0141 -0.1620 -0.1267
52308OCT     C1 4615  16.663   5.272  18.201 -0.1796  0.0739 -0.0458
52308OCT     C2 4616  16.980   5.608  18.358  0.0634  0.2659 -0.0390
52309OCT     C1 4617   5.688  15.538  17.618  0.0937 -0.0319  0.4073
52309OCT     C2 4618   6.018  15.786  17.741 -0.4544 -0.0379  0.1572
52310OCT     C1 4619  12.563  20.304   2.986 -0.0514 -0.2805  0.2673
52310OCT     C2 4620  12.572  20.617   3.334  0.1570  0.1197  0.0316
52311OCT     C1 4621  10.264  20.279   7.027 -0.2255 -0.0061 -0.2812
52311OCT     C2 4622  10.602  20.159   7.314 -0.2114  0.0803 -0.2083
52312OCT     C1 4623  22.223  11.297  23.273  0.2042 -0.0142  0.0984
52312OCT     C2 4624  22.314  11.159  23.711  0.1095  0.3108 -0.2257
52313OCT     C1 4625  10.338  21.660   3.277  0.6559 -0.0141 -0.0710
52313OCT     C2 4626  10.586  21.594   2.902 -0.1859  0.3157 -0.3355
52314OCT     C1 4627   6.779  14.153  15.399  0.3485 -0.0181  0.0592
52314OCT     C2 4628   6.385  14.309  15.560  0.1217  0.5396 -0.1931
52315OCT     C1 4629   4.890   9.952  18.478  0.0472  0.1959 -0.1845
52315OCT     C2 4630   5.295  10.038  18.610  0.0809 -0.0612 -0.0401
52316OCT     C1 4631   9.003   1.532  16.541  0.2625  0.4455  0.0699
52316OCT     C2 4632   9.084   1.511  16.140 -0.1699 -0.1041 -0.1246
52317OCT     C1 4633   3.361   8.134  17.656  0.3985 -0.1516 -0.3378
52317OCT     C2 4634   3.488   7.834  17.360  0.3018  0.0534 -0.0795
52318OCT     C1 4635  14.663  13.376  13.405 -0.1865 -0.1784  0.0766
52318OCT     C2 4636  14.960  13.614  13.719  0.2897  0.2969  0.1586
52319OCT     C1 4637   5.139  19.394   2.762 -0.0584  0.1732 -0.2046
52319OCT     C2 4638   4.908  18.974   2.823 -0.1812  0.4018 -0.2269
52320OCT     C1 4639  11.688   6.070  22.348  0.1355 -0.1138  0.0164
52320OCT     C2 4640  11.317   5.970  22.529  0.0800  0.1764 -0.5014
52321OCT     C1 4641   6.568  22.411  16.420 -0.4788  0.3696 -0.0388
52321OCT     C2 4642   6.249  22.064  16.537  0.0413 -0.1162  0.2848
52322OCT     C1 4643   6.420   2.928   2.021  0.1854  0.1399  0.0480
52322OCT     C2 4644   6.693   2.646   2.232 -0.1235  0.1787  0.0887
52323OCT     C1 4645  12.460  18.963  23.035  0.0375  0.0139 -0.0847
52323OCT     C2 4646  12.810  18.782  22.785  0.2195 -0.1692  0.0669
52324OCT     C1 4647   9.495   0.041  15.738  0.1848 -0.3667 -0.1030
52324OCT     C2 4648   9.346  23.325  15.902 -0.4260 -0.4413  0.2237
52325OCT     C1 4649  21.672  13.435   0.922  0.0551  0.0252 -0.2472
52325OCT     C2 4650  21.580  13.100   0.527  0.2512 -0.0763 -0.3513
52326OCT     C1 4651   6.714  13.447  18.866 -0.1165  0.0777 -0.0943
52326OCT     C2 4652   7.175  13.527  18.818 -0.0624  0.0616 -0.1398
52327OCT     C1 4653  20.811  20.625  10.590 -0.3948  0.0780  0.2575
52327OCT     C2 4654  20.919  20.179  10.775 -0.2185 -0.6400 -0.0511
52328OCT     C1 4655  10.721  21.455   8.865  0.0068 -0.2895 -0.3573
52328OCT     C2 4656  11.207  21.459   8.822  0.1180  0.0267 -0.1063
52329OCT     C1 4657  10.212  10.490  13.441  0.1584  0.1413  0.0328
52329OCT     C2 4658  10.342  10.305  13.038 -0.3974 -0.1786 -0.0810
52330OCT     C1 4659  11.321  17.793   7.603 -0.1615 -0.1480  0.3711
52330OCT     C2 4660  11.542  18.040   7.265 -0.1085  0.2382 -0.1553
52331OCT     C1 4661  10.008  20.819  18.390 -0.2331 -0.0838  0.0820
52331OCT     C2 4662   9.921  20.434  18.147 -0.0988  0.1442  0.0371
52332OCT     C1 4663  15.729   9.583  19.779  0.1435  0.0900  0.2975
52332OCT     C2 4664  15.639   9.468  19.370  0.0959  0.1426  0.3467
52333OCT     C1 4665   5.136   3.213  22.671  0.2984 -0.1397 -0.0280
52333OCT     C2 4666   4.781   3.111  22.397  0.2126  0.3791  0.0450
52334OCT     C1 4667   0.250   1.056   7.977 -0.2970  0.1452 -0.3214
52334OCT     C2 4668   0.629   1.015   7.715  0.1631  0.0291  0.0941
52335OCT     C1 4669  16.870  10.379  19.563  0.2211 -0.0368  0.0478
52335OCT     C2 4670  16.831  10.724  19.246 -0.1157 -0.1752  0.1861
52336OCT     C1 4671   5.146  22.458   4.949  0.1134 -0.1350  0.2854
52336OCT     C2 4672   5.412  22.333   4.559  0.2703  0.3198  0.2315
52337OCT     C1 4673  10.609  13.558   9.154  0.1591  0.0572  0.0285
52337OCT     C2 4674  10.769  13.867   9.375 -0.1524 -0.0272 -0.0092
52338OCT     C1 4675  16.354  14.089   8.391  0.3540  0.0813 -0.0935
52338OCT     C2 4676  16.650  13.787   8.417 -0.1225 -0.1021  0.1135
52339OCT     C1 4677  13.663  15.641  10.742  0.2657  0.1045  0.0197
52339OCT     C2 4678  13.254  15.517  10.533 -0.0823  0.1559 -0.2910
52340OCT     C1 4679  20.217  10.110  14.705  0.2124  0.0389 -0.4012
52340OCT     C2 4680  19.837   9.971  14.975  0.0967 -0.0775 -0.0835
52341OCT     C1 4681   7.118  16.820   1.347 -0.2875  0.1883  0.0092
52341OCT     C2 4682   7.593  16.952   1.410  0.0571  0.0329  0.2219
52342OCT     C1 4683   8.328  23.180  12.187  0.1345 -0.1703  0.2530
52342OCT     C2 4684   8.021  23.547  12.270 -0.1567  0.0689 -0.2793
52343OCT     C1 4685  12.074  17.690   6.164 -0.5156 -0.2942  0.0780
52343OCT     C2 4686  11.830  17.312   6.074 -0.0007 -0.0285 -0.2183
52344OCT     C1 4687   1.032  16.981   8.257 -0.3199  0.1286  0.1506
52344OCT     C2 4688   0.813  17.399   8.213 -0.2111  0.2155  0.1922
52345OCT     C1 4689   5.927   5.440   0.132 -0.0470 -0.0808  0.1196
52345OCT     C2 4690   6.093   5.897  23.726 -0.3408  0.0770  0.5233
52346OCT     C1 4691  19.271   4.151  16.018  0.0823 -0.2428 -0.1839
52346OCT     C2 4692  19.436   4.446  15.681  0.1635 -0.2732 -0.4586
52347OCT     C1 4693  22.710  14.381  20.195  0.0808  0.2297  0.3128
52347OCT     C2 4694  22.629  13.934  20.280 -0.3410 -0.1679  0.2129
52348OCT     C1 4695   5.110   1.965  13.290 -0.4225  0.2154  0.2564
52348OCT     C2 4696   5.353   2.116  12.926  0.0508 -0.3077 -0.5767
52349OCT     C1 4697   8.428   8.699  17.309 -0.1995 -0.2787  0.1394
52349OCT     C2 4698   8.781   8.433  17.484  0.0810 -0.2511 -0.0320
52350OCT     C1 4699  14.970   5.230   0.366  0.0699  0.5983 -0.0090
52350OCT     C2 4700  15.066   5.493  23.715  0.0453 -0.0189  0.1408
52351OCT     C1 4701   7.810  22.558   7.176 -0.1955  0.0265  0.1722
52351OCT     C2 4702   8.132  22.800   7.438 -0.0400  0.1522  0.0404
52352OCT     C1 4703   0.939  21.966   9.967 -0.1500  0.0291 -0.1524
52352OCT     C2 4704   1.361  21.957  10.039  0.0382  0.2315  0.4385
52353OCT     C1 4705   4.292  14.386   7.482 -0.0983  0.2932 -0.2875
52353OCT     C2 4706   4.217  14.218   7.044 -0.2978 -0.5793 -0.0480
52354OCT     C1 4707   3.244   1.628  18.512 -0.3351  0.0541 -0.0740
52354OCT     C2 4708   3.308   1.648  18.969  0.1335 -0.3182 -0.3169
52355OCT     C1 4709   3.976  12.166  12.430  0.1675 -0.2773  0.0827
52355OCT     C2 4710   4.328  12.032  12.137 -0.0294  0.0596 -0.1697
52356OCT     C1 4711  21.003  10.544  20.970 -0.2400  0.0783  0.2941
52356OCT     C2 4712  21.138  10.685  20.536 -0.2541  0.1951  0.1967
52357OCT     C1 4713  21.482  21.523   8.574  0.2656 -0.2345  0.2285
52357OCT     C2 4714  21.021  21.346   8.629  0.2618 -0.1651  0.3044
52358OCT     C1 4715  20.912   3.442  22.155 -0.2255  0.1010 -0.2536
52358OCT     C2 4716  21.330   3.532  22.399 -0.2751  0.2610  0.1231
52359OCT     C1 4717   6.204   2.498  23.233  0.2393  0.0258 -0.0977
52359OCT     C2 4718   6.654   2.487  23.223  0.2939  0.0924  0.0301
52360OCT     C1 4719  14.607  17.325   1.772  0.0777  0.0347  0.4345
52360OCT     C2 4720  14.580  17.782   1.642  0.1808 -0.0072 -0.0159
52361OCT     C1 4721   4.760  23.354  18.319 -0.2510 -0.2257 -0.2361
52361OCT     C2 4722   4.336  23.252  18.544  0.1408 -0.0985  0.0386
52362OCT     C1 4723  10.368   6.380  23.308  0.0234  0.0727  0.0461
52362OCT     C2 4724  10.823   6.299  23.183  0.0039  0.2621 -0.4339
52363OCT     C1 4725  21.572  16.404  11.617 -0.0441  0.0510 -0.1347
52363OCT     C2 4726  21.833  16.612  11.957  0.0292  0.1892  0.1617
52364OCT     C1 4727  14.893   6.810   3.184  0.4558 -0.0357 -0.0358
52364OCT     C2 4728  14.529   6.528   3.237  0.1557  0.3077 -0.0237
52365OCT     C1 4729   7.492   7.718  15.405 -0.0110 -0.0202 -0.0152
52365OCT     C2 4730   7.670   8.062  15.754  0.0122  0.1951  0.2733
52366OCT     C1 4731   2.502  12.983  19.918 -0.0767 -0.1684 -0.1451
52366OCT     C2 4732   2.076  13.056  20.061  0.5003 -0.1841  0.0800
52367OCT     C1 4733  16.452  15.056  10.734  0.1577  0.3349  0.0009
52367OCT     C2 4734  16.551  15.482  10.639  0.2916 -0.2102  0.4942
52368OCT     C1 4735  17.837   4.895   6.642  0.5677 -0.3564 -0.0482
52368OCT     C2 4736  17.575   4.995   6.275  0.0394 -0.5429 -0.1939
52369OCT     C1 4737   5.215  17.908   2.146 -0.0189  0.1930 -0.1086
52369OCT     C2 4738   5.433  18.383   2.208  0.1261 -0.4831  0.0683
52370OCT     C1 4739   0.628  18.506  17.969  0.0478 -0.1357  0.0249
52370OCT     C2 4740   0.319  18.689  18.214 -0.2026 -0.3138  0.1054
52371OCT     C1 4741   6.231  19.795   8.508 -0.0057 -0.1170  0.1125
52371OCT     C2 4742   6.655  19.748   8.248  0.2825 -0.0407 -0.1093
52372OCT     C1 4743  20.643   4.632   3.987  0.0759  0.0521  0.0747
52372OCT     C2 4744  21.004   4.719   3.671  0.2214  0.1816 -0.0663
52373OCT     C1 4745  16.479  22.623   6.970  0.3569 -0.1255  0.3563
52373OCT     C2 4746  16.229  23.015   7.172  0.0836  0.0104 -0.0592
52374OCT     C1 4747  15.580  16.917   8.681  0.0157  0.1012 -0.2011
52374OCT     C2 4748  15.466  16.614   8.323  0.0483  0.3044 -0.3855
52375OCT     C1 4749  13.468   4.283  20.995  0.2367 -0.0412 -0.1947
52375OCT     C2 4750  13.873   4.438  21.172  0.1745 -0.0485  0.2437
52376OCT     C1 4751  16.312  15.836  19.108 -0.0766 -0.0162 -0.1640
52376OCT     C2 4752  16.176  15.468  19.311  0.0060  0.0324  0.2226
52377OCT     C1 4753   0.165  15.451   7.679  0.1090  0.0954  0.3158
52377OCT     C2 4754   0.326  15.045   7.548 -0.0129 -0.1268 -0.0122
52378OCT     C1 4755   4.658   9.738   1.529  0.0707 -0.0471  0.2190
52378OCT     C2 4756   4.509   9.381   1.783  0.0369  0.3585  0.1715
52379OCT     C1 4757  14.796  12.425  10.374 -0.1202  0.5120 -0.3568
52379OCT     C2 4758  14.477  12.050  10.383  0.1039  0.0231 -0.1715
52380OCT     C1 4759  12.731  20.383  16.351  0.1490 -0.0424  0.4558
52380OCT     C2 4760  12.814  19.973  16.021  0.3039  0.2310 -0.3036
52381OCT     C1 4761  14.342  19.316  15.578 -0.0465  0.1975  0.0396
52381OCT     C2 4762  14.617  19.137  15.928  0.2455  0.1035 -0.1872
52382OCT     C1 4763   5.774   8.518   8.072  0.0382 -0.2064  0.4283
52382OCT     C2 4764   5.629   8.770   8.479 -0.2750 -0.0637  0.0200
52383OCT     C1 4765   6.583  20.667   8.196 -0.0876 -0.2674 -0.1056
52383OCT     C2 4766   6.505  21.041   7.998  0.1327  0.0309 -0.1014
52384OCT     C1 4767   5.246  22.425  10.648  0.1143 -0.1230 -0.0661
52384OCT     C2 4768   5.367  22.693  10.311 -0.1394 -0.1016  0.2256
52385OCT     C1 4769  10.037   6.143   3.638  0.1728  0.3019  0.1615
52385OCT     C2 4770   9.713   6.479   3.470  0.1444  0.2718 -0.0992
52386OCT     C1 4771  14.230  16.944  23.307 -0.0676 -0.1027 -0.5199
52386OCT     C2 4772  14.430  16.656  23.633 -0.3141  0.2361 -0.0256
52387OCT     C1 4773   6.824  12.507   7.700 -0.2801  0.0065  0.1609
52387OCT     C2 4774   6.342  12.372   7.676  0.1404  0.2160 -0.1875
52388OCT     C1 4775   1.533  20.898   4.053 -0.1939  0.0648  0.4976
52388OCT     C2 4776   1.843  21.198   3.841  0.2809 -0.2038 -0.1798
52389OCT     C1 4777   8.236   3.694  21.979  0.2788 -0.2682 -0.1717
52389OCT     C2 4778   8.179   4.135  21.920  0.0190 -0.0079  0.1587
52390OCT     C1 4779   9.540   9.113   6.370 -0.2664  0.3102 -0.1005
52390OCT     C2 4780   9.718   9.046   6.803 -0.0336  0.3726  0.1261
52391OCT     C1 4781  21.517  15.903  21.947  0.0559 -0.1068  0.1157
52391OCT     C2 4782  21.823  15.558  21.995  0.3009  0.0135 -0.1181
52392OCT     C1 4783  15.367  13.826   1.002 -0.0617 -0.0869  0.2666
52392OCT     C2 4784  15.339  14.269   1.127 -0.2687  0.4446 -0.0024
52393OCT     C1 4785   7.256  14.377  11.535 -0.0045 -0.3020  0.0399
52393OCT     C2 4786   7.388  14.781  11.261 -0.1097 -0.1265 -0.0637
52394OCT     C1 4787  12.183   2.988   9.837 -0.1684  0.0351  0.1732
52394OCT     C2 4788  12.596   3.089  10.111  0.0680 -0.2678 -0.0644
52395OCT     C1 4789   4.194  18.137  23.684  0.0387 -0.0376  0.0498
52395OCT     C2 4790   4.072  17.765  23.490 -0.1137  0.0309 -0.1668
52396OCT     C1 4791  21.280   9.619  19.803  0.0940  0.1028  0.3834
52396OCT     C2 4792  21.553   9.270  19.641 -0.2023 -0.0003 -0.0615
52397OCT     C1 4793  22.013   6.597  13.988  0.2224 -0.0978  0.3916
52397OCT     C2 4794  21.623   6.736  14.163 -0.0681 -0.2732 -0.0055
52398OCT     C1 4795   5.555   6.274   9.542  0.0552 -0.1509  0.1302
52398OCT     C2 4796   5.573   6.111   9.093 -0.1260 -0.1784 -0.2633
52399OCT     C1 4797  13.077  22.851  10.193 -0.3715 -0.4272  0.5460
52399OCT     C2 4798  13.034  22.677   9.721 -0.1463  0.2380  0.1107
52400OCT     C1 4799   9.264   7.120   1.636 -0.4999 -0.1541  0.3971
52400OCT     C2 4800   8.980   7.532   1.643  0.4717 -0.1145  0.0637
52401OCT     C1 4801   5.410  21.477  15.404 -0.1070 -0.1099  0.2574
52401OCT     C2 4802   5.712  21.251  15.697 -0.0581 -0.0882 -0.2139
52402OCT     C1 4803  21.499  12.970  21.040  0.2088  0.1363 -0.0371
52402OCT     C2 4804  21.326  13.180  21.369  0.1356 -0.2945 -0.1054
52403OCT     C1 4805   1.982  22.990   9.985  0.1884 -0.0371 -0.2313
52403OCT     C2 4806   1.922  23.232   9.556  0.0998 -0.1567 -0.2399
52404OCT     C1 4807  15.859  19.745   3.968 -0.0655  0.0858 -0.2579
52404OCT     C2 4808  15.700  19.453   4.330 -0.0135  0.0447  0.1375
52405OCT     C1 4809   3.685  10.019   4.922 -0.2069 -0.0734  0.0936
52405OCT     C2 4810   3.688  10.504   4.775 -0.2426  0.1053  0.2409
52406OCT     C1 4811   7.587  16.390  13.836 -0.0403 -0.1233  0.3613
52406OCT     C2 4812   7.705  16.815  13.556  0.1120 -0.0644  0.6095
52407OCT     C1 4813  10.662   5.418  22.855 -0.0290 -0.4680 -0.0453
52407OCT     C2 4814  10.304   5.663  22.560 -0.0596  0.0697 -0.0208
52408OCT     C1 4815  17.984  21.322  16.999  0.4066  0.1395 -0.0729
52408OCT     C2 4816  17.648  21.565  16.750 -0.0511  0.3267 -0.0272
52409OCT     C1 4817  22.630  10.100  17.512 -0.0238  0.1273  0.3048
52409OCT     C2 4818  22.459  10.090  17.957 -0.0781 -0.5880  0.0908
52410OCT     C1 4819  23.718   1.325   2.297  0.2401 -0.2305 -0.0781
52410OCT     C2 4820  23.738   1.197   2.745  0.1923  0.1973 -0.3651
52411OCT     C1 4821  10.417  21.128   3.146  0.0241  0.3011 -0.1833
52411OCT     C2 4822  10.117  21.335   2.906 -0.1410 -0.4508  0.0230
52412OCT     C1 4823  14.381  18.937  18.109 -0.0655 -0.1692  0.1293
52412OCT     C2 4824  14.161  19.286  17.976 -0.0463  0.2258  0.0349
52413OCT     C1 4825   8.291   5.244  21.572  0.0130  0.0047 -0.0769
52413OCT     C2 4826   8.047   5.668  21.587 -0.0508 -0.2375 -0.3146
52414OCT     C1 4827   2.003   5.544   9.079  0.2197  0.2639  0.3956
52414OCT     C2 4828   1.653   5.337   8.871 -0.4655 -0.0881  0.2944
52415OCT     C1 4829   5.031  12.103   0.706  0.2448  0.2405 -0.0387
52415OCT     C2 4830   4.981  12.434   1.094 -0.1884 -0.1315  0.3553
52416OCT     C1 4831  22.487  23.259   6.767 -0.2573 -0.0701  0.2311
52416OCT     C2 4832  22.977  23.250   6.661 -0.0538 -0.1946 -0.0048
52417OCT     C1 4833   9.907  16.400   5.071 -0.2124  0.1491 -0.1220
52417OCT     C2 4834   9.565  16.260   5.367 -0.0605  0.0327 -0.0579
52418OCT     C1 4835   6.463  23.436  21.063 -0.0854 -0.0566  0.3455
52418OCT     C2 4836   6.127  23.401  20.707  0.0156  0.0748 -0.1650
52419OCT     C1 4837  20.542  19.314  18.452  0.0876  0.1406 -0.0319
52419OCT     C2 4838  20.178  19.408  18.201 -0.2605 -0.2689 -0.0043
52420OCT     C1 4839   3.352  11.185   4.535  0.1613 -0.4664  0.0736
52420OCT     C2 4840   3.018  11.267   4.806 -0.2971  0.0951 -0.1534
52421OCT     C1 4841   9.098  16.859   3.089  0.4927  0.0672 -0.1100
52421OCT     C2 4842   9.489  16.950   3.296  0.3645  0.1121  0.3600
52422OCT     C1 4843   8.793   1.093  13.434  0.0943  0.3694  0.1053
52422OCT     C2 4844   9.018   1.163  13.030 -0.0688  0.0365 -0.1917
52423OCT     C1 4845  16.773  20.896  18.146 -0.0686  0.0986 -0.0371
52423OCT     C2 4846  16.900  21.336  18.267 -0.0056  0.0556  0.1351
52424OCT     C1 4847   8.679   1.859  21.297  0.0459  0.1376  0.2214
52424OCT     C2 4848   8.823   1.813  21.743  0.3505  0.0700 -0.2440
52425OCT     C1 4849  22.855  21.362   5.019  0.3975 -0.0122  0.1522
52425OCT     C2 4850  22.870  21.092   4.591  0.1292  0.5809  0.1263
52426OCT     C1 4851  18.357   9.397   1.026 -0.4653  0.1300  0.1011
52426OCT     C2 4852  18.151   9.824   0.983 -0.0859  0.3385 -0.0210
52427OCT     C1 4853  15.195  18.744  14.639  0.1562  0.1467  0.1563
52427OCT     C2 4854  15.109  18.755  15.109  0.1749  0.1609 -0.2703
52428OCT     C1 4855   8.021  21.720  19.299  0.2340  0.0029  0.0758
52428OCT     C2 4856   8.169  21.934  18.967 -0.0902 -0.0054 -0.3243
52429OCT     C1 4857   1.190   1.567  16.659 -0.2365 -0.2373 -0.4274
52429OCT     C2 4858   1.019   1.876  16.991  0.1551 -0.5084 -0.2552
52430OCT     C1 4859  15.243  15.636  11.999 -0.2546 -0.0544  0.3662
52430OCT     C2 4860  15.440  16.035  12.171 -0.0907  0.4050 -0.1311
52431OCT     C1 4861   7.339  20.942  11.620  0.1582  0.0624 -0.0206
52431OCT     C2 4862   7.652  20.912  11.942  0.1668  0.0369  0.4096
52432OCT     C1 4863  15.975   9.530  23.679 -0.3047 -0.1892  0.4302
52432OCT     C2 4864  16.035  10.023  23.688 -0.2089  0.2755  0.0207
52433OCT     C1 4865  17.105   7.455   5.016  0.2890 -0.1007 -0.0751
52433OCT     C2 4866  17.465   7.312   4.744 -0.0078  0.0081  0.0686
52434OCT     C1 4867  16.714  22.016  19.375  0.0095 -0.1222  0.1999
52434OCT     C2 4868  17.073  22.232  19.188 -0.3473 -0.2795  0.1525
52435OCT     C1 4869  18.635  23.155   0.817 -0.0750  0.3120 -0.0980
52435OCT     C2 4870  18.811  23.235   0.411  0.2249  0.0276 -0.0170
52436OCT     C1 4871  16.703  17.260  19.597  0.0545  0.2256 -0.4096
52436OCT     C2 4872  17.172  17.341  19.778  0.0593  0.0780  0.5372
52437OCT     C1 4873   9.583  11.787  22.118 -0.1171 -0.2411  0.4115
52437OCT     C2 4874  10.035  11.781  22.131 -0.1897  0.0759 -0.0031
52438OCT     C1 4875   2.992  15.837   2.740  0.0156  0.2084  0.0364
52438OCT     C2 4876   2.716  15.844   3.111 -0.0387 -0.0168 -0.0744
52439OCT     C1 4877  20.374   9.878   4.574  0.1322 -0.5094  0.3102
52439OCT     C2 4878  20.817   9.893   4.645 -0.2710 -0.0847 -0.1616
52440OCT     C1 4879  15.340  13.556   1.879  0.0532  0.0262 -0.0744
52440OCT     C2 4880  15.475  13.893   1.583 -0.1705  0.0588 -0.0084
52441OCT     C1 4881   2.807   4.530   9.536 -0.2797 -0.2101  0.0397
52441OCT     C2 4882   2.942   4.492  10.019 -0.0415 -0.2946  0.0668
52442OCT     C1 4883   1.035  11.992  17.052  0.2110 -0.2068 -0.0092
52442OCT     C2 4884   1.218  11.830  17.385 -0.1333 -0.0927  0.1589
52443OCT     C1 4885   2.429   2.932   5.598 -0.3889  0.0290 -0.0507
52443OCT     C2 4886   2.385   2.543   5.900  0.1632 -0.0245 -0.0205
52444OCT     C1 4887  11.353  21.798  15.111 -0.1585  0.1161  0.1274
52444OCT     C2 4888  11.260  21.574  15.555 -0.1944 -0.2202  0.2356
52445OCT     C1 4889   1.678   9.733  15.238 -0.0798 -0.1720  0.1047
52445OCT     C2 4890   1.274   9.765  15.487  0.1533  0.0193 -0.2002
52446OCT     C1 4891   4.412  16.895   8.888 -0.1624  0.1025 -0.1068
52446OCT     C2 4892   4.314  17.352   9.065 -0.4072 -0.2214  0.1395
52447OCT     C1 4893   9.161  23.415  21.143 -0.0052  0.0142  0.0912
52447OCT     C2 4894   9.402  23.202  20.870 -0.0976 -0.0569  0.3029
52448OCT     C1 4895   5.610   4.817  17.785 -0.2102  0.0318  0.1559
52448OCT     C2 4896   6.008   4.574  17.993 -0.2848 -0.0069 -0.3013
52449OCT     C1 4897  17.380   9.482  15.153 -0.1098 -0.0411  0.1857
52449OCT     C2 4898  17.738   9.683  14.997  0.0969  0.2754  0.1050
52450OCT     C1 4899  23.407   7.950   9.825  0.3400  0.1824  0.2039
52450OCT     C2 4900  23.185   8.222   9.471 -0.2581 -0.1040 -0.1909
52451OCT     C1 4901  20.954  17.532   2.418 -0.1176 -0.0369  0.5227
52451OCT     C2 4902  20.888  17.136   2.696 -0.2588  0.1376 -0.0611
52452OCT     C1 4903   8.512   8.317   2.621  0.4972 -0.3854 -0.0612
52452OCT     C2 4904   8.405   8.076   2.246  0.1407  0.0995 -0.0972
52453OCT     C1 4905   9.440  15.304   8.861 -0.1513  0.0804 -0.1834
52453OCT     C2 4906   9.765  15.317   8.568  0.3876 -0.0634  0.0206
52454OCT     C1 4907  11.955   4.899   3.811  0.0425  0.3726  0.0659
52454OCT     C2 4908  11.823   4.472   3.767  0.0690 -0.0750  0.1913
52455OCT     C1 4909   4.534  17.578   3.915  0.0632 -0.0899 -0.3246
52455OCT     C2 4910   4.918  17.748   3.707  0.0492 -0.0311 -0.2014
52456OCT     C1 4911   5.966  18.800  11.370  0.0156  0.2012 -0.1736
52456OCT     C2 4912   6.047  19.222  11.576 -0.0216  0.1596  0.2653
52457OCT     C1 4913  23.666  18.912  18.751 -0.1667 -0.0454 -0.1443
52457OCT     C2 4914  23.492  18.733  18.388 -0.0902 -0.5073  0.1206
52458OCT     C1 4915   9.687  19.666  10.884  0.1139  0.0838 -0.2117
52458OCT     C2 4916  10.063  19.431  10.743 -0.0510  0.1106 -0.2957
52459OCT     C1 4917   9.789   0.708  18.771  0.2019 -0.3431  0.4857
52459OCT     C2 4918   9.596   1.078  18.903  0.0671 -0.3093  0.0380
52460OCT     C1 4919   0.964   8.691  20.699 -0.1402  0.3961  0.2872
52460OCT     C2 4920   0.660   8.379  20.953  0.0299  0.3512  0.0646
52461OCT     C1 4921  15.467  21.403  12.969 -0.0500  0.1667 -0.3696
52461OCT     C2 4922  15.073  21.167  12.832  0.2318 -0.1979 -0.2540
52462OCT     C1 4923  12.340  21.340   6.096 -0.0855  0.0032 -0.0728
52462OCT     C2 4924  12.322  21.286   5.650  0.3673  0.0991 -0.1651
52463OCT     C1 4925   8.111   4.442  10.995  0.1848 -0.0236 -0.3166
52463OCT     C2 4926   8.189   4.886  11.126 -0.1994  0.1839 -0.1180
52464OCT     C1 4927  11.609   6.142   5.675  0.0147  0.2822  0.1496
52464OCT     C2 4928  11.868   6.217   5.287 -0.0262  0.2257 -0.1053
52465OCT     C1 4929  10.689  10.988  15.663  0.2545  0.0614  0.0455
52465OCT     C2 4930  10.898  11.308  15.462  0.1186 -0.0808  0.3970
52466OCT     C1 4931  14.699  10.248   7.081  0.1005  0.2531  0.1508
52466OCT     C2 4932  14.694  10.174   7.555  0.1100 -0.1644 -0.0085
52467OCT     C1 4933   5.577  14.648  16.251  0.0668 -0.4608 -0.0469
52467OCT     C2 4934   5.825  14.517  15.899  0.0760  0.0355  0.0760
52468OCT     C1 4935   5.204  18.812  17.211  0.2544  0.3195  0.0131
52468OCT     C2 4936   4.742  18.925  17.363 -0.0271 -0.5011  0.1554
52469OCT     C1 4937   4.176  21.644   9.802  0.2021 -0.1251 -0.0665
52469OCT     C2 4938   4.448  21.484  10.194  0.5748  0.0627 -0.0708
52470OCT     C1 4939   2.042   6.366  13.017  0.1661  0.4651  0.0021
52470OCT     C2 4940   2.501   6.380  12.974  0.2107  0.1565  0.1591
52471OCT     C1 4941  23.664   0.843  18.750  0.3130 -0.0653  0.1017
52471OCT     C2 4942  23.414   0.748  18.420  0.2623  0.0955  0.0285
52472OCT     C1 4943  15.281  21.123  12.378  0.1904  0.3628 -0.2597
52472OCT     C2 4944  15.635  21.037  12.643 -0.0936  0.1468 -0.1747
52473OCT     C1 4945  23.574   7.782   0.492  0.1468  0.0108 -0.0193
52473OCT     C2 4946  23.259   7.685   0.133  0.2391 -0.3566  0.2337
52474OCT     C1 4947  21.820  19.925  11.989  0.0614 -0.1654  0.3856
52474OCT     C2 4948  21.401  19.701  11.999  0.2567 -0.0393  0.0888
52475OCT     C1 4949   8.704   9.090  19.167  0.3513 -0.3297  0.1034
52475OCT     C2 4950   8.564   9.427  19.496  0.0678 -0.0069  0.1625
52476OCT     C1 4951  18.513   2.877   1.553  0.1703 -0.1244 -0.2089
52476OCT     C2 4952  18.982   2.991   1.661  0.0424  0.1943 -0.1668
52477OCT     C1 4953  22.108  21.440  22.988  0.1316  0.2726  0.1813
52477OCT     C2 4954  22.328  21.022  23.151 -0.0961 -0.0358 -0.1907
52478OCT     C1 4955  20.142   9.013   7.006  0.1543 -0.0094  0.5062
52478OCT     C2 4956  20.380   9.399   6.853 -0.1470  0.1287 -0.1786
52479OCT     C1 4957  19.708  12.129   3.774  0.0534  0.0746  0.0222
52479OCT     C2 4958  19.640  12.251   3.350 -0.2004 -0.2579 -0.1110
52480OCT     C1 4959   2.423  22.689   0.779 -0.4098  0.1867  0.0970
52480OCT     C2 4960   2.349  22.253   0.931 -0.1446  0.3331  0.0940
52481OCT     C1 4961  13.966   4.812   9.089  0.0577  0.1310  0.1451
52481OCT     C2 4962  13.905   4.438   8.784 -0.2650  0.4019 -0.0680
52482OCT     C1 4963  10.071  15.251  21.687 -0.0651 -0.1952 -0.7399
52482OCT     C2 4964  10.357  15.653  21.736  0.1524  0.0497 -0.2720
52483OCT     C1 4965  11.908   6.607  14.486 -0.0767 -0.1237 -0.2715
52483OCT     C2 4966  12.127   6.310  14.209 -0.0745 -0.2796 -0.1095
52484OCT     C1 4967   6.808   2.718  20.622  0.0919  0.2523 -0.1720
52484OCT     C2 4968   6.923   3.081  20.385 -0.0759  0.0583 -0.0126
52485OCT     C1 4969  15.582  10.316   7.091 -0.1958 -0.0233 -0.0674
52485OCT     C2 4970  15.132  10.338   7.298 -0.3123  0.2792  0.1071
52486OCT     C1 4971   5.190   6.303   6.973 -0.1093  0.0348 -0.1298
52486OCT     C2 4972   4.786   6.208   7.177  0.2164  0.0559 -0.1950
52487OCT     C1 4973   9.168   1.363  17.786  0.2592  0.3208  0.4025
52487OCT     C2 4974   9.494   1.155  17.999 -0.2048  0.0301 -0.0027
52488OCT     C1 4975   8.329   6.754  21.159 -0.1904  0.3013  0.3928
52488OCT     C2 4976   8.590   6.429  20.940 -0.2372  0.2172 -0.1682
52489OCT     C1 4977   5.312   9.165  22.600 -0.0425  0.0905  0.0188
52489OCT     C2 4978   4.935   9.434  22.530 -0.0295  0.2848  0.0717
52490OCT     C1 4979  18.957  21.190  21.886 -0.0023  0.0734 -0.5281
52490OCT     C2 4980  18.604  21.057  21.604  0.0024 -0.2209 -0.0195
52491OCT     C1 4981   1.326   4.326   8.268  0.0742  0.4616  0.0410
52491OCT     C2 4982   1.763   4.034   8.148 -0.1314 -0.0360 -0.0029
52492OCT     C1 4983  17.501  14.010  18.472  0.0655  0.1652 -0.0664
52492OCT     C2 4984  17.652  14.342  18.207 -0.0407  0.0266 -0.1801
52493OCT     C1 4985  18.597   8.333   1.814  0.0048 -0.1247 -0.2390
52493OCT     C2 4986  18.984   8.107   1.945  0.1180  0.0679 -0.1573
52494OCT     C1 4987  12.787  19.661  22.969  0.3049  0.0020  0.2062
52494OCT     C2 4988  12.623  20.084  22.804  0.0602  0.1284  0.1796
52495OCT     C1 4989  19.346  15.784   9.172 -0.1944  0.3585 -0.6528
52495OCT     C2 4990  19.110  16.163   9.030  0.0753  0.0527  0.0882
52496OCT     C1 4991   9.243  16.605   2.428  0.0827  0.3619  0.1453
52496OCT     C2 4992   8.888  16.369   2.287 -0.3055  0.1120 -0.1927
52497OCT     C1 4993   6.711  13.446  22.768 -0.2377  0.2001 -0.1425
52497OCT     C2 4994   6.293  13.371  22.970 -0.2540 -0.0823 -0.0965
52498OCT     C1 4995   9.489   8.264   4.230 -0.0540  0.1414  0.1117
52498OCT     C2 4996   9.453   8.139   4.645  0.0184 -0.0200 -0.1098
52499OCT     C1 4997   7.062  18.318   7.958 -0.0074  0.2182 -0.0681
52499OCT     C2 4998   6.654  18.315   8.124  0.1184  0.2317 -0.2785
52500OCT     C1 4999   2.720  15.336  11.510  0.1506 -0.1618  0.2127
52500OCT     C2 5000   3.155  15.233  11.449 -0.3065 -0.1088  0.1573
52501OCT     C1 5001  18.944  10.766   6.531 -0.0507 -0.0362  0.0454
52501OCT     C2 5002  19.146  10.865   6.148 -0.1708  0.2223 -0.2202
52502OCT     C1 5003   5.779  16.564  11.795 -0.3894 -0.0114  0.2048
52502OCT     C2 5004   6.238  16.379  11.866  0.1071 -0.5140 -0.2506
52503OCT     C1 5005  17.497  16.796  12.160 -0.2188 -0.0542  0.3548
52503OCT     C2 5006  17.627  17.168  12.000 -0.0865 -0.0774  0.1918
52504OCT     C1 5007   8.553   9.707  11.494 -0.2845  0.0371  0.0053
52504OCT     C2 5008   8.293  10.080  11.415 -0.0750 -0.5573  0.2127
52505OCT     C1 5009   1.543  15.190   4.391 -0.0741 -0.2114  0.3435
52505OCT     C2 5010   1.705  14.883   4.727  0.1485 -0.0048  0.0611
52506OCT     C1 5011  14.598   1.616   0.961 -0.0431  0.0264  0.3940
52506OCT     C2 5012  14.322   1.354   1.198  0.1453  0.1532 -0.0479
52507OCT     C1 5013  18.550  22.956  23.279 -0.0141  0.2326 -0.2293
52507OCT     C2 5014  18.743  22.771  22.928 -0.0553  0.1187 -0.4259
52508OCT     C1 5015  23.380   7.768  19.683 -0.1022  0.0796 -0.1388
52508OCT     C2 5016  23.681   7.709  19.293  0.1618 -0.1158 -0.1905
52509OCT     C1 5017  22.057   3.278  21.019  0.3100 -0.2563 -0.3044
52509OCT     C2 5018  22.209   3.309  21.460  0.1606  0.2097  0.1706
52510OCT     C1 5019  22.141  16.252  15.550 -0.1457  0.4446  0.0107
52510OCT     C2 5020  22.350  16.447  15.929  0.2563 -0.3733  0.0772
52511OCT     C1 5021   5.893  16.201   4.911 -0.2342 -0.1641  0.0445
52511OCT     C2 5022   6.140  16.631   4.988  0.2474 -0.0442  0.1497
52512OCT     C1 5023   4.314  13.417   9.839 -0.1878  0.0856  0.0315
52512OCT     C2 5024   4.686  13.121   9.950  0.0307  0.0126 -0.1525
52513OCT     C1 5025   0.758   9.660  15.583  0.0146  0.1368  0.1934
52513OCT     C2 5026   0.645   9.236  15.377 -0.2312  0.0244 -0.0320
52514OCT     C1 5027  10.092  18.509   8.140  0.0893  0.0748 -0.4276
52514OCT     C2 5028   9.625  18.564   8.159  0.1657 -0.0143 -0.3533
52515OCT     C1 5029  20.296  16.009   8.950 -0.2027  0.0089  0.2030
52515OCT     C2 5030  20.152  16.207   8.553 -0.2304 -0.2437 -0.0289
52516OCT     C1 5031  10.841   5.367   7.558  0.0257  0.0350  0.2351
52516OCT     C2 5032  11.146   5.129   7.777 -0.0024 -0.1385  0.1256
52517OCT     C1 5033  16.963  18.841  22.935  0.1345 -0.0148 -0.0087
52517OCT     C2 5034  16.495  18.683  23.013  0.1888 -0.0733 -0.0529
52518OCT     C1 5035   8.035  11.209  23.316 -0.0906  0.0096 -0.0392
52518OCT     C2 5036   7.920  11.546  23.040 -0.1352  0.0843 -0.1196
52519OCT     C1 5037  11.069  22.238  21.815 -0.0478 -0.0877  0.1698
52519OCT     C2 5038  11.425  22.012  21.877  0.0394  0.1811 -0.2459
52520OCT     C1 5039  20.104   5.960  12.153  0.0514  0.0239 -0.1431
52520OCT     C2 5040  19.958   6.072  11.676  0.0051 -0.1711  0.0001
52521OCT     C1 5041  11.064   5.542   4.496  0.4059 -0.1550  0.1047
52521OCT     C2 5042  11.244   5.622   4.044 -0.0135 -0.1243  0.1068
52522OCT     C1 5043  16.751  11.524  13.715 -0.2834  0.0772 -0.2858
52522OCT     C2 5044  16.721  11.020  13.752 -0.1043 -0.0400  0.0437
52523OCT     C1 5045   2.388  13.835  19.131  0.0556 -0.2415 -0.0258
52523OCT     C2 5046   1.927  13.978  18.997 -0.1394  0.0304 -0.3029
52524OCT     C1 5047  21.500   7.481  12.137  0.0504  0.5233  0.1766
52524OCT     C2 5048  21.509   7.523  12.589 -0.0694 -0.3347 -0.0981
52525OCT     C1 5049   8.149   9.828  17.116  0.0535 -0.0222  0.3872
52525OCT     C2 5050   8.522  10.109  17.013  0.1059  0.0056  0.1510
52526OCT     C1 5051  22.016  12.995  22.596 -0.0721 -0.1717 -0.2468
52526OCT     C2 5052  22.066  12.992  22.138 -0.1303  0.2763  0.2148
52527OCT     C1 5053  16.680  18.749   8.399  0.1055 -0.1318  0.2091
52527OCT     C2 5054  16.618  19.168   8.551  0.0910 -0.2984  0.2255
52528OCT     C1 5055  22.934  17.267   4.536 -0.3642 -0.1207 -0.2448
52528OCT     C2 5056  23.065  17.725   4.677 -0.1712  0.2073  0.1737
52529OCT     C1 5057  17.685  18.303  23.591  0.1107 -0.0753  0.1210
52529OCT     C2 5058  17.878  18.454  23.224  0.2512  0.1735  0.3218
52530OCT     C1 5059  13.947   1.535   2.686 -0.0586 -0.1130  0.1719
52530OCT     C2 5060  13.883   1.111   2.733 -0.4497  0.2413 -0.1564
52531OCT     C1 5061   4.867   4.551  20.209 -0.1423 -0.3372 -0.4363
52531OCT     C2 5062   5.043   4.123  20.159  0.0774  0.0083  0.0539
52532OCT     C1 5063  23.546  15.428   9.911 -0.0321 -0.1884  0.0414
52532OCT     C2 5064  23.438  15.088  10.246 -0.1302  0.0982 -0.3719
52533OCT     C1 5065  20.784   6.330   6.754  0.3221  0.0110 -0.4829
52533OCT     C2 5066  20.330   6.445   6.654  0.0746  0.0440  0.2106
52534OCT     C1 5067   7.222   9.911  14.175 -0.0875  0.1330 -0.1901
52534OCT     C2 5068   7.168  10.255  14.481 -0.0195  0.0340  0.1023
52535OCT     C1 5069  13.116  15.130  18.883  0.0502  0.0155 -0.1685
52535OCT     C2 5070  12.757  14.944  18.636 -0.0910 -0.4929 -0.0105
52536OCT     C1 5071  12.506  14.253  11.823  0.4258 -0.1923 -0.7384
52536OCT     C2 5072  12.269  13.866  11.850  0.3268  0.0771  0.1676
52537OCT     C1 5073   0.066   9.000  17.743 -0.1432 -0.3311  0.1733
52537OCT     C2 5074   0.057   9.299  17.380  0.1236 -0.2666 -0.0209
52538OCT     C1 5075  12.393   9.587  15.159 -0.1602  0.0904 -0.2991
52538OCT     C2 5076  12.799   9.425  15.379  0.2141  0.0929  0.1102
52539OCT     C1 5077  21.642  11.042  10.093  0.0947 -0.2197  0.0344
52539OCT     C2 5078  21.187  11.176  10.139  0.3480  0.1879 -0.1559
52540OCT     C1 5079  16.987   4.773  12.044 -0.1232  0.1307 -0.2421
52540OCT     C2 5080  16.995   4.636  12.457  0.3588  0.2423 -0.1272
52541OCT     C1 5081   8.316  14.843   8.384 -0.2240 -0.3286 -0.3991
52541OCT     C2 5082   8.719  14.662   8.464  0.3046 -0.1200 -0.0589
52542OCT     C1 5083   3.965  20.760  22.041  0.0261 -0.0754  0.3050
52542OCT     C2 5084   4.356  20.624  21.901 -0.1747 -0.1578 -0.3212
52543OCT     C1 5085  16.897  21.960   2.377  0.2345  0.1031 -0.2876
52543OCT     C2 5086  17.063  22.371   2.250 -0.0986 -0.0103  0.1528
52544OCT     C1 5087   3.244  22.582  19.014 -0.1330 -0.1639 -0.0225
52544OCT     C2 5088   3.714  22.532  18.841  0.2268 -0.2708  0.2517
52545OCT     C1 5089  10.292  22.354  14.322  0.4351  0.0789 -0.3496
52545OCT     C2 5090   9.880  22.473  14.102 -0.0756  0.0275  0.3683
52546OCT     C1 5091  12.738   2.045   7.677  0.1926  0.2770  0.4568
52546OCT     C2 5092  12.796   1.585   7.578 -0.1489 -0.6429 -0.3282
52547OCT     C1 5093  15.512  14.960  12.521  0.1760  0.3913  0.0319
52547OCT     C2 5094  15.769  14.636  12.756 -0.3025  0.0578  0.3695
52548OCT     C1 5095  13.167  10.133   8.862 -0.1119  0.2580  0.3440
52548OCT     C2 5096  12.793   9.816   8.878 -0.3873 -0.1361 -0.2213
52549OCT     C1 5097  11.555   3.555  11.359  0.2808  0.2703 -0.3531
52549OCT     C2 5098  11.416   3.984  11.470 -0.1495 -0.1841  0.0275
52550OCT     C1 5099   0.478  14.022  20.180 -0.4087  0.1472 -0.2418
52550OCT     C2 5100   0.269  14.132  20.577  0.2391 -0.0192  0.2953
52551OCT     C1 5101   2.455  15.743  12.142 -0.1072 -0.0690 -0.1430
52551OCT     C2 5102   2.558  15.335  12.004  0.1527  0.0370  0.1670
52552OCT     C1 5103  10.866   1.608  15.333 -0.1923  0.0707  0.0258
52552OCT     C2 5104  10.756   1.385  15.766 -0.1555 -0.0387 -0.1871
52553OCT     C1 5105   2.994  16.172   2.321 -0.1200  0.2410  0.0076
52553OCT     C2 5106   3.290  16.225   1.969  0.0284 -0.2247 -0.0850
52554OCT     C1 5107   6.462   7.133  22.065  0.2269  0.0575  0.2830
52554OCT     C2 5108   6.214   6.721  22.239  0.0844 -0.2439 -0.1961
52555OCT     C1 5109   8.039  18.423  12.716  0.1453 -0.1268  0.2587
52555OCT     C2 5110   7.717  18.348  12.377  0.1491  0.0335 -0.2692
52556OCT     C1 5111   0.857  21.539   9.774 -0.2540 -0.3700 -0.0232
52556OCT     C2 5112   1.216  21.726   9.605 -0.0694  0.0363  0.0823
52557OCT     C1 5113  13.121  15.469   2.279 -0.3392 -0.0304 -0.2001
52557OCT     C2 5114  13.039  15.774   2.643  0.2604  0.1445  0.0803
52558OCT     C1 5115  14.867  17.376   7.254  0.1115  0.2394 -0.1962
52558OCT     C2 5116  14.634  17.023   7.429 -0.1473  0.3630 -0.1463
52559OCT     C1 5117   4.772  22.812   2.708 -0.2397  0.0212 -0.3367
52559OCT     C2 5118   4.292  22.716   2.700 -0.0744 -0.1971  0.0828
52560OCT     C1 5119  23.387  11.955  23.106  0.2975  0.1243  0.0018
52560OCT     C2 5120  23.599  12.045  22.714  0.4067 -0.0393  0.2441
52561OCT     C1 5121  17.878  20.736  11.476 -0.1475  0.0414  0.0957
52561OCT     C2 5122  18.268  20.498  11.370 -0.0478 -0.1728 -0.1236
52562OCT     C1 5123  15.692  18.262   8.931  0.6916 -0.0974  0.3214
52562OCT     C2 5124  15.912  18.254   9.335  0.0455 -0.0362  0.1017
52563OCT     C1 5125   1.542   1.073  10.202 -0.1992  0.0942  0.1499
52563OCT     C2 5126   1.130   0.969  10.356  0.1460 -0.3804 -0.1143
52564OCT     C1 5127   1.746   2.914   3.392  0.4098  0.3177  0.0544
52564OCT     C2 5128   1.270   3.073   3.372  0.2595 -0.0911  0.2356
52565OCT     C1 5129  23.506  18.176  22.541  0.0297 -0.0951  0.1173
52565OCT     C2 5130  23.524  18.540  22.229  0.1114 -0.0963  0.3621
52566OCT     C1 5131  18.619   4.102   6.239 -0.1165  0.2424  0.0559
52566OCT     C2 5132  18.290   4.284   5.967 -0.0136  0.1445 -0.0297
52567OCT     C1 5133  15.940   5.321  22.849 -0.4107 -0.1727  0.3625
52567OCT     C2 5134  15.884   5.047  23.246  0.3980 -0.0375  0.0368
52568OCT     C1 5135  14.787  10.408  13.681  0.0822 -0.0037 -0.2277
52568OCT     C2 5136  15.172  10.289  13.908  0.3648  0.2262  0.3226
52569OCT     C1 5137   6.460  22.835  15.627  0.0585 -0.0180  0.1101
52569OCT     C2 5138   6.018  22.813  15.742 -0.2231 -0.0189 -0.3207
52570OCT     C1 5139  20.121  16.888   0.689  0.1498  0.0166 -0.1206
52570OCT     C2 5140  20.252  16.740   1.141  0.1314 -0.1609 -0.0176
52571OCT     C1 5141  11.599  20.913  11.025  0.0783  0.1010  0.0119
52571OCT     C2 5142  11.527  20.537  10.762 -0.1406  0.3410 -0.0620
52572OCT     C1 5143   2.284  18.136  21.612  0.1363  0.1102 -0.1511
52572OCT     C2 5144   2.029  18.487  21.780 -0.2166  0.2055 -0.0564
52573OCT     C1 5145   2.109  14.914  14.462  0.0524 -0.0533 -0.3379
52573OCT     C2 5146   2.448  14.651  14.330 -0.0826 -0.0836  0.0787
52574OCT     C1 5147   2.069   5.926   9.399 -0.4809  0.0489  0.3392
52574OCT     C2 5148   2.031   6.460   9.489  0.0948  0.4410  0.2639
52575OCT     C1 5149   2.989  15.885   5.338  0.0162  0.2356 -0.0569
52575OCT     C2 5150   3.466  15.932   5.373  0.1152  0.3339  0.0266
52576OCT     C1 5151  11.954  21.896  20.542  0.2021  0.0736 -0.0185
52576OCT     C2 5152  12.359  22.089  20.523 -0.1276  0.2920 -0.0002
52577OCT     C1 5153   4.908   7.719   8.578  0.2789 -0.1831 -0.0392
52577OCT     C2 5154   4.905   8.157   8.396 -0.3244 -0.1143 -0.1124
52578OCT     C1 5155  19.547   4.922  21.344 -0.2637  0.0449 -0.0420
52578OCT     C2 5156  19.507   5.031  20.948 -0.0261  0.0011  0.0928
52579OCT     C1 5157  20.686   3.892   1.321  0.1876  0.0047 -0.3587
52579OCT     C2 5158  20.623   4.285   1.600  0.1850 -0.1498  0.4163
52580OCT     C1 5159  17.130  20.856  21.565 -0.2177  0.0744  0.2535
52580OCT     C2 5160  17.156  21.164  21.168 -0.1081 -0.0457  0.2297
52581OCT     C1 5161  10.718  19.893  20.790 -0.5579  0.0805 -0.2328
52581OCT     C2 5162  11.090  20.211  20.663 -0.2080 -0.0551 -0.1237
52582OCT     C1 5163   3.065   9.002  14.308  0.3409  0.0314 -0.3185
52582OCT     C2 5164   3.045   8.604  14.565 -0.0416 -0.0934  0.0654
52583OCT     C1 5165   9.163   9.557   3.524 -0.3799  0.1725 -0.2222
52583OCT     C2 5166   9.090   9.199   3.287 -0.2018  0.0062  0.3198
52584OCT     C1 5167   4.212   8.034  22.101  0.0708 -0.0142  0.0355
52584OCT     C2 5168   4.157   8.344  21.780 -0.1114  0.0135  0.1852
52585OCT     C1 5169  12.628  19.706  11.967  0.3199  0.0431 -0.1458
52585OCT     C2 5170  12.137  19.637  12.112 -0.0326  0.2174  0.2142
52586OCT     C1 5171   7.300  13.649  16.322  0.2616  0.0790 -0.2145
52586OCT     C2 5172   7.469  13.815  16.681 -0.1182 -0.1788  0.2450
52587OCT     C1 5173  18.835  12.474  17.320  0.0916 -0.6021 -0.2153
52587OCT     C2 5174  18.955  12.099  17.165  0.1295  0.0919 -0.2329
52588OCT     C1 5175   5.260   0.979  22.079  0.1657 -0.2693 -0.0396
52588OCT     C2 5176   5.504   1.158  22.419 -0.0252 -0.3835 -0.1689
52589OCT     C1 5177   7.256   2.204  18.223 -0.1937  0.0152 -0.1491
52589OCT     C2 5178   7.695   2.419  18.144  0.0122  0.1516  0.1180
52590OCT     C1 5179  14.716  10.753  18.760 -0.1271 -0.0592 -0.2294
52590OCT     C2 5180  14.495  10.381  18.920 -0.1547  0.2841  0.0730
52591OCT     C1 5181  14.504   8.395  10.399  0.1130 -0.1978  0.0389
52591OCT     C2 5182  14.694   8.125  10.098  0.0606  0.3363 -0.2309
52592OCT     C1 5183  12.980   3.682   9.096  0.1410 -0.1343 -0.0636
52592OCT     C2 5184  12.581   3.449   9.165  0.3077  0.1241  0.0482
52593OCT     C1 5185  16.474  23.140  22.529 -0.5484 -0.0973 -0.0136
52593OCT     C2 5186  16.467  23.485  22.926 -0.1593  0.0423  0.0181
52594OCT     C1 5187  15.280  15.385  17.966  0.3251  0.1002 -0.0019
52594OCT     C2 5188  15.103  15.033  17.657  0.1946  0.1429 -0.1146
52595OCT     C1 5189  11.734  10.614  15.827  0.3200 -0.1216  0.1387
52595OCT     C2 5190  11.388  10.278  15.968  0.1333 -0.2983  0.1091
52596OCT     C1 5191  19.688  13.200   4.957  0.0373  0.2290 -0.1400
52596OCT     C2 5192  19.339  13.104   4.625  0.0230  0.1305 -0.0054
52597OCT     C1 5193   6.687   3.563  21.384  0.0185  0.0751 -0.1399
52597OCT     C2 5194   6.569   3.139  21.530 -0.2071 -0.1408  0.0725
52598OCT     C1 5195  12.993  16.194  23.405  0.0770  0.0111 -0.1182
52598OCT     C2 5196  13.129  15.979  22.983  0.0227  0.2048  0.3003
52599OCT     C1 5197  21.975  17.563   6.409  0.1604  0.0734 -0.0113
52599OCT     C2 5198  22.230  17.945   6.458 -0.0053  0.0350  0.0919
52600OCT     C1 5199  12.412   8.561  22.568 -0.4022 -0.4957 -0.3220
52600OCT     C2 5200  12.712   8.836  22.875 -0.3821  0.2337 -0.4040
52601OCT     C1 5201   8.672  19.101  21.302 -0.0862 -0.2596 -0.3046
52601OCT     C2 5202   8.519  19.297  21.712 -0.2084  0.1343  0.0227
52602OCT     C1 5203  19.140   2.012   6.763  0.1510  0.2290 -0.0461
52602OCT     C2 5204  19.019   1.635   6.523  0.0029 -0.0239 -0.1530
52603OCT     C1 5205  20.777  13.428   6.614  0.3002  0.4115  0.1999
52603OCT     C2 5206  20.610  13.062   6.384 -0.2112 -0.0114  0.1203
52604OCT     C1 5207  22.446  11.305  20.467  0.0264 -0.1347 -0.1118
52604OCT     C2 5208  22.304  11.727  20.503 -0.1288 -0.0104 -0.0761
52605OCT     C1 5209  17.044   6.537   6.847 -0.2685 -0.1259 -0.4313
52605OCT     C2 5210  16.846   6.195   6.557  0.1187  0.0637  0.1244
52606OCT     C1 5211   4.891  19.392  15.448  0.0645  0.1120 -0.2113
52606OCT     C2 5212   4.691  19.047  15.679 -0.1299 -0.1104  0.1523
52607OCT     C1 5213   7.750   1.885  15.016  0.1305 -0.1039 -0.0632
52607OCT     C2 5214   7.963   1.859  14.598  0.1749 -0.0123  0.2030
52608OCT     C1 5215  17.807  10.206  19.319  0.0042  0.3060  0.1803
52608OCT     C2 5216  18.176  10.453  19.192 -0.3853 -0.5327 -0.2848
52609OCT     C1 5217   2.034  14.180  14.471 -0.0991  0.2489  0.3552
52609OCT     C2 5218   1.949  14.002  13.993  0.0971  0.0244 -0.0739
52610OCT     C1 5219  23.620  14.710  10.520 -0.5197  0.3587 -0.3956
52610OCT     C2 5220  23.221  14.720  10.496  0.0695 -0.0807 -0.1779
52611OCT     C1 5221   6.065  15.171  18.234 -0.0700 -0.0554 -0.2568
52611OCT     C2 5222   5.825  15.577  18.207 -0.0086 -0.2375  0.3167
52612OCT     C1 5223  21.908  16.602  21.033  0.2188 -0.0051  0.3488
52612OCT     C2 5224  22.239  16.802  20.853 -0.1448  0.1377  0.2313
52613OCT     C1 5225  11.296  23.006  22.663 -0.3120  0.1280  0.2086
52613OCT     C2 5226  11.102  22.749  23.069 -0.2466 -0.0618  0.1618
52614OCT     C1 5227  22.747   6.772  18.806 -0.3361 -0.0720 -0.2239
52614OCT     C2 5228  22.391   6.596  18.556  0.4123  0.2174 -0.0762
52615OCT     C1 5229  19.112   4.006  20.070 -0.1386 -0.0521  0.1862
52615OCT     C2 5230  18.653   4.068  20.099 -0.0050  0.3731  0.0287
52616OCT     C1 5231   7.186  22.970   3.062 -0.0945  0.4345  0.1459
52616OCT     C2 5232   7.528  22.719   3.200  0.0535  0.3851  0.1493
52617OCT     C1 5233  21.870  12.066   2.083  0.0063 -0.1794  0.1149
52617OCT     C2 5234  22.132  11.990   2.445  0.1097  0.0422  0.0898
52618OCT     C1 5235  17.903   1.452   1.644  0.1110  0.1525 -0.0444
52618OCT     C2 5236  17.683   1.326   2.010  0.1807 -0.1276 -0.3925
52619OCT     C1 5237   9.976  10.511  21.864  0.3889 -0.2675  0.2771
52619OCT     C2 5238   9.561  10.470  21.631 -0.3753 -0.1352  0.0894
52620OCT     C1 5239  21.651  15.901  18.467  0.4621 -0.0580 -0.2855
52620OCT     C2 5240  21.596  15.493  18.250  0.1645 -0.0672  0.2216
52621OCT     C1 5241  18.306   6.869  18.963 -0.2693  0.1585  0.2185
52621OCT     C2 5242  18.532   6.515  19.221 -0.0881 -0.1486 -0.1133
52622OCT     C1 5243   7.220   1.012   1.919 -0.2163  0.2396  0.0915
52622OCT     C2 5244   6.752   1.212   2.054 -0.1183 -0.0006  0.1887
52623OCT     C1 5245  12.270  16.780   5.218 -0.1240 -0.3688  0.1835
52623OCT     C2 5246  12.540  16.397   5.154  0.1430  0.1750  0.0448
52624OCT     C1 5247   1.482   7.243   8.759 -0.3960  0.0374  0.2355
52624OCT     C2 5248   1.179   7.443   9.027  0.2541 -0.0895  0.3265
52625OCT     C1 5249  17.348  19.446   9.681  0.2291  0.2959 -0.1431
52625OCT     C2 5250  16.955  19.405   9.377 -0.1244  0.1802 -0.1578
52626OCT     C1 5251  15.058  19.333  22.827  0.0284 -0.1029 -0.0970
52626OCT     C2 5252  14.773  18.994  22.726  0.3045 -0.1205 -0.3353
52627OCT     C1 5253  22.981   0.208  20.690  0.0807 -0.5387 -0.0111
52627OCT     C2 5254  23.439   0.337  20.628  0.1229  0.4603 -0.1525
52628OCT     C1 5255   9.074   5.382  22.943 -0.0450 -0.0889 -0.0577
52628OCT     C2 5256   9.207   5.613  23.368 -0.1636  0.2686 -0.1354
52629OCT     C1 5257  14.517  22.774   3.784  0.0029 -0.0607 -0.0507
52629OCT     C2 5258  14.732  22.359   3.622  0.2305 -0.0529 -0.1729
52630OCT     C1 5259   6.232   0.845   9.685  0.2486  0.3180  0.0369
52630OCT     C2 5260   5.938   0.778  10.031  0.1301  0.2302 -0.6303
52631OCT     C1 5261   4.353  18.851   7.052 -0.0161 -0.0065 -0.2225
52631OCT     C2 5262   4.154  18.567   7.323 -0.2758  0.0620  0.0749
52632OCT     C1 5263   2.225   5.317   3.890  0.1103 -0.2502  0.5622
52632OCT     C2 5264   2.228   5.634   3.516 -0.0461  0.4285  0.1592
52633OCT     C1 5265  13.901   0.015   4.740  0.2188  0.1609  0.0259
52633OCT     C2 5266  13.869   0.315   5.127  0.2672 -0.1591 -0.2358
52634OCT     C1 5267   9.334   4.609   6.453 -0.6839  0.0380 -0.0676
52634OCT     C2 5268   9.156   4.157   6.641 -0.1024  0.1113  0.2630
52635OCT     C1 5269   6.872  19.297  10.817 -0.0598 -0.0743 -0.0762
52635OCT     C2 5270   6.846  18.832  10.700 -0.1485 -0.0649 -0.1649
52636OCT     C1 5271   5.447   4.153   3.438  0.2679 -0.1705  0.0358
52636OCT     C2 5272   5.606   4.411   3.062  0.0183  0.0534 -0.1153
52637OCT     C1 5273   0.791  12.186   2.557 -0.3846 -0.0040  0.0141
52637OCT     C2 5274   0.496  11.852   2.704  0.0502 -0.3378 -0.0422
52638OCT     C1 5275  10.524  20.031   3.419  0.3830 -0.1658 -0.0603
52638OCT     C2 5276  10.362  19.777   3.078 -0.1393 -0.1561 -0.0586
52639OCT     C1 5277  12.720  13.107   6.309  0.1135  0.2227  0.0944
52639OCT     C2 5278  12.471  13.451   6.505  0.1133  0.2519  0.1888
52640OCT     C1 5279   5.236  23.182  16.711 -0.1850  0.1669 -0.1146
52640OCT     C2 5280   4.857  23.401  16.493  0.1501  0.0486  0.0502
52641OCT     C1 5281   4.233   9.147   5.991  0.0659  0.3154 -0.2298
52641OCT     C2 5282   4.100   9.509   5.822 -0.1774 -0.5818  0.0073
52642OCT     C1 5283   2.411  22.554   5.142  0.0020  0.1751  0.2030
52642OCT     C2 5284   2.710  22.561   4.767 -0.0680  0.1629  0.2940
52643OCT     C1 5285   9.651  12.894   4.229  0.0562  0.1130  0.0969
52643OCT     C2 5286   9.460  12.747   3.849 -0.0590  0.1702 -0.1178
52644OCT     C1 5287  12.916   9.559   4.025 -0.3887 -0.1032  0.3262
52644OCT     C2 5288  12.724   9.837   3.675 -0.0084  0.0434 -0.0788
52645OCT     C1 5289  18.576   1.991   4.285  0.0700  0.0122  0.1662
52645OCT     C2 5290  18.191   2.002   4.018 -0.1408 -0.0375 -0.0508
52646OCT     C1 5291   7.123   8.613   2.389  0.4362 -0.4527  0.0083
52646OCT     C2 5292   6.941   8.183   2.365  0.1067  0.0945 -0.4150
52647OCT     C1 5293   9.641   0.697   1.235  0.1235  0.0590 -0.0797
52647OCT     C2 5294   9.280   0.646   0.929  0.1784 -0.0039  0.0944
52648OCT     C1 5295   0.641   3.671  10.772  0.0034 -0.0707 -0.1603
52648OCT     C2 5296   0.372   4.018  10.872 -0.0084 -0.1667  0.3137
52649OCT     C1 5297   4.102  17.145  15.825 -0.0677  0.0938 -0.0479
52649OCT     C2 5298   4.215  17.416  16.247  0.0550  0.1529 -0.1181
52650OCT     C1 5299  16.649   7.411   4.304  0.2926 -0.3297 -0.1650
52650OCT     C2 5300  16.572   7.874   4.202  0.2100 -0.2593  0.2207
52651OCT     C1 5301   1.912   3.279   4.722  0.0815  0.0335  0.7138
52651OCT     C2 5302   2.233   3.052   4.502  0.1026 -0.0425  0.3718
52652OCT     C1 5303   0.994  18.130  10.407 -0.1291  0.0800 -0.2172
52652OCT     C2 5304   1.288  17.772  10.320  0.0918  0.0034  0.1794
52653OCT     C1 5305  20.675   9.209   9.720  0.0592  0.1704  0.0820
52653OCT     C2 5306  20.487   9.203  10.143  0.1939 -0.0319 -0.4093
52654OCT     C1 5307  15.531  10.584   2.188 -0.0497 -0.1107  0.0980
52654OCT     C2 5308  15.655  10.505   1.702 -0.0602 -0.1505 -0.3389
52655OCT     C1 5309  18.411  22.733  10.810 -0.3623  0.1811  0.4113
52655OCT     C2 5310  18.702  23.097  10.698 -0.1301 -0.2805  0.0623
52656OCT     C1 5311  11.840   5.026   8.212  0.0187 -0.2052 -0.1059
52656OCT     C2 5312  11.798   4.549   8.329 -0.0596 -0.0695  0.0590
52657OCT     C1 5313  18.727  14.388  19.214 -0.1014 -0.3865  0.4604
52657OCT     C2 5314  18.751  13.914  19.197 -0.0543  0.0945 -0.1425
52658OCT     C1 5315  14.464  18.149  17.448  0.1338 -0.0992 -0.0088
52658OCT     C2 5316  14.340  17.808  17.715  0.0459 -0.2299  0.2874
52659OCT     C1 5317   3.064   8.336   8.391  0.1973  0.3222  0.2556
52659OCT     C2 5318   2.615   8.516   8.421  0.2006  0.1311 -0.2331
52660OCT     C1 5319  18.286  12.959  13.588 -0.6595 -0.3188 -0.2531
52660OCT     C2 5320  18.070  13.236  13.896  0.1453 -0.1092  0.2556
52661OCT     C1 5321  19.824  16.716   4.443 -0.4150  0.2301 -0.1764
52661OCT     C2 5322  20.278  16.712   4.410  0.1282  0.0059  0.0371
52662OCT     C1 5323  17.455  19.823  19.651 -0.2754  0.1968 -0.3041
52662OCT     C2 5324  17.656  19.521  19.940 -0.3447 -0.1784  0.0511
52663OCT     C1 5325   6.144  19.217  10.532  0.2842 -0.2014 -0.2067
52663OCT     C2 5326   5.910  18.855  10.740 -0.0458  0.0182 -0.3893
52664OCT     C1 5327   1.086   9.102  22.491  0.3270 -0.2674 -0.0400
52664OCT     C2 5328   1.448   9.246  22.261 -0.2549 -0.1239 -0.3455
52665OCT     C1 5329  13.864  14.201   8.490  0.2841  0.0320  0.1597
52665OCT     C2 5330  14.174  14.259   8.768 -0.2361  0.3190 -0.0557
52666OCT     C1 5331   2.067  21.274  13.028 -0.0627 -0.1398  0.0183
52666OCT     C2 5332   1.952  20.944  13.353  0.4899 -0.4012 -0.0876
52667OCT     C1 5333  20.520  11.768  11.099 -0.2178  0.3805  0.3286
52667OCT     C2 5334  20.233  11.460  11.053  0.0500 -0.1863  0.1396
52668OCT     C1 5335   5.698   6.317   7.077  0.2687 -0.0786 -0.3097
52668OCT     C2 5336   5.477   5.861   7.093  0.0283  0.2999  0.0633
52669OCT     C1 5337  14.610   8.370   4.602 -0.0327  0.0439  0.3100
52669OCT     C2 5338  14.186   8.493   4.577  0.0225  0.0149  0.1880
52670OCT     C1 5339  13.680   7.587  12.489  0.1246 -0.0211 -0.0523
52670OCT     C2 5340  13.805   7.942  12.205 -0.1962  0.2782  0.1329
52671OCT     C1 5341   8.584  10.005  18.313 -0.3819  0.2229  0.1727
52671OCT     C2 5342   8.217   9.979  18.121  0.1657  0.3554 -0.3815
52672OCT     C1 5343   8.472   8.009   4.183 -0.2054  0.0807 -0.4540
52672OCT     C2 5344   8.028   8.179   4.062 -0.0368  0.2123 -0.1262
52673OCT     C1 5345   0.991   5.933   5.485 -0.4488 -0.1743 -0.3056
52673OCT     C2 5346   0.747   5.820   5.121  0.3086  0.5563  0.4209
52674OCT     C1 5347  14.144  12.887  20.171 -0.0043  0.0546 -0.0544
52674OCT     C2 5348  13.868  13.256  20.127  0.3666  0.1856  0.1888
52675OCT     C1 5349  18.798   9.437   6.550 -0.0839 -0.0437 -0.4258
52675OCT     C2 5350  18.711   9.490   6.120  0.1844 -0.0038  0.0118
52676OCT     C1 5351  10.608   5.563  21.560 -0.4778  0.0735 -0.5597
52676OCT     C2 5352  10.823   5.836  21.248  0.2409  0.0178  0.1423
52677OCT     C1 5353  14.220   9.759  16.295 -0.0009  0.1232 -0.3514
52677OCT     C2 5354  13.949   9.433  16.385 -0.2129  0.0703  0.0101
52678OCT     C1 5355   6.476   3.330   7.493 -0.0224  0.3285 -0.2435
52678OCT     C2 5356   6.386   3.752   7.405  0.1137 -0.2845 -0.1239
52679OCT     C1 5357  13.932   7.857   8.415 -0.0740  0.1477 -0.5429
52679OCT     C2 5358  14.262   7.705   8.155  0.0367  0.3391 -0.2300
52680OCT     C1 5359   0.099   3.283   5.699 -0.1390 -0.0903  0.1002
52680OCT     C2 5360  23.492   3.552   5.556 -0.1624 -0.3275 -0.2381
52681OCT     C1 5361   5.522   9.096   3.244 -0.2089 -0.2050 -0.3323
52681OCT     C2 5362   5.731   8.837   3.543  0.2415  0.1580 -0.2040
52682OCT     C1 5363  18.581  20.026  17.948 -0.1422 -0.2089 -0.2123
52682OCT     C2 5364  18.664  19.544  17.723 -0.1650  0.0163 -0.0140
52683OCT     C1 5365  14.500  13.147  21.124 -0.4115  0.0595 -0.1848
52683OCT     C2 5366  14.776  13.544  21.032  0.3250  0.3614  0.0053
52684OCT     C1 5367  17.166  10.153  15.344  0.0276 -0.0599 -0.0250
52684OCT     C2 5368  17.340  10.594  15.439  0.1042 -0.0268  0.1380
52685OCT     C1 5369   7.182  14.945  15.850  0.0600 -0.1390 -0.1325
52685OCT     C2 5370   6.977  14.539  15.644 -0.4455 -0.1933  0.3159
52686OCT     C1 5371  21.929  22.218  16.088  0.0482 -0.3106 -0.3144
52686OCT     C2 5372  22.242  22.227  16.449 -0.0257  0.1176 -0.1665
52687OCT     C1 5373  22.057   4.613  13.906 -0.3414  0.1687 -0.3071
52687OCT     C2 5374  21.711   4.371  13.737 -0.0427 -0.0168  0.2840
52688OCT     C1 5375   2.616  11.856   6.750  0.0906  0.1874 -0.1446
52688OCT     C2 5376   2.416  12.188   6.436  0.0856  0.1871  0.0864
52689OCT     C1 5377  18.220   1.303  13.277  0.1615  0.2151 -0.2202
52689OCT     C2 5378  18.493   1.370  12.985 -0.3385  0.2807  0.0522
52690OCT     C1 5379   7.277  23.483  12.884  0.1656  0.3868  0.0497
52690OCT     C2 5380   7.125  23.638  13.236  0.4755  0.0167  0.3356
52691OCT     C1 5381  16.811  21.626   1.194  0.2792  0.1687  0.0564
52691OCT     C2 5382  16.449  21.786   1.006  0.1335 -0.0418 -0.2057
52692OCT     C1 5383   2.376   7.474  18.427  0.0628  0.2343 -0.2577
52692OCT     C2 5384   2.742   7.764  18.392  0.0932 -0.4035 -0.1883
52693OCT     C1 5385  14.738  20.775  17.371 -0.0499  0.1218 -0.0527
52693OCT     C2 5386  14.876  21.119  17.679 -0.0731  0.3792 -0.2461
52694OCT     C1 5387  22.023   9.472   9.582  0.1309  0.2880  0.0004
52694OCT     C2 5388  22.411   9.381   9.371 -0.2983  0.2695  0.0235
52695OCT     C1 5389   5.998  19.844   4.164 -0.0079  0.0691 -0.0975
52695OCT     C2 5390   6.131  19.556   4.462  0.0217 -0.2206 -0.1878
52696OCT     C1 5391  20.013   9.080  12.288 -0.2827  0.0790 -0.1673
52696OCT     C2 5392  20.442   8.851  12.260 -0.3016 -0.1006 -0.3658
52697OCT     C1 5393   2.947  19.478  17.001  0.1480 -0.0735  0.0021
52697OCT     C2 5394   2.555  19.279  17.095 -0.1152  0.0056  0.1463
52698OCT     C1 5395  21.409  10.457  23.644 -0.3041 -0.0301 -0.1014
52698OCT     C2 5396  21.488  10.712  23.313  0.3927  0.0467  0.1281
52699OCT     C1 5397  13.828   3.549  22.180  0.2379 -0.0728 -0.1679
52699OCT     C2 5398  13.541   3.929  22.189 -0.2940 -0.0359 -0.1536
52700OCT     C1 5399  11.910  14.878  14.166 -0.5095 -0.1716 -0.2612
52700OCT     C2 5400  11.902  14.748  14.642  0.0230  0.0497  0.1491
52701OCT     C1 5401   3.823  20.820  21.592 -0.1952 -0.0392  0.2109
52701OCT     C2 5402   3.831  21.275  21.524  0.0139 -0.0796 -0.2361
52702OCT     C1 5403  11.420  14.693  17.481 -0.0566 -0.0503 -0.0501
52702OCT     C2 5404  11.350  15.163  17.382 -0.1574  0.0633 -0.0866
52703OCT     C1 5405  17.225   7.594  13.419  0.1843 -0.3144 -0.1289
52703OCT     C2 5406  17.177   8.046  13.345  0.2831 -0.3378  0.1696
52704OCT     C1 5407  13.645   7.682  23.353 -0.1144  0.0102 -0.0945
52704OCT     C2 5408  13.155   7.683  23.322  0.3372  0.0310 -0.2973
52705OCT     C1 5409  12.538  15.305  20.508  0.0794  0.1512  0.0518
52705OCT     C2 5410  12.175  15.555  20.532  0.2034 -0.0018 -0.1054
52706OCT     C1 5411   4.973  21.631  15.197 -0.1504 -0.1419  0.0233
52706OCT     C2 5412   4.674  22.006  15.357 -0.1128 -0.0197 -0.0035
52707OCT     C1 5413   4.401  22.159  16.316 -0.1007  0.2866  0.0125
52707OCT     C2 5414   4.636  22.566  16.078 -0.0886  0.0295 -0.1275
52708OCT     C1 5415  11.178  13.675   3.394 -0.0539  0.2069 -0.3138
52708OCT     C2 5416  11.534  13.639   3.114 -0.0743 -0.1483 -0.0386
52709OCT     C1 5417  11.399  11.755  22.001  0.0509 -0.0947  0.1711
52709OCT     C2 5418  11.719  11.820  22.311  0.0799  0.0257 -0.1973
52710OCT     C1 5419  10.011  18.118  18.681 -0.1061  0.0593  0.1922
52710OCT     C2 5420   9.784  18.071  18.283  0.2736 -0.2364 -0.1213
52711OCT     C1 5421   7.217   7.731   8.208  0.0489  0.5452 -0.4703
52711OCT     C2 5422   6.970   8.033   8.120 -0.3155 -0.2273 -0.1497
52712OCT     C1 5423   0.302   0.696  18.268 -0.2202  0.0331 -0.0168
52712OCT     C2 5424   0.620   0.502  18.035 -0.1125  0.0152 -0.0912
52713OCT     C1 5425  12.364  12.846   4.485  0.1008  0.1030  0.1985
52713OCT     C2 5426  12.530  12.555   4.196 -0.1625 -0.1207 -0.3017
52714OCT     C1 5427  17.444   5.500   9.268  0.2620 -0.0047  0.2068
52714OCT     C2 5428  17.087   5.720   9.177 -0.0801 -0.0303 -0.0268
52715OCT     C1 5429  16.897   0.008   0.043  0.1378 -0.1550 -0.1913
52715OCT     C2 5430  16.670  23.686  23.353  0.1002 -0.3031 -0.2221
52716OCT     C1 5431  10.871   2.505  14.764  0.0404 -0.4983  0.3996
52716OCT     C2 5432  11.043   2.559  14.368  0.3345  0.0514  0.1998
52717OCT     C1 5433   0.461   6.540  10.847 -0.1038  0.1824  0.1455
52717OCT     C2 5434   0.214   6.763  11.191  0.1801 -0.1425 -0.0002
52718OCT     C1 5435  19.048   3.694   4.109  0.5445  0.3297  0.0696
52718OCT     C2 5436  19.095   3.924   3.703 -0.2800  0.3124 -0.2097
52719OCT     C1 5437  13.373  10.135   4.702  0.1587  0.0321 -0.0790
52719OCT     C2 5438  13.767  10.203   4.925  0.1060 -0.4134 -0.1431
52720OCT     C1 5439  21.127   1.988  11.558 -0.0415 -0.1276  0.0430
52720OCT     C2 5440  20.753   2.275  11.633  0.1128  0.0264  0.3793
52721OCT     C1 5441   5.187  14.794  18.642 -0.3854 -0.4906 -0.2769
52721OCT     C2 5442   5.494  14.463  18.836  0.0578  0.3590 -0.1712
52722OCT     C1 5443   5.562  11.919  14.274 -0.0579  0.0269 -0.4886
52722OCT     C2 5444   5.703  12.344  14.086  0.2302  0.4054  0.2317
52723OCT     C1 5445  19.601   2.309  13.954  0.0932 -0.1360  0.0425
52723OCT     C2 5446  19.425   1.884  13.984  0.1040  0.1620 -0.1444
52724OCT     C1 5447  20.303  16.617  23.415  0.0226  0.5370  0.2026
52724OCT     C2 5448  20.379  16.441  22.962 -0.0505  0.0486  0.2565
52725OCT     C1 5449   2.840   1.253   4.162 -0.5474  0.2407 -0.0354
52725OCT     C2 5450   2.745   1.668   4.214 -0.0746 -0.2289  0.1437
52726OCT     C1 5451   1.246  21.356  22.879 -0.0830 -0.0312 -0.2773
52726OCT     C2 5452   0.944  21.192  23.214 -0.2137  0.1771  0.3572
52727OCT     C1 5453   2.046   3.126  22.107  0.4762 -0.1743 -0.0966
52727OCT     C2 5454   2.473   3.003  22.273 -0.0879 -0.2223 -0.1944
52728OCT     C1 5455  21.852  20.797   1.943  0.3848  0.1034 -0.3481
52728OCT     C2 5456  22.069  21.071   2.233  0.0675  0.1261  0.0164
52729OCT     C1 5457  13.842  15.047  19.415 -0.2989  0.1059  0.0460
52729OCT     C2 5458  13.700  14.634  19.604 -0.3683 -0.0678 -0.1643
52730OCT     C1 5459  21.639  18.230  10.522 -0.1876 -0.2923  0.0438
52730OCT     C2 5460  21.405  18.265  10.957 -0.2376 -0.0546  0.1555
52731OCT     C1 5461   2.081   2.286  22.559 -0.2828 -0.1306 -0.3929
52731OCT     C2 5462   2.115   2.581  22.168  0.4248  0.3172  0.1893
52732OCT     C1 5463   5.647  20.969  15.208 -0.0005  0.0440 -0.3370
52732OCT     C2 5464   5.691  20.741  15.633 -0.0892  0.0616  0.2627
52733OCT     C1 5465  15.605   7.004   5.102 -0.2705 -0.0255 -0.4918
52733OCT     C2 5466  15.561   6.755   4.758 -0.0487 -0.2127 -0.1340
52734OCT     C1 5467   9.631   7.598  22.342  0.1658  0.2484 -0.3229
52734OCT     C2 5468   9.505   7.380  21.920  0.1605 -0.1195  0.1801
52735OCT     C1 5469  17.152  12.849   9.621 -0.0379 -0.1865 -0.2966
52735OCT     C2 5470  17.438  13.204   9.449  0.1274 -0.0818 -0.2913
52736OCT     C1 5471  14.423  12.718  21.419 -0.2128 -0.2613  0.2223
52736OCT     C2 5472  14.554  12.443  21.054 -0.1126 -0.1512 -0.0751
52737OCT     C1 5473  13.430  15.409   0.695 -0.0103  0.1321  0.1609
52737OCT     C2 5474  13.065  15.214   0.907  0.0021  0.2093 -0.1342
52738OCT     C1 5475   0.344  19.517  15.645 -0.0151 -0.1041  0.0842
52738OCT     C2 5476   0.213  19.138  15.837 -0.2675 -0.2466 -0.2297
52739OCT     C1 5477  18.896  20.036  10.443  0.0240  0.0597  0.1502
52739OCT     C2 5478  19.013  20.002  10.004 -0.3724  0.1805  0.3373
52740OCT     C1 5479  13.091  19.817  11.573  0.0311  0.5452 -0.2148
52740OCT     C2 5480  12.851  19.473  11.544  0.0709  0.3379 -0.2404
52741OCT     C1 5481   9.320  16.256  22.075 -0.0647  0.1345  0.3303
52741OCT     C2 5482   8.966  16.352  21.762  0.2499  0.2351 -0.0502
52742OCT     C1 5483  12.133  14.777   8.001 -0.3223  0.0938  0.2007
52742OCT     C2 5484  12.407  14.598   8.317 -0.0965  0.0566  0.1928
52743OCT     C1 5485   9.903  19.298   9.326  0.0729 -0.2785 -0.5542
52743OCT     C2 5486   9.943  19.604   9.007  0.3695  0.3330 -0.0511
52744OCT     C1 5487   0.904  10.440   4.600 -0.0740  0.2756 -0.0185
52744OCT     C2 5488   0.980  10.588   4.134  0.5558 -0.0374 -0.0886
52745OCT     C1 5489  10.865   4.372   4.844  0.3703 -0.0189  0.1129
52745OCT     C2 5490  11.006   3.953   4.772 -0.0514 -0.4514  0.1914
52746OCT     C1 5491  18.468  11.016   7.557  0.3760  0.3209 -0.0518
52746OCT     C2 5492  18.374  11.402   7.842 -0.0978  0.0167 -0.0511
52747OCT     C1 5493  18.446  19.941  11.743  0.1898  0.0630 -0.2086
52747OCT     C2 5494  18.874  19.972  11.811 -0.0631  0.1813  0.3957
52748OCT     C1 5495   4.807  21.309   4.247  0.1441  0.0605 -0.0581
52748OCT     C2 5496   5.213  21.110   4.007 -0.1067  0.2397  0.4460
52749OCT     C1 5497  20.785  22.647   0.659  0.5220  0.0732  0.1999
52749OCT     C2 5498  21.034  22.275   0.617 -0.0298 -0.2084 -0.1562
52750OCT     C1 5499  16.205   9.721  20.752  0.4596  0.3284 -0.3936
52750OCT     C2 5500  16.572   9.462  20.640 -0.0546 -0.2488  0.2300
52751OCT     C1 5501   6.734   2.653  10.472 -0.2645 -0.2057  0.1853
52751OCT     C2 5502   6.792   2.779  10.006 -0.0714  0.0629  0.2145
52752OCT     C1 5503   3.037   8.468   2.096 -0.1930  0.0802  0.0081
52752OCT     C2 5504   2.819   8.476   2.539 -0.0541  0.2013  0.0087
52753OCT     C1 5505   5.751  19.507   8.510 -0.0979 -0.1281  0.2803
52753OCT     C2 5506   5.794  19.815   8.857  0.0055  0.1724 -0.1870
52754OCT     C1 5507  18.418  14.687  13.052 -0.0439 -0.0150 -0.0782
52754OCT     C2 5508  18.199  14.957  12.792 -0.0776 -0.2459  0.0532
52755OCT     C1 5509  11.579  19.610  12.329  0.1739  0.2394 -0.1544
52755OCT     C2 5510  11.237  19.613  11.985 -0.1379 -0.2117 -0.1879
52756OCT     C1 5511  13.059  19.469   6.369  0.0531 -0.2375 -0.1779
52756OCT     C2 5512  13.096  19.025   6.540  0.0485 -0.3326  0.0015
52757OCT     C1 5513  10.035  21.762   7.521 -0.0964  0.4048 -0.2972
52757OCT     C2 5514  10.393  21.472   7.710 -0.2501 -0.1017 -0.1212
52758OCT     C1 5515   6.574  13.854  22.220 -0.0625 -0.1581 -0.1658
52758OCT     C2 5516   6.305  13.877  21.803  0.1218 -0.3474 -0.1133
52759OCT     C1 5517  21.742  23.315  20.843  0.2865  0.3884  0.2745
52759OCT     C2 5518  21.829  22.910  21.057 -0.2941  0.0631  0.1718
52760OCT     C1 5519   6.474   4.545   6.082  0.4344  0.0012 -0.3420
52760OCT     C2 5520   6.370   4.316   5.686  0.1333  0.2992 -0.5709
52761OCT     C1 5521  10.476  21.268   6.571 -0.1779  0.0232  0.2102
52761OCT     C2 5522  10.521  21.345   6.989 -0.0544 -0.0914 -0.2497
52762OCT     C1 5523  17.360   3.052  10.625 -0.1704  0.1001 -0.1920
52762OCT     C2 5524  16.921   3.214  10.793  0.2937  0.1834  0.1154
52763OCT     C1 5525   3.772   3.189  12.707  0.0338  0.2504  0.0597
52763OCT     C2 5526   3.723   3.494  12.353 -0.1404  0.0891  0.0603
52764OCT     C1 5527  13.734  17.717  16.944  0.3514 -0.0838 -0.2625
52764OCT     C2 5528  13.356  17.419  17.066  0.0466 -0.2826  0.0002
52765OCT     C1 5529   9.005  19.076  23.646  0.2230  0.0181 -0.0489
52765OCT     C2 5530   8.674  19.330  23.427  0.0212 -0.3509 -0.1551
52766OCT     C1 5531   9.273  21.495  16.559 -0.1145  0.0924 -0.1905
52766OCT     C2 5532   9.429  21.896  16.634 -0.0046 -0.2670 -0.0966
52767OCT     C1 5533  12.338  17.989   5.137  0.3523 -0.1778 -0.1318
52767OCT     C2 5534  12.224  18.155   4.692  0.0051 -0.2127 -0.1654
52768OCT     C1 5535  22.618   5.858  16.608  0.4541 -0.0086  0.2297
52768OCT     C2 5536  22.489   5.656  17.022  0.1992 -0.1088 -0.4711
52769OCT     C1 5537   9.506   1.802  16.102 -0.2896 -0.0315 -0.2552
52769OCT     C2 5538   9.885   2.001  16.229  0.1591 -0.3097 -0.0969
52770OCT     C1 5539   5.326  22.297   0.283  0.2083  0.1354 -0.0426
52770OCT     C2 5540   5.050  22.266  23.685  0.0485  0.4220  0.1324
52771OCT     C1 5541   4.117  23.037  14.329 -0.1284  0.2332 -0.0719
52771OCT     C2 5542   4.149  22.547  14.380 -0.0341 -0.0037  0.1724
52772OCT     C1 5543   7.728   4.490   9.757 -0.2226  0.1378  0.3254
52772OCT     C2 5544   8.074   4.694   9.889 -0.2398  0.0671  0.0227
52773OCT     C1 5545  19.705  10.181  13.905  0.1343  0.0490 -0.1854
52773OCT     C2 5546  19.890   9.775  14.022  0.2905 -0.1185  0.1557
52774OCT     C1 5547   1.378   5.708  20.005  0.1996  0.2722  0.1534
52774OCT     C2 5548   1.752   5.871  20.208 -0.1695  0.0246 -0.4769
52775OCT     C1 5549  14.626  15.455  11.251  0.3312  0.0309  0.1353
52775OCT     C2 5550  14.791  15.469  10.770 -0.1871  0.1835  0.1570
52776OCT     C1 5551  11.479  20.877  20.113 -0.1232  0.0544  0.0531
52776OCT     C2 5552  11.070  21.010  20.422  0.0351 -0.3717 -0.4249
52777OCT     C1 5553  12.130  12.237   4.168 -0.2988  0.1641  0.2042
52777OCT     C2 5554  11.686  12.196   4.336  0.1146 -0.2046 -0.1407
52778OCT     C1 5555   3.890  15.057  17.752 -0.1578 -0.0543  0.0647
52778OCT     C2 5556   3.966  14.837  17.432 -0.2326  0.0402 -0.0748
52779OCT     C1 5557   1.938  16.880  19.052  0.1102  0.5888  0.1777
52779OCT     C2 5558   1.815  17.160  18.671  0.4234 -0.0939  0.0811
52780OCT     C1 5559   2.848  23.275   4.121 -0.0260 -0.0451  0.2562
52780OCT     C2 5560   3.358  23.186   4.103  0.1280  0.0231 -0.2706
52781OCT     C1 5561   4.396   4.708   9.945 -0.1342 -0.0597  0.0441
52781OCT     C2 5562   4.271   4.299  10.109 -0.5118  0.1578 -0.1339
52782OCT     C1 5563  10.692  16.650  19.738 -0.1600 -0.0221 -0.2976
52782OCT     C2 5564  10.612  16.641  19.265  0.0817 -0.1107 -0.1076
52783OCT     C1 5565  22.751  10.522   1.253  0.0702 -0.2385 -0.3174
52783OCT     C2 5566  23.231  10.799   1.401 -0.2675  0.2637 -0.0157
52784OCT     C1 5567   8.391   6.946   3.836  0.4925  0.1896 -0.1302
52784OCT     C2 5568   8.669   7.066   4.242  0.0025  0.0485  0.0759
52785OCT     C1 5569  17.462  19.354  13.034 -0.0401 -0.0174  0.3444
52785OCT     C2 5570  17.686  19.088  13.341  0.0227 -0.3603  0.0103
52786OCT     C1 5571   2.606   2.919  11.973 -0.2829 -0.0156  0.0731
52786OCT     C2 5572   2.662   2.954  11.550  0.0602 -0.0500 -0.1664
52787OCT     C1 5573  12.350   4.541   6.239 -0.1299  0.0707 -0.1263
52787OCT     C2 5574  12.131   4.106   6.379 -0.0449  0.1738  0.1558
52788OCT     C1 5575   3.285  13.697  17.891 -0.1533  0.1671  0.0933
52788OCT     C2 5576   3.552  14.048  17.710  0.4438  0.2925 -0.4459
52789OCT     C1 5577  14.998   0.613   2.534 -0.2196 -0.0542  0.0152
52789OCT     C2 5578  15.426   0.413   2.502 -0.1775 -0.1714 -0.0184
52790OCT     C1 5579  10.806   5.800  13.650  0.0894  0.4946  0.4072
52790OCT     C2 5580  11.188   5.922  13.419  0.1593 -0.1059 -0.1998
52791OCT     C1 5581  23.325  23.533  17.520  0.1180 -0.3015 -0.1254
52791OCT     C2 5582  23.218  23.212  17.791 -0.0463  0.0361  0.1845
52792OCT     C1 5583   8.538   7.076  13.592  0.2843 -0.2497 -0.0931
52792OCT     C2 5584   8.219   7.441  13.732  0.0861  0.1550 -0.0650
52793OCT     C1 5585  17.208   9.832   0.754 -0.1866  0.1057  0.3166
52793OCT     C2 5586  17.390   9.558   0.373 -0.2965  0.0774 -0.2826
52794OCT     C1 5587  16.691  14.544   4.754 -0.3907 -0.1057  0.0099
52794OCT     C2 5588  17.054  14.343   4.584 -0.1220  0.1781  0.1460
52795OCT     C1 5589   0.884   1.334  12.423  0.1199 -0.0915 -0.2134
52795OCT     C2 5590   0.583   1.126  12.666  0.2250  0.0527 -0.3363
52796OCT     C1 5591  20.098  17.274   3.778 -0.0200 -0.5660  0.1000
52796OCT     C2 5592  20.505  17.058   3.768 -0.0207 -0.0536 -0.3492
52797OCT     C1 5593   8.729   0.057  19.620  0.1494  0.1219 -0.2139
52797OCT     C2 5594   8.963   0.015  20.037 -0.2032  0.2119  0.2137
52798OCT     C1 5595  17.029   7.525   0.667 -0.0871  0.0566 -0.0864
52798OCT     C2 5596  17.001   7.557   1.116 -0.3328  0.2458 -0.0264
52799OCT     C1 5597   3.277   1.867  21.837 -0.0012  0.3889  0.3864
52799OCT     C2 5598   3.115   2.148  21.439 -0.1642 -0.0371 -0.0249
52800OCT     C1 5599  21.870  10.105   8.154 -0.2773 -0.3060  0.0983
52800OCT     C2 5600  21.702  10.444   8.489  0.1048 -0.5052  0.0473
52801OCT     C1 5601   0.026  12.269   7.712 -0.2307 -0.1806 -0.0397
52801OCT     C2 5602   0.228  12.712   7.753 -0.1731 -0.0262  0.0962
52802OCT     C1 5603  20.120   9.107   9.449 -0.0680 -0.1255 -0.3832
52802OCT     C2 5604  20.034   9.551   9.281  0.2368  0.0280  0.2386
52803OCT     C1 5605   1.652   8.842   0.747 -0.0248 -0.1530 -0.1045
52803OCT     C2 5606   1.851   8.561   1.091 -0.1375 -0.1777  0.1275
52804OCT     C1 5607   3.696   5.159   2.812 -0.1143  0.1449 -0.1181
52804OCT     C2 5608   3.561   5.514   2.534  0.0536  0.0740  0.0894
52805OCT     C1 5609  13.074   7.211  11.247 -0.3156 -0.0651  0.1947
52805OCT     C2 5610  13.321   7.169  11.661 -0.0989 -0.1253  0.0829
52806OCT     C1 5611   9.730  12.884  16.287 -0.2638  0.0592  0.0215
52806OCT     C2 5612  10.056  12.772  15.986  0.1984  0.0520  0.1928
52807OCT     C1 5613   5.269  15.114   4.331 -0.0172  0.0419  0.0282
52807OCT     C2 5614   5.149  15.565   4.404 -0.1925  0.0369 -0.0251
52808OCT     C1 5615   2.668  16.040   9.455  0.1266  0.0243 -0.1719
52808OCT     C2 5616   2.383  16.430   9.454 -0.3251  0.3660 -0.1353
52809OCT     C1 5617   0.032   5.481   7.077  0.1447  0.1227  0.1314
52809OCT     C2 5618   0.363   5.414   6.723 -0.3871  0.0651 -0.0117
52810OCT     C1 5619   0.795   1.702   9.656  0.1734  0.1854  0.2635
52810OCT     C2 5620   1.131   1.869   9.322 -0.1926  0.1862  0.0628
52811OCT     C1 5621   1.095  21.103  13.848  0.0322 -0.0239  0.1585
52811OCT     C2 5622   0.628  20.944  13.789 -0.1601  0.2099  0.3949
52812OCT     C1 5623  16.265   6.107   0.293 -0.1680  0.4426  0.0332
52812OCT     C2 5624  15.969   6.401   0.388  0.0159  0.4028  0.2840
52813OCT     C1 5625  19.503  11.655   2.484 -0.1060 -0.2923 -0.0100
52813OCT     C2 5626  19.967  11.717   2.441  0.1267 -0.2141  0.2322
52814OCT     C1 5627   8.519  18.984   0.015 -0.2308  0.4434  0.1882
52814OCT     C2 5628   8.423  18.532   0.133  0.3508  0.0461  0.0377
52815OCT     C1 5629  22.539   1.418   7.914  0.0983 -0.4225 -0.0501
52815OCT     C2 5630  22.688   1.002   8.114  0.0227 -0.1940  0.0760
52816OCT     C1 5631  23.739   5.930   5.464  0.1581  0.1588 -0.0459
52816OCT     C2 5632  23.623   6.428   5.515 -0.0594  0.0846  0.1578
52817OCT     C1 5633   5.058  20.374   7.901 -0.3579  0.0546 -0.4767
52817OCT     C2 5634   5.508  20.530   7.729 -0.0596  0.1926 -0.1583
52818OCT     C1 5635   9.928  22.043  14.315  0.5114 -0.3130 -0.0650
52818OCT     C2 5636   9.630  21.771  14.469  0.1478 -0.1171  0.0099
52819OCT     C1 5637  14.904  14.936   1.669 -0.1369  0.2425 -0.3700
52819OCT     C2 5638  14.948  15.021   2.152  0.1817 -0.1630 -0.0480
52820OCT     C1 5639  21.179   3.571  23.163  0.2866  0.0455 -0.3482
52820OCT     C2 5640  21.193   3.616  23.648  0.0100 -0.1228 -0.1944
52821OCT     C1 5641   4.959   8.259  16.672  0.0879  0.2101 -0.2492
52821OCT     C2 5642   5.181   8.655  16.839  0.1940 -0.0282 -0.3682
52822OCT     C1 5643  15.057   3.624  18.705 -0.0167 -0.1648  0.0469
52822OCT     C2 5644  15.238   3.902  19.018  0.1888 -0.0261  0.1882
52823OCT     C1 5645   4.511  16.696  17.992 -0.4025 -0.1189 -0.1022
52823OCT     C2 5646   4.056  16.638  17.808 -0.3121 -0.0746 -0.0289
52824OCT     C1 5647  12.709  11.751  15.577  0.0861  0.0340 -0.0139
52824OCT     C2 5648  12.981  11.448  15.309  0.0961  0.0360  0.2277
52825OCT     C1 5649  20.259  23.672  13.291  0.2889 -0.0921  0.0036
52825OCT     C2 5650  19.880  23.727  13.014 -0.0569  0.1414 -0.0246
52826OCT     C1 5651   0.190  21.047  16.551  0.1020  0.0329 -0.1399
52826OCT     C2 5652   0.577  21.334  16.411  0.1199 -0.2303  0.1757
52827OCT     C1 5653  16.283  17.965  14.278  0.0122 -0.2187 -0.2448
52827OCT     C2 5654  16.226  18.104  14.778 -0.0054  0.1146 -0.1347
52828OCT     C1 5655   1.994   0.318  21.720 -0.0698 -0.1717  0.1398
52828OCT     C2 5656   2.395   0.314  21.490  0.1737 -0.0150  0.1726
52829OCT     C1 5657  22.909  19.563  19.633 -0.0289  0.2186 -0.1587
52829OCT     C2 5658  22.571  19.261  19.570  0.2689 -0.5239  0.1307
52830OCT     C1 5659   5.808   1.433  20.334  0.0071  0.0166  0.1850
52830OCT     C2 5660   6.235   1.416  20.553  0.2888 -0.0660 -0.0988
52831OCT     C1 5661   3.779  14.827  10.091 -0.0115  0.1985 -0.1283
52831OCT     C2 5662   3.438  15.056  10.009  0.3773 -0.2813  0.3989
52832OCT     C1 5663   6.314   2.168  21.106  0.0583  0.2813 -0.1009
52832OCT     C2 5664   6.703   2.404  21.133 -0.1394 -0.1683  0.1759
52833OCT     C1 5665   9.844  12.028   6.021  0.0362 -0.2000 -0.1644
52833OCT     C2 5666   9.731  12.162   6.482  0.0235  0.3034 -0.2999
52834OCT     C1 5667  16.208   8.932   5.032  0.1474  0.0250 -0.1884
52834OCT     C2 5668  16.522   9.248   4.959 -0.2895 -0.2504 -0.6698
52835OCT     C1 5669   4.847   9.165   6.946  0.2074  0.1731  0.1280
52835OCT     C2 5670   4.381   9.363   6.771 -0.1375  0.0715 -0.0639
52836OCT     C1 5671   2.185  10.970  14.637  0.0223  0.1806  0.1781
52836OCT     C2 5672   1.861  10.835  14.300 -0.3583 -0.1225 -0.3280
52837OCT     C1 5673  14.185  23.401   1.714 -0.2142 -0.0577 -0.0329
52837OCT     C2 5674  14.408  22.968   1.740 -0.0099 -0.0469  0.0915
52838OCT     C1 5675  17.892  13.384   9.167  0.2892  0.0957 -0.0381
52838OCT     C2 5676  17.960  12.962   9.388  0.1598  0.1013  0.1007
52839OCT     C1 5677  13.478  17.795   8.661  0.0931 -0.0116 -0.0141
52839OCT     C2 5678  13.712  17.924   8.261 -0.1196  0.0947  0.0278
52840OCT     C1 5679  17.406  22.824  10.702  0.2101  0.0077  0.0747
52840OCT     C2 5680  17.448  22.902  11.167  0.2172  0.0460  0.2188
52841OCT     C1 5681  22.796  23.735  16.963  0.0279  0.0790  0.1077
52841OCT     C2 5682  23.274  23.662  17.064  0.0676  0.4948 -0.1005
52842OCT     C1 5683   1.365   1.087  19.105  0.0334  0.2089  0.3695
52842OCT     C2 5684   1.715   1.284  19.355  0.0536 -0.2350  0.0241
52843OCT     C1 5685   9.609   2.816   3.205 -0.3377 -0.0269 -0.3122
52843OCT     C2 5686   9.308   2.530   3.024  0.1646  0.1700 -0.4174
52844OCT     C1 5687  14.164  14.365  22.236  0.0875  0.0085  0.3131
52844OCT     C2 5688  13.812  14.466  22.526  0.0607  0.0680 -0.1735
52845OCT     C1 5689  13.767  20.201   2.925 -0.1631  0.1926  0.0700
52845OCT     C2 5690  13.595  20.156   3.364 -0.1851  0.1750  0.3056
52846OCT     C1 5691  21.376   0.192  22.072  0.2157  0.0998 -0.1708
52846OCT     C2 5692  21.639  23.703  21.794  0.0778 -0.2064  0.1823
52847OCT     C1 5693  15.799  13.415   0.092 -0.3070 -0.0235 -0.0977
52847OCT     C2 5694  16.237  13.629   0.032  0.2246  0.2210 -0.2066
52848OCT     C1 5695  12.024  16.896   8.481  0.1296  0.3691  0.3382
52848OCT     C2 5696  12.110  17.410   8.544  0.3467  0.1622 -0.0612
52849OCT     C1 5697   8.889   7.412  21.862  0.2367  0.2272  0.0689
52849OCT     C2 5698   8.568   7.645  21.651  0.0300  0.1290  0.0883
52850OCT     C1 5699   9.315  17.973  22.427  0.1137  0.2329 -0.2849
52850OCT     C2 5700   9.491  18.401  22.592 -0.1556 -0.0397  0.1488
52851OCT     C1 5701  15.514   0.932   5.619 -0.1052 -0.1997  0.0660
52851OCT     C2 5702  15.617   0.840   6.052  0.2292  0.2536 -0.3150
52852OCT     C1 5703  12.874   9.751  15.860 -0.1286 -0.2001  0.0567
52852OCT     C2 5704  12.966   9.733  16.304  0.2922  0.2169 -0.0072
52853OCT     C1 5705  12.882   6.578  15.604 -0.2679  0.0554  0.1436
52853OCT     C2 5706  13.164   6.520  15.241 -0.2081  0.1143 -0.0276
52854OCT     C1 5707  19.197  18.550  19.022 -0.0564  0.2756 -0.0549
52854OCT     C2 5708  19.268  18.723  18.591 -0.3119  0.0669 -0.2509
52855OCT     C1 5709   3.788   5.258   0.454  0.1878 -0.0773 -0.0841
52855OCT     C2 5710   3.458   5.398   0.779  0.0348  0.1264  0.0576
52856OCT     C1 5711   4.165   1.303  18.279  0.0847 -0.0084  0.0192
52856OCT     C2 5712   4.217   1.679  18.128  0.4824  0.0736 -0.2349
52857OCT     C1 5713  23.156   1.433   0.322  0.0025 -0.5673  0.2226
52857OCT     C2 5714  23.214   1.066   0.586  0.0395 -0.0025  0.3197
52858OCT     C1 5715  16.136  21.555   5.563 -0.1583  0.2038 -0.0067
52858OCT     C2 5716  16.072  21.975   5.753 -0.1287  0.2901 -0.2575
52859OCT     C1 5717   1.615  19.046  23.103 -0.2564 -0.2028 -0.1999
52859OCT     C2 5718   1.407  18.849  23.416  0.0246  0.1748 -0.0099
52860OCT     C1 5719  23.548  19.789   7.853  0.0846 -0.0868  0.2403
52860OCT     C2 5720  23.398  19.626   8.257 -0.3118 -0.1554  0.1738
52861OCT     C1 5721  22.257   0.911   5.960 -0.1764  0.1301  0.2359
52861OCT     C2 5722  22.242   0.530   6.180 -0.2262 -0.0214 -0.0784
52862OCT     C1 5723  16.574   1.346   9.794  0.0200  0.2065 -0.0607
52862OCT     C2 5724  16.416   1.571   9.364 -0.1124  0.0288 -0.1473
52863OCT     C1 5725   8.268  13.122   9.225 -0.1656  0.0541  0.2785
52863OCT     C2 5726   8.638  12.838   9.350 -0.2012  0.0697  0.0186
52864OCT     C1 5727   6.999  10.869  15.561 -0.0404 -0.2825 -0.1004
52864OCT     C2 5728   6.735  11.122  15.259 -0.3001  0.1361 -0.1500
52865OCT     C1 5729  14.119   3.816   7.723 -0.1200 -0.0331 -0.0148
52865OCT     C2 5730  14.002   3.435   7.632 -0.0132  0.1976 -0.0729
52866OCT     C1 5731   8.573  22.269   6.216 -0.2896 -0.2316 -0.1145
52866OCT     C2 5732   8.223  22.607   6.277  0.1173 -0.0503 -0.3188
52867OCT     C1 5733   9.059  22.688   7.767  0.1882  0.2463 -0.1873
52867OCT     C2 5734   8.791  22.382   7.514 -0.0794 -0.3990  0.3569
52868OCT     C1 5735  10.730  17.358  23.502 -0.0279  0.2818  0.2048
52868OCT     C2 5736  10.510  17.423  23.128 -0.0447  0.1256  0.1134
52869OCT     C1 5737   7.263  13.571   7.082 -0.0782 -0.2541 -0.1262
52869OCT     C2 5738   7.456  13.899   7.332  0.3259 -0.1167  0.1285
52870OCT     C1 5739   0.074   4.384  13.368 -0.0112  0.0812 -0.3002
52870OCT     C2 5740   0.454   4.120  13.291  0.1673 -0.2125 -0.1926
52871OCT     C1 5741   2.522   6.634   6.527  0.2830 -0.2667 -0.0320
52871OCT     C2 5742   2.456   6.282   6.734  0.1929 -0.1043  0.0708
52872OCT     C1 5743   6.294   5.723  19.391 -0.1192 -0.3911  0.3894
52872OCT     C2 5744   5.943   5.404  19.383 -0.1305 -0.4667 -0.3973
52873OCT     C1 5745   8.127  14.342   6.260  0.1000  0.2643  0.0359
52873OCT     C2 5746   7.975  14.469   5.844  0.2217  0.0660 -0.1045
52874OCT     C1 5747  18.206   1.528   6.347 -0.0551 -0.1083 -0.0161
52874OCT     C2 5748  17.938   1.875   6.473 -0.0024  0.0149  0.0590
52875OCT     C1 5749   0.832   8.394   0.825 -0.1854  0.3757 -0.0327
52875OCT     C2 5750   0.621   8.742   0.669  0.0365  0.1634  0.4415
52876OCT     C1 5751  18.310   4.788  12.723  0.1571 -0.0851  0.4659
52876OCT     C2 5752  18.041   5.108  12.904 -0.3561 -0.1883  0.0814
52877OCT     C1 5753  10.066  19.791  15.179  0.4029 -0.1118  0.2004
52877OCT     C2 5754  10.358  20.043  15.413  0.1616 -0.2605 -0.0147
52878OCT     C1 5755  20.335  22.761  13.220 -0.0196  0.0025  0.2187
52878OCT     C2 5756  20.536  22.378  13.146 -0.1930  0.3676  0.0599
52879OCT     C1 5757  17.205  19.635  21.265  0.1641  0.0018  0.0201
52879OCT     C2 5758  17.238  19.557  20.789  0.2376  0.2508 -0.1173
52880OCT     C1 5759   5.395  10.941   5.483  0.1034  0.4950  0.1765
52880OCT     C2 5760   5.700  11.189   5.333 -0.3551  0.0402 -0.4136
52881OCT     C1 5761   5.585  23.177  13.212  0.0592 -0.3640  0.0330
52881OCT     C2 5762   5.581  23.429  12.862  0.0433 -0.0968  0.0531
52882OCT     C1 5763   3.134  20.503   9.932 -0.1237  0.1089  0.3429
52882OCT     C2 5764   3.545  20.213   9.923 -0.1002 -0.0348  0.3319
52883OCT     C1 5765  21.101   6.505  12.349 -0.0280 -0.3870 -0.3088
52883OCT     C2 5766  20.954   6.283  12.697  0.1703  0.1093 -0.0174
52884OCT     C1 5767  21.256  12.652  18.400  0.1466  0.3858 -0.4806
52884OCT     C2 5768  20.955  12.736  18.727  0.0837  0.0054 -0.1436
52885OCT     C1 5769  20.743  22.468   2.803  0.5226  0.5678  0.2016
52885OCT     C2 5770  21.015  22.757   2.998 -0.1868 -0.1769 -0.3631
52886OCT     C1 5771   2.279  20.591  21.530  0.3465 -0.0375  0.2247
52886OCT     C2 5772   2.559  20.570  21.892 -0.2961 -0.0938  0.0327
52887OCT     C1 5773   8.273   5.942  13.152 -0.1053  0.3141 -0.2092
52887OCT     C2 5774   8.132   5.886  12.731 -0.3857  0.3313  0.1336
52888OCT     C1 5775  21.159   4.361  16.565 -0.1077  0.1838  0.0856
52888OCT     C2 5776  21.217   4.164  17.028  0.2243  0.3536  0.2388
52889OCT     C1 5777  22.592  22.185  12.145 -0.0275  0.0979  0.1044
52889OCT     C2 5778  22.267  22.439  12.161 -0.1626 -0.1431 -0.0681
52890OCT     C1 5779   8.640  23.517   1.174  0.0104  0.0121  0.0379
52890OCT     C2 5780   8.513  23.094   1.199 -0.3894  0.3829 -0.0490
52891OCT     C1 5781   3.052   3.098   8.879  0.1620  0.1588  0.0438
52891OCT     C2 5782   3.330   2.970   8.487 -0.0711  0.1065 -0.0533
52892OCT     C1 5783   5.181  22.467   7.703 -0.0375  0.2716  0.1707
52892OCT     C2 5784   5.510  22.756   7.582 -0.1766  0.0083 -0.4365
52893OCT     C1 5785  23.084   1.319   4.847 -0.4203  0.3574 -0.0345
52893OCT     C2 5786  22.931   1.372   5.301 -0.0780  0.2454 -0.0240
52894OCT     C1 5787   5.960  14.107  23.418  0.3284 -0.0477 -0.0647
52894OCT     C2 5788   6.417  14.045  23.468 -0.2332  0.1123 -0.1310
52895OCT     C1 5789   6.824  23.733   5.549 -0.0672 -0.1395  0.4290
52895OCT     C2 5790   6.332  23.722   5.596 -0.1328 -0.1507 -0.2901
52896OCT     C1 5791  16.048  22.225  19.807 -0.1274  0.2049 -0.0384
52896OCT     C2 5792  15.868  22.624  19.939  0.1082 -0.2493  0.2423
52897OCT     C1 5793   0.162   0.730  22.644  0.2381 -0.1340 -0.2519
52897OCT     C2 5794  23.556   0.493  22.711 -0.0894 -0.2253  0.3022
52898OCT     C1 5795   3.814  22.790  16.740 -0.3421 -0.0032  0.1774
52898OCT     C2 5796   3.928  22.972  16.317 -0.1054 -0.0008  0.0433
52899OCT     C1 5797  10.251  10.316  10.253  0.0328 -0.3044 -0.0644
52899OCT     C2 5798   9.814  10.403  10.248 -0.1059 -0.0771  0.4405
52900OCT     C1 5799  12.381  17.535   6.528  0.1466  0.1640 -0.2297
52900OCT     C2 5800  12.404  17.260   6.083 -0.1333  0.0747 -0.1999
52901OCT     C1 5801  15.999  14.078   8.025 -0.4996 -0.1033 -0.2073
52901OCT     C2 5802  15.758  13.724   8.174 -0.3834  0.2075 -0.1913
52902OCT     C1 5803  11.128   3.640  11.722 -0.2080  0.2381  0.1831
52902OCT     C2 5804  10.690   3.673  11.888 -0.1229  0.4412 -0.3009
52903OCT     C1 5805  16.679  19.565  20.534  0.3395  0.0029 -0.1842
52903OCT     C2 5806  16.926  19.274  20.530  0.1849 -0.0367  0.2160
52904OCT     C1 5807  19.146  21.616   3.007  0.0925  0.0788  0.3358
52904OCT     C2 5808  19.475  21.859   3.296 -0.0504 -0.0070  0.1273
52905OCT     C1 5809   9.273  14.543  21.680  0.1831  0.0222  0.0349
52905OCT     C2 5810   9.468  14.090  21.888 -0.2724 -0.3315  0.0491
52906OCT     C1 5811   7.382   1.605   4.309 -0.3180  0.1450 -0.2032
52906OCT     C2 5812   7.336   2.043   4.136 -0.1595  0.1817  0.5158
52907OCT     C1 5813   5.493   5.464   0.400  0.1585  0.2178 -0.2380
52907OCT     C2 5814   5.206   5.641   0.683  0.2752 -0.1959  0.1060
52908OCT     C1 5815   7.269  13.032   3.082 -0.2265 -0.1057 -0.0490
52908OCT     C2 5816   7.613  13.102   3.333  0.0844 -0.3913 -0.4095
52909OCT     C1 5817  14.701   2.224   9.882 -0.2163 -0.0568 -0.0504
52909OCT     C2 5818  15.183   2.205   9.893 -0.0016  0.1676 -0.1508
52910OCT     C1 5819   0.041  18.042   5.140 -0.2251  0.0317 -0.0200
52910OCT     C2 5820   0.296  18.324   5.368  0.0785 -0.0456 -0.1933
52911OCT     C1 5821  17.660  17.229   0.722 -0.2064  0.0190  0.0659
52911OCT     C2 5822  17.205  17.357   0.714  0.0916 -0.1059 -0.0210
52912OCT     C1 5823  17.568  14.618  12.004  0.2741  0.1328 -0.0906
52912OCT     C2 5824  17.921  14.258  11.954 -0.1546  0.1345 -0.1034
52913OCT     C1 5825  22.400   2.787   9.313  0.0433  0.1501  0.3574
52913OCT     C2 5826  22.455   3.242   9.397  0.1016  0.3625  0.2023
52914OCT     C1 5827  18.377  20.102  15.196 -0.3577  0.0946  0.1031
52914OCT     C2 5828  18.043  20.038  14.837  0.0828  0.2980 -0.2292
52915OCT     C1 5829   6.129   4.954  17.649 -0.0272 -0.0498  0.1560
52915OCT     C2 5830   5.737   5.200  17.482  0.1093  0.1784 -0.1034
52916OCT     C1 5831  22.476  23.232   1.546  0.1064  0.2383  0.0487
52916OCT     C2 5832  22.909  23.245   1.491 -0.2172 -0.0677  0.1539
52917OCT     C1 5833   6.749   3.296  23.258 -0.1891  0.2123 -0.0004
52917OCT     C2 5834   6.470   2.917  23.443 -0.2811 -0.0674  0.2421
52918OCT     C1 5835  20.537   5.365   0.558 -0.0896  0.0601 -0.0324
52918OCT     C2 5836  20.226   5.375   0.212 -0.2029  0.0280  0.0696
52919OCT     C1 5837  12.555  23.308   2.178 -0.3165  0.0605 -0.0898
52919OCT     C2 5838  12.514   0.008   2.109 -0.1431 -0.1880 -0.2868
52920OCT     C1 5839  12.171  20.295  16.702  0.4392 -0.1192 -0.3420
52920OCT     C2 5840  12.483  19.969  16.779 -0.1536  0.1835 -0.0334
52921OCT     C1 5841   6.285  11.408  23.306  0.3616  0.2351  0.2622
52921OCT     C2 5842   6.143  11.417   0.049  0.3414  0.1569 -0.0842
52922OCT     C1 5843  19.030   9.250   5.799  0.1806  0.3416 -0.1539
52922OCT     C2 5844  18.693   8.923   5.682  0.2172  0.1056 -0.0796
52923OCT     C1 5845  20.320  16.213   9.494 -0.0222 -0.0745  0.0024
52923OCT     C2 5846  20.000  15.878   9.455 -0.0030 -0.1720 -0.2823
52924OCT     C1 5847  21.138  22.319   7.176 -0.0605  0.0177  0.2094
52924OCT     C2 5848  20.929  22.108   7.544 -0.0302 -0.0743 -0.0966
52925OCT     C1 5849  10.353  15.106   3.312  0.2000 -0.0463  0.1429
52925OCT     C2 5850   9.903  15.165   3.298 -0.1687 -0.0455  0.1070
52926OCT     C1 5851   6.040   6.775  20.844  0.2662  0.1973  0.0714
52926OCT     C2 5852   5.830   6.932  21.217 -0.0335  0.3008  0.0728
52927OCT     C1 5853  11.355  12.692   0.016  0.0766 -0.1788 -0.4431
52927OCT     C2 5854  11.797  12.510   0.055 -0.1147 -0.0959  0.1829
52928OCT     C1 5855   0.184   4.638   6.843  0.2084 -0.1401  0.0360
52928OCT     C2 5856   0.009   4.279   7.153 -0.0032 -0.0354 -0.2659
52929OCT     C1 5857   4.956  14.255  13.322  0.2180  0.1749 -0.0489
52929OCT     C2 5858   4.781  14.047  13.707 -0.1264 -0.1448 -0.1241
52930OCT     C1 5859  13.698  20.264   4.997 -0.1765 -0.0141  0.0839
52930OCT     C2 5860  13.487  20.426   5.407  0.2434  0.3402 -0.0331
52931OCT     C1 5861   8.689  12.089  15.187 -0.0540 -0.0184  0.2635
52931OCT     C2 5862   8.522  11.860  15.561  0.1602  0.0229 -0.1385
52932OCT     C1 5863   9.003   1.706  11.091  0.4851  0.0678  0.1072
52932OCT     C2 5864   9.332   1.456  11.355 -0.0709 -0.3368  0.1299
52933OCT     C1 5865   1.143   9.878   9.856 -0.3593  0.0814  0.1129
52933OCT     C2 5866   1.218   9.404   9.844 -0.0143 -0.0910  0.2150
52934OCT     C1 5867  18.451   9.747  12.905  0.1444  0.3767 -0.1259
52934OCT     C2 5868  18.908   9.703  12.838  0.1903 -0.2843  0.1586
52935OCT     C1 5869  10.410   5.018  10.448 -0.0856  0.0701  0.0776
52935OCT     C2 5870   9.991   4.951  10.485 -0.3813  0.0361  0.2257
52936OCT     C1 5871  22.188   6.780  17.598  0.1806 -0.1376 -0.0195
52936OCT     C2 5872  22.550   6.937  17.775 -0.1277 -0.0817 -0.0832
52937OCT     C1 5873   8.670  22.880  13.452 -0.1969  0.3096  0.4802
52937OCT     C2 5874   8.881  23.320  13.455 -0.1337 -0.3056  0.4388
52938OCT     C1 5875  11.460  19.660  16.470 -0.1479 -0.0531  0.1209
52938OCT     C2 5876  11.662  19.242  16.519  0.2598 -0.3416 -0.1390
52939OCT     C1 5877  16.330  13.711  18.091 -0.4599  0.3711 -0.1365
52939OCT     C2 5878  15.875  13.781  17.994  0.2467 -0.2004  0.0021
52940OCT     C1 5879  20.930   2.286   1.651  0.2934  0.3234  0.2364
52940OCT     C2 5880  21.326   2.212   1.375 -0.2900  0.0880 -0.0280
52941OCT     C1 5881  23.687   6.172  16.999 -0.2137 -0.1853 -0.0235
52941OCT     C2 5882   0.029   5.770  17.130  0.2925 -0.1801  0.2380
52942OCT     C1 5883   0.616  10.119   5.034 -0.1183 -0.1647  0.1700
52942OCT     C2 5884   0.339  10.076   4.656 -0.0313  0.2072 -0.1448
52943OCT     C1 5885   1.327  10.234   3.221 -0.0197 -0.3147  0.1851
52943OCT     C2 5886   1.126  10.441   2.860  0.1164  0.0145 -0.0148
52944OCT     C1 5887   4.017   4.703   7.502  0.0568 -0.1362 -0.2824
52944OCT     C2 5888   3.739   5.118   7.495  0.3520  0.1271  0.1641
52945OCT     C1 5889  20.047   3.266  16.802 -0.0997 -0.1260 -0.2504
52945OCT     C2 5890  20.103   2.826  16.878  0.3733  0.0373 -0.1430
52946OCT     C1 5891   5.637  12.458  12.803  0.0835  0.1715  0.0961
52946OCT     C2 5892   5.978  12.156  12.791  0.1731 -0.1295  0.0750
52947OCT     C1 5893   6.814   8.218  10.559  0.2524  0.3393  0.1455
52947OCT     C2 5894   6.481   8.191  10.251 -0.1637 -0.1678  0.0140
52948OCT     C1 5895  18.509  21.300  13.516 -0.2043 -0.3407  0.0506
52948OCT     C2 5896  18.205  20.960  13.360  0.0172  0.0898  0.3882
52949OCT     C1 5897  23.083  21.835  20.779 -0.0696 -0.1579  0.3077
52949OCT     C2 5898  22.766  21.808  20.439 -0.0600  0.4506 -0.0209
52950OCT     C1 5899  19.363  10.354  16.186  0.1638 -0.1218 -0.1002
52950OCT     C2 5900  18.925  10.383  15.941 -0.2388 -0.0478 -0.0057
52951OCT     C1 5901   7.202  12.798  12.745 -0.0377  0.3888  0.1300
52951OCT     C2 5902   7.017  12.411  12.576 -0.5161 -0.3210 -0.0300
52952OCT     C1 5903  17.233   4.034  17.355 -0.1299  0.1414 -0.0146
52952OCT     C2 5904  17.669   4.127  17.231  0.3836 -0.4833  0.3806
52953OCT     C1 5905  15.764  22.323   6.817  0.1057  0.2332 -0.3926
52953OCT     C2 5906  16.144  22.474   6.639 -0.0331  0.3047  0.0484
52954OCT     C1 5907   7.025   2.540  10.846 -0.0423  0.0042  0.1111
52954OCT     C2 5908   6.998   2.547  11.337  0.3067 -0.2105  0.5365
52955OCT     C1 5909   4.386  13.167   7.194 -0.0658 -0.0489 -0.0625
52955OCT     C2 5910   4.344  13.369   6.759 -0.3669 -0.1726 -0.1530
52956OCT     C1 5911  14.114  19.281  16.734 -0.2792  0.0238  0.1904
52956OCT     C2 5912  14.401  19.080  16.409  0.2397 -0.1637  0.1849
52957OCT     C1 5913  12.486   1.006  17.647 -0.1593  0.0924  0.0234
52957OCT     C2 5914  12.128   0.933  17.466 -0.0690  0.2377 -0.4651
52958OCT     C1 5915  15.557   2.995  18.309 -0.2579  0.4054  0.0289
52958OCT     C2 5916  15.082   3.021  18.420  0.0492  0.4563  0.0182
52959OCT     C1 5917  17.256   6.472  21.091  0.1634 -0.2344 -0.0825
52959OCT     C2 5918  17.291   6.377  21.556  0.1710  0.2726  0.0244
52960OCT     C1 5919   5.180  18.392  22.577 -0.0607  0.1401 -0.3122
52960OCT     C2 5920   4.928  18.168  22.911 -0.0692  0.3612 -0.2139
52961OCT     C1 5921  11.606  16.102  15.482 -0.6204  0.0617 -0.1805
52961OCT     C2 5922  11.924  16.271  15.689 -0.3914 -0.4058 -0.0606
52962OCT     C1 5923   3.818   0.236  16.236 -0.1492 -0.1455  0.1667
52962OCT     C2 5924   3.555   0.274  16.612 -0.2060 -0.0614  0.2048
52963OCT     C1 5925  17.075   0.235   3.015 -0.0982 -0.2624  0.0855
52963OCT     C2 5926  17.355   0.670   3.153  0.0817  0.0437  0.3875
52964OCT     C1 5927   2.949  18.033   7.481  0.1058  0.2150  0.0050
52964OCT     C2 5928   3.017  17.917   7.022  0.0758 -0.0829  0.2258
52965OCT     C1 5929  13.685   4.653   0.218 -0.1956 -0.0656  0.1822
52965OCT     C2 5930  13.790   4.344   0.544  0.0793  0.1921  0.0874
52966OCT     C1 5931   7.674  22.795   7.919 -0.0758  0.0652  0.1640
52966OCT     C2 5932   7.698  22.484   8.264 -0.2193 -0.3180  0.1663
52967OCT     C1 5933  13.578  18.794   0.846 -0.0679  0.3314 -0.0695
52967OCT     C2 5934  13.511  19.189   0.571 -0.1705  0.1059 -0.0629
52968OCT     C1 5935   1.985   1.092   8.694  0.1535  0.1881  0.0712
52968OCT     C2 5936   1.566   1.314   8.552 -0.4875 -0.0555  0.0512
52969OCT     C1 5937   7.055   6.616  20.493 -0.1159 -0.1746 -0.1524
52969OCT     C2 5938   7.483   6.756  20.717  0.1003  0.0029 -0.2459
52970OCT     C1 5939  14.390   9.846   4.933  0.1172 -0.1943 -0.4534
52970OCT     C2 5940  14.151   9.879   4.510  0.2375 -0.0303 -0.1448
52971OCT     C1 5941   3.424  22.574  12.041 -0.2304 -0.2577 -0.1202
52971OCT     C2 5942   3.589  22.694  12.453 -0.0464 -0.0989 -0.1752
52972OCT     C1 5943   1.916   3.835   4.531  0.2737 -0.0697 -0.2120
52972OCT     C2 5944   1.758   3.827   4.066  0.4102 -0.2045  0.1549
52973OCT     C1 5945  11.019   2.593  12.388 -0.3716 -0.2036 -0.0295
52973OCT     C2 5946  11.257   2.881  12.080  0.1640  0.2115  0.1738
52974OCT     C1 5947  21.176  14.315  14.894  0.1623 -0.2078 -0.2448
52974OCT     C2 5948  21.619  14.306  14.726 -0.2070  0.5008 -0.0203
52975OCT     C1 5949  18.840   8.538  11.023  0.1426 -0.1202  0.0024
52975OCT     C2 5950  18.598   8.190  11.052  0.2557  0.1258  0.3451
52976OCT     C1 5951   2.426  17.786  14.569  0.0498  0.0421 -0.3045
52976OCT     C2 5952   2.447  17.312  14.615  0.0108  0.2672 -0.1388
52977OCT     C1 5953  20.690  20.985   6.610 -0.1371  0.2011  0.4100
52977OCT     C2 5954  20.753  21.476   6.532 -0.0441 -0.0170 -0.1478
52978OCT     C1 5955  17.351  16.206  22.579 -0.2391 -0.2906  0.1346
52978OCT     C2 5956  17.376  16.622  22.349 -0.1313  0.0461  0.1608
52979OCT     C1 5957  20.554   7.593  18.056 -0.1949  0.1448  0.1586
52979OCT     C2 5958  20.718   7.975  18.266  0.1916 -0.1332 -0.1466
52980OCT     C1 5959   2.332  20.089  17.607 -0.1250  0.1805  0.3048
52980OCT     C2 5960   2.720  20.188  17.871 -0.1602 -0.0085  0.4053
52981OCT     C1 5961  23.011  22.409  13.197 -0.3679  0.0093  0.2177
52981OCT     C2 5962  22.927  22.823  13.469  0.0057  0.0279  0.2041
52982OCT     C1 5963  18.995   7.928  19.680 -0.2509  0.3047 -0.2349
52982OCT     C2 5964  19.067   8.302  19.502  0.1015 -0.2454  0.0028
52983OCT     C1 5965  20.681  21.248  16.738  0.0788 -0.0810 -0.0220
52983OCT     C2 5966  21.031  21.005  16.546 -0.1110  0.1471  0.5739
52984OCT     C1 5967  18.947   7.014  22.656  0.4189 -0.0505 -0.3789
52984OCT     C2 5968  18.497   7.067  22.739  0.0287 -0.1296 -0.4961
52985OCT     C1 5969   7.540   1.169   1.051 -0.2351 -0.2757  0.5606
52985OCT     C2 5970   7.584   1.612   1.216 -0.0800 -0.1615 -0.1413
52986OCT     C1 5971  20.888   0.177  19.022  0.1597 -0.2304 -0.0429
52986OCT     C2 5972  21.177   0.002  19.308 -0.0239 -0.0676  0.2334
52987OCT     C1 5973   6.512   9.225   9.313 -0.2576  0.3254 -0.1108
52987OCT     C2 5974   6.507   8.936   9.701 -0.0563  0.0622  0.0668
52988OCT     C1 5975  13.683  22.248   5.039  0.0795  0.1497  0.3706
52988OCT     C2 5976  13.271  22.093   4.878  0.4319 -0.2992  0.0923
52989OCT     C1 5977  12.078   8.081  20.011  0.0749  0.4502 -0.1201
52989OCT     C2 5978  11.666   7.860  19.913 -0.1158  0.0411  0.0473
52990OCT     C1 5979   0.290  18.645  17.650  0.0144  0.1244 -0.0542
52990OCT     C2 5980   0.683  18.401  17.461 -0.3019 -0.0549  0.0290
52991OCT     C1 5981   3.667  11.714   1.132 -0.3356  0.0658 -0.3392
52991OCT     C2 5982   4.061  11.977   1.245 -0.0562 -0.1416 -0.3587
52992OCT     C1 5983  20.154  15.479  23.284  0.0108 -0.2065 -0.0179
52992OCT     C2 5984  20.127  15.249  23.663  0.2064  0.2368 -0.1772
52993OCT     C1 5985  15.237  21.597   2.274  0.0410  0.2389 -0.1896
52993OCT     C2 5986  15.345  21.235   1.976  0.0547 -0.2444  0.1932
52994OCT     C1 5987  12.502  12.603  21.844  0.0336  0.0260 -0.0629
52994OCT     C2 5988  12.422  12.413  21.461  0.1639 -0.0085  0.1480
52995OCT     C1 5989  14.120  19.793  21.749 -0.0425  0.0436 -0.2235
52995OCT     C2 5990  13.911  20.202  21.984 -0.0095 -0.0543 -0.3311
52996OCT     C1 5991   5.232   7.025  12.225 -0.0263  0.5040 -0.1882
52996OCT     C2 5992   5.677   7.158  12.243  0.0550  0.2736 -0.1614
52997OCT     C1 5993  14.866  11.218   0.961 -0.3023 -0.1300 -0.0769
52997OCT     C2 5994  14.736  11.123   1.395  0.1089  0.2762 -0.2139
52998OCT     C1 5995   9.548   1.838  21.046  0.0799  0.2998 -0.1468
52998OCT     C2 5996   9.931   1.826  20.736 -0.1182 -0.1246  0.1476
52999OCT     C1 5997  11.019  20.442   7.285  0.4282 -0.4175  0.1097
52999OCT     C2 5998  10.621  20.667   7.318 -0.0780  0.4131  0.1952
53000OCT     C1 5999   5.287  20.199   2.636  0.0251 -0.0708 -0.0082
53000OCT     C2 6000   5.445  20.590   2.395 -0.0037  0.3666  0.0206
53001OCT     C1 6001  21.771   7.981  13.434 -0.1147 -0.2547 -0.0845
53001OCT     C2 6002  22.072   7.631  13.597 -0.1986 -0.0947  0.1528
53002OCT     C1 6003  11.573  21.721  10.134  0.1830  0.1497  0.1964
53002OCT     C2 6004  11.721  21.899  10.543 -0.0878  0.0206  0.2186
53003OCT     C1 6005  12.891  10.716  14.454  0.1005  0.1237  0.2479
53003OCT     C2 6006  12.532  10.745  14.739  0.0759  0.0143 -0.3730
53004OCT     C1 6007   4.410  17.857   0.726 -0.2018 -0.1221 -0.1636
53004OCT     C2 6008   4.605  18.270   0.515  0.1078  0.4075 -0.0420
53005OCT     C1 6009  19.009   9.368   7.443  0.0654 -0.1581 -0.1529
53005OCT     C2 6010  19.425   9.433   7.282  0.0804 -0.0972 -0.1358
53006OCT     C1 6011  20.801  23.121   3.358  0.0447 -0.2332  0.1661
53006OCT     C2 6012  20.819  23.302   3.775  0.2072  0.1558  0.2771
53007OCT     C1 6013  22.839  21.602   6.083 -0.0540  0.0512  0.1618
53007OCT     C2 6014  22.652  21.237   6.170  0.1707 -0.0225 -0.0630
53008OCT     C1 6015  20.875   7.776  20.775 -0.0556  0.1309 -0.0766
53008OCT     C2 6016  20.754   7.860  21.239 -0.2194 -0.0678  0.3322
53009OCT     C1 6017   5.717  13.466   3.254 -0.2660  0.3468 -0.0637
53009OCT     C2 6018   5.942  13.729   2.922 -0.1686 -0.2132  0.4240
53010OCT     C1 6019  13.680  16.878  11.991 -0.2496 -0.0321 -0.0782
53010OCT     C2 6020  13.181  16.823  12.144 -0.2472 -0.0018 -0.0243
53011OCT     C1 6021  16.683  19.827  23.597 -0.0935  0.3080  0.1419
53011OCT     C2 6022  16.329  20.197  23.576 -0.0471  0.1210 -0.3333
53012OCT     C1 6023  10.352  15.342   6.233  0.2144  0.4706 -0.2736
53012OCT     C2 6024  10.293  15.758   6.010 -0.2186 -0.1742 -0.1094
53013OCT     C1 6025   2.279   6.319  23.338  0.5108  0.0722 -0.1112
53013OCT     C2 6026   2.173   5.878  23.249  0.5326 -0.0186 -0.0673
53014OCT     C1 6027  23.017   8.186   0.339  0.0934 -0.2348 -0.2098
53014OCT     C2 6028  22.725   8.436   0.120 -0.0939 -0.1226 -0.4213
53015OCT     C1 6029  19.183  23.316  21.638  0.2013 -0.0616 -0.1108
53015OCT     C2 6030  19.010  23.033  21.311 -0.4287 -0.4144 -0.1453
53016OCT     C1 6031   0.958  17.476   9.307  0.4200  0.0426  0.0135
53016OCT     C2 6032   0.504  17.533   9.227  0.1200 -0.2761  0.0466
53017OCT     C1 6033   6.145   3.194  13.209 -0.2621 -0.0690 -0.0170
53017OCT     C2 6034   6.350   3.553  13.443 -0.3054 -0.0628 -0.1908
53018OCT     C1 6035  18.976   0.838  19.285 -0.1134 -0.0063  0.2175
53018OCT     C2 6036  19.179   0.500  19.001  0.2414  0.0211  0.0029
53019OCT     C1 6037  22.222  18.199  11.371  0.0071  0.2529 -0.1386
53019OCT     C2 6038  22.283  18.024  11.857  0.1792 -0.0983  0.0756
53020OCT     C1 6039  16.593   4.792   4.051  0.2075  0.0904  0.1064
53020OCT     C2 6040  16.872   4.616   3.788  0.0408  0.1882  0.1833
53021OCT     C1 6041   3.545  15.061  20.705  0.2510 -0.2220 -0.1483
53021OCT     C2 6042   3.458  15.532  20.691  0.3277 -0.2803  0.4039
53022OCT     C1 6043  17.273   1.041  11.278  0.0966 -0.1231 -0.0979
53022OCT     C2 6044  16.992   0.631  11.393  0.2533 -0.2079  0.2358
53023OCT     C1 6045  18.117   8.567   5.157  0.2070 -0.0417 -0.1882
53023OCT     C2 6046  18.139   8.888   5.528 -0.0727  0.0337 -0.0192
53024OCT     C1 6047   9.462  22.176   4.031 -0.1323  0.3177  0.1373
53024OCT     C2 6048   9.873  22.137   4.233  0.0686  0.1246  0.0876
53025OCT     C1 6049  19.957  19.119  23.140  0.0485  0.0188 -0.3387
53025OCT     C2 6050  20.388  18.991  23.197 -0.0789  0.1920  0.3343
53026OCT     C1 6051  11.420  16.467  17.341  0.2907 -0.0961  0.1581
53026OCT     C2 6052  11.074  16.292  17.545  0.4512  0.1892  0.4529
53027OCT     C1 6053  23.384  10.515   8.513 -0.1104  0.1683  0.0532
53027OCT     C2 6054   0.057  10.564   8.269  0.1489  0.1165 -0.0694
53028OCT     C1 6055   4.776   4.869   3.791  0.0881  0.2007  0.0835
53028OCT     C2 6056   4.291   4.877   3.903 -0.3087  0.0677 -0.0832
53029OCT     C1 6057  19.845   9.037  22.122  0.1566 -0.1358  0.0472
53029OCT     C2 6058  19.940   9.274  21.740 -0.0870  0.9324  0.0111
53030OCT     C1 6059  17.671  19.493  11.334 -0.3417  0.1862 -0.0472
53030OCT     C2 6060  17.412  19.846  11.154  0.0078  0.0200  0.2273
53031OCT     C1 6061   5.638  20.170  16.090 -0.2143 -0.1074  0.0220
53031OCT     C2 6062   5.823  20.586  16.066  0.1813  0.1290  0.2649
53032OCT     C1 6063   1.742  13.461  17.391  0.1692 -0.0346 -0.3227
53032OCT     C2 6064   1.899  13.038  17.366  0.0371 -0.2432 -0.0854
53033OCT     C1 6065  22.034  11.469   5.039  0.2077  0.0625 -0.0240
53033OCT     C2 6066  22.015  11.565   4.510 -0.0754 -0.0854  0.0300
53034OCT     C1 6067  14.020  16.851   2.797 -0.1568 -0.0133  0.2074
53034OCT     C2 6068  13.625  16.849   3.037 -0.1814 -0.0009  0.1616
53035OCT     C1 6069  16.724  18.887   3.594  0.1884  0.0063  0.3067
53035OCT     C2 6070  16.259  19.007   3.479 -0.3109 -0.0786  0.0288
53036OCT     C1 6071  13.171   8.205   1.674 -0.1131 -0.0559 -0.0209
53036OCT     C2 6072  12.856   8.546   1.577 -0.6577 -0.2705  0.2238
53037OCT     C1 6073  10.935  18.080  10.038 -0.1461 -0.0323 -0.2474
53037OCT     C2 6074  11.057  18.127  10.510 -0.1771  0.3101  0.3233
53038OCT     C1 6075   2.599   4.231  23.571  0.2146 -0.1743  0.7522
53038OCT     C2 6076   2.248   4.514  23.366 -0.0764  0.0122  0.0269
53039OCT     C1 6077  15.399  13.732  21.144 -0.0275  0.1412  0.0611
53039OCT     C2 6078  15.780  13.477  20.963  0.3086 -0.0729  0.2872
53040OCT     C1 6079   2.068  14.686   9.847  0.1015  0.1842  0.0608
53040OCT     C2 6080   2.103  14.649   9.389  0.3916  0.0588  0.0353
53041OCT     C1 6081  12.097  20.670   0.818  0.2112  0.0960 -0.1217
53041OCT     C2 6082  11.705  20.656   1.109 -0.0696  0.2825  0.0800
53042OCT     C1 6083  19.050  20.287  17.763 -0.2643 -0.2847 -0.0622
53042OCT     C2 6084  18.965  20.671  17.550 -0.3075 -0.1801  0.1137
53043OCT     C1 6085   6.784  16.820  14.636 -0.2420 -0.1329 -0.3745
53043OCT     C2 6086   7.300  16.841  14.662  0.2617  0.0798 -0.1085
53044OCT     C1 6087  20.653  12.051   6.635  0.0231 -0.0997  0.1621
53044OCT     C2 6088  20.444  11.681   6.365  0.3125 -0.0625 -0.4677
53045OCT     C1 6089  10.220  22.403  11.096 -0.2123 -0.0363  0.2051
53045OCT     C2 6090  10.439  22.083  10.834 -0.0181 -0.0773 -0.4384
53046OCT     C1 6091  22.229   2.516   6.102 -0.0523 -0.0228  0.2944
53046OCT     C2 6092  22.556   2.853   6.130  0.1056 -0.0965  0.3191
53047OCT     C1 6093   4.427   0.937  18.972  0.1088 -0.0124  0.1227
53047OCT     C2 6094   4.491   0.655  19.395 -0.1109  0.0360 -0.1988
53048OCT     C1 6095   3.278   3.894   0.146 -0.2807  0.1119  0.2256
53048OCT     C2 6096   3.231   3.526   0.381  0.1220 -0.3347  0.0020
53049OCT     C1 6097   1.438   6.009  21.279 -0.1221  0.0371 -0.0824
53049OCT     C2 6098   1.755   5.859  20.905  0.1349 -0.0264 -0.0969
53050OCT     C1 6099   0.641  22.329   8.732  0.0552 -0.0194 -0.0993
53050OCT     C2 6100   0.601  22.136   9.188 -0.2162  0.0964 -0.1978
53051OCT     C1 6101  15.173  15.069  18.328 -0.5111  0.1793 -0.1361
53051OCT     C2 6102  15.211  15.321  18.688  0.1252 -0.0055 -0.1079
53052OCT     C1 6103  19.842  11.815   3.344  0.0320 -0.2689  0.2635
53052OCT     C2 6104  19.907  11.953   2.931  0.0033 -0.4863  0.0717
53053OCT     C1 6105  12.509   3.898  12.869 -0.1594  0.3183  0.0931
53053OCT     C2 6106  12.799   3.531  12.824 -0.1912 -0.2786  0.1475
53054OCT     C1 6107  11.371   8.936  17.098 -0.1382  0.1321 -0.1245
53054OCT     C2 6108  11.771   9.207  17.026 -0.0931 -0.1245  0.1047
53055OCT     C1 6109   7.073  22.924   4.935 -0.2444  0.2355 -0.0335
53055OCT     C2 6110   7.438  23.066   4.688  0.3322  0.1920  0.0459
53056OCT     C1 6111  17.815  13.645   8.517  0.3564  0.5280  0.2026
53056OCT     C2 6112  17.970  13.258   8.675  0.4551 -0.1278  0.1163
53057OCT     C1 6113  16.048   0.144   1.769 -0.2949  0.2273 -0.3982
53057OCT     C2 6114  16.049  23.685   2.225 -0.3426 -0.2855 -0.2428
53058OCT     C1 6115  18.813  18.682  17.063 -0.0579  0.1047  0.2259
53058OCT     C2 6116  19.194  18.956  17.166 -0.3630  0.2643 -0.1543
53059OCT     C1 6117  11.925  15.295   8.904 -0.0758  0.2631 -0.0227
53059OCT     C2 6118  12.179  15.351   8.514  0.1378  0.0066 -0.4337
53060OCT     C1 6119  16.619   1.365   5.482 -0.0668 -0.3396 -0.0026
53060OCT     C2 6120  16.535   0.923   5.556  0.1282 -0.0298 -0.1674
53061OCT     C1 6121   9.733  13.422  17.834 -0.4640  0.2334  0.0840
53061OCT     C2 6122  10.055  13.135  17.686 -0.3994 -0.0141 -0.2171
53062OCT     C1 6123  16.751   2.231   7.383  0.1375  0.0362  0.0351
53062OCT     C2 6124  17.151   2.318   7.565 -0.1435  0.3794 -0.3773
53063OCT     C1 6125  18.179  11.479  19.675  0.2464  0.0306  0.0458
53063OCT     C2 6126  17.815  11.601  19.384  0.1566 -0.1332 -0.0301
53064OCT     C1 6127   9.645   9.206   8.260  0.4009 -0.0539 -0.0862
53064OCT     C2 6128  10.008   9.465   8.317 -0.0402 -0.0551  0.1867
53065OCT     C1 6129  20.365   7.635  19.549 -0.1275 -0.1844  0.2165
53065OCT     C2 6130  20.746   7.493  19.385 -0.6162  0.2381  0.0073
53066OCT     C1 6131  17.850  15.778  13.213  0.2361 -0.0178  0.0699
53066OCT     C2 6132  18.099  15.934  12.875  0.1733  0.1394  0.1882
53067OCT     C1 6133  21.433  22.167   6.832  0.0401 -0.3606 -0.0612
53067OCT     C2 6134  21.248  21.837   7.150  0.2394  0.1757 -0.3780
53068OCT     C1 6135  11.446  16.425  20.774  0.1506 -0.0976  0.1931
53068OCT     C2 6136  11.165  16.120  21.035 -0.3243  0.4368 -0.0415
53069OCT     C1 6137  14.527  13.559   9.583  0.2775 -0.7222 -0.1729
53069OCT     C2 6138  14.213  13.293   9.316 -0.0163  0.1883  0.1617
53070OCT     C1 6139   8.911  13.934   7.879 -0.0222  0.1967  0.0704
53070OCT     C2 6140   8.523  13.873   7.615  0.1775 -0.3090  0.1446
53071OCT     C1 6141  18.449   8.669   9.439 -0.1337 -0.0529 -0.4619
53071OCT     C2 6142  18.711   8.978   9.185 -0.2511 -0.3379 -0.1104
53072OCT     C1 6143   5.499   6.480  19.538  0.1032  0.1952 -0.0302
53072OCT     C2 6144   5.428   6.017  19.300 -0.3864 -0.1869  0.0632
53073OCT     C1 6145   0.301   1.909  11.052  0.1092 -0.3354  0.3827
53073OCT     C2 6146  23.675   1.956  11.363 -0.1026  0.2077 -0.2378
53074OCT     C1 6147  10.438  13.331   3.255  0.1939 -0.0144 -0.3232
53074OCT     C2 6148  10.195  12.900   3.271 -0.0572 -0.2010  0.0990
53075OCT     C1 6149  22.901   1.605   1.649 -0.1358 -0.0054  0.2326
53075OCT     C2 6150  23.346   1.426   1.759 -0.0107 -0.0761 -0.1427
53076OCT     C1 6151  19.814  14.257  15.746 -0.1035  0.1681 -0.1933
53076OCT     C2 6152  19.469  14.021  15.626 -0.1647  0.3247  0.0700
53077OCT     C1 6153  16.030  20.213   6.167 -0.0717 -0.1579 -0.1326
53077OCT     C2 6154  15.686  20.239   5.856 -0.2458  0.3886 -0.1694
53078OCT     C1 6155  16.498   6.491   8.916  0.0907  0.0060  0.0263
53078OCT     C2 6156  16.585   6.883   9.120  0.2810  0.1337 -0.1475
53079OCT     C1 6157  17.902  12.766   8.844  0.2619  0.1733 -0.4109
53079OCT     C2 6158  17.871  12.744   8.362  0.0271 -0.1710 -0.0249
53080OCT     C1 6159  23.441   1.532  21.129  0.1106  0.0307 -0.3758
53080OCT     C2 6160  23.295   1.253  21.531 -0.1675  0.2584  0.2611
53081OCT     C1 6161  23.340  21.017   5.970 -0.5087  0.0153 -0.3877
53081OCT     C2 6162  23.173  21.201   6.335 -0.1402  0.0093 -0.2890
53082OCT     C1 6163  13.668  12.976  17.325 -0.3778  0.1196  0.3488
53082OCT     C2 6164  13.907  13.388  17.183  0.1782  0.1323 -0.2463
53083OCT     C1 6165   4.698  19.256  22.445 -0.0643  0.1595  0.0926
53083OCT     C2 6166   4.327  19.000  22.629  0.2092 -0.3506 -0.0136
53084OCT     C1 6167  11.121  16.888  19.502 -0.0005  0.5251 -0.2387
53084OCT     C2 6168  11.319  17.194  19.231  0.2753  0.1850 -0.4223
53085OCT     C1 6169  17.210  12.642   7.883  0.0288 -0.3084  0.1969
53085OCT     C2 6170  16.758  12.435   7.767 -0.1940 -0.1093  0.0217
53086OCT     C1 6171  13.623  13.355   2.987 -0.3172  0.0355 -0.1992
53086OCT     C2 6172  13.393  13.003   3.063 -0.0003  0.2512  0.0532
53087OCT     C1 6173  11.532  19.821   3.002 -0.0221  0.1709  0.1273
53087OCT     C2 6174  11.212  20.047   2.756 -0.0988  0.0512  0.1511
53088OCT     C1 6175  15.077  14.906   0.871  0.1278 -0.2933  0.3789
53088OCT     C2 6176  14.799  15.024   1.219 -0.1965  0.2372  0.2005
53089OCT     C1 6177  16.432   6.928  13.692  0.5588  0.1311  0.2756
53089OCT     C2 6178  16.159   7.002  14.076 -0.0421  0.0297 -0.1375
53090OCT     C1 6179   9.209  21.818  16.179 -0.0826 -0.4039 -0.4670
53090OCT     C2 6180   8.950  22.218  16.011 -0.1679 -0.1080 -0.2403
53091OCT     C1 6181  23.457  13.899   8.799 -0.1462  0.2275 -0.0255
53091OCT     C2 6182   0.073  14.100   9.075 -0.0627 -0.0354  0.1461
53092OCT     C1 6183  20.305  20.388   0.103 -0.1040 -0.0501 -0.1577
53092OCT     C2 6184  20.102  20.749  23.711 -0.1337  0.1200 -0.2883
53093OCT     C1 6185  21.535  14.101   1.051 -0.0660 -0.2039 -0.3585
53093OCT     C2 6186  21.491  14.475   1.341 -0.0234  0.1745  0.3005
53094OCT     C1 6187  14.650   2.100  20.408  0.3866  0.0525  0.1114
53094OCT     C2 6188  14.882   2.454  20.156  0.0063 -0.0557 -0.1189
53095OCT     C1 6189  20.531  20.469  23.406 -0.2227  0.1282 -0.4043
53095OCT     C2 6190  20.197  20.152  23.333  0.0352 -0.0483 -0.0385
53096OCT     C1 6191  10.450  17.032  23.716  0.2137 -0.3189 -0.1394
53096OCT     C2 6192  10.850  16.870  23.554  0.1225  0.3277 -0.1210
53097OCT     C1 6193   6.359   7.390  13.202 -0.2519  0.1331  0.4618
53097OCT     C2 6194   6.070   6.984  13.264  0.0853  0.0482 -0.1866
53098OCT     C1 6195  16.042   6.671  14.590  0.2782  0.2194 -0.0198
53098OCT     C2 6196  16.384   6.511  14.345 -0.0616  0.1943  0.5347
53099OCT     C1 6197   3.331  15.033  18.202  0.0121  0.1442  0.0216
53099OCT     C2 6198   3.703  15.302  18.242  0.2489 -0.0377  0.2599
53100OCT     C1 6199  18.323   1.027   1.301  0.0883  0.0605 -0.0179
53100OCT     C2 6200  18.532   0.978   1.710  0.0134 -0.0439  0.0075
53101OCT     C1 6201   2.904  12.276   6.703  0.2020  0.2032 -0.1492
53101OCT     C2 6202   2.704  12.686   6.818 -0.1752  0.1313  0.3359
53102OCT     C1 6203  12.931   7.288  21.794 -0.2404  0.2627  0.0114
53102OCT     C2 6204  13.155   6.903  21.928 -0.1869 -0.0109  0.2621
53103OCT     C1 6205  11.641   5.669  10.882 -0.1100  0.3147  0.4443
53103OCT     C2 6206  11.179   5.854  10.907  0.2126  0.1251 -0.1671
53104OCT     C1 6207  11.087  16.891  18.853  0.0606  0.0364 -0.0412
53104OCT     C2 6208  11.236  17.305  18.687  0.4632 -0.4657  0.0364
53105OCT     C1 6209  10.089   0.831  20.146 -0.1146  0.0314  0.1659
53105OCT     C2 6210   9.739   1.067  20.239  0.3067 -0.3436 -0.2540
53106OCT     C1 6211   7.550  18.884   8.628 -0.0468  0.1392  0.1297
53106OCT     C2 6212   7.908  19.002   8.757 -0.1115 -0.2816  0.3283
53107OCT     C1 6213  16.451  11.958  19.332  0.3778  0.2407  0.1630
53107OCT     C2 6214  16.188  11.874  18.990  0.1710 -0.1758  0.0624
53108OCT     C1 6215  10.056   4.117   7.202 -0.4383 -0.1126  0.1732
53108OCT     C2 6216  10.525   4.046   7.294 -0.0381  0.0557  0.1955
53109OCT     C1 6217  13.149  14.258   3.887  0.0858 -0.0050 -0.2513
53109OCT     C2 6218  13.448  14.529   4.131  0.1541  0.0446  0.1717
53110OCT     C1 6219  16.426  21.388  11.090  0.0866 -0.1392 -0.2649
53110OCT     C2 6220  16.316  21.220  10.678  0.1912 -0.0283 -0.4085
53111OCT     C1 6221   4.516  19.274  16.199 -0.1393  0.2068  0.1720
53111OCT     C2 6222   4.526  18.865  16.382  0.3006  0.2492 -0.0885
53112OCT     C1 6223  15.534  13.267  13.233 -0.0738  0.5406 -0.2328
53112OCT     C2 6224  15.119  13.564  13.241  0.1872 -0.0617  0.1311
53113OCT     C1 6225   9.680  11.173   0.500 -0.5198  0.2170  0.1011
53113OCT     C2 6226   9.458  11.499   0.190  0.1678 -0.0523  0.0327
53114OCT     C1 6227   4.620   2.289  12.315  0.0926 -0.2478  0.2604
53114OCT     C2 6228   4.225   2.170  12.501  0.2421 -0.0812 -0.1223
53115OCT     C1 6229  15.931   5.033  12.638 -0.1343 -0.1195 -0.3922
53115OCT     C2 6230  16.332   4.792  12.754 -0.1340  0.0101 -0.3998
53116OCT     C1 6231  21.095  12.014   2.079 -0.1420 -0.2795  0.1653
53116OCT     C2 6232  20.737  11.684   2.133  0.1485 -0.0442  0.0326
53117OCT     C1 6233  16.135   0.203   5.406  0.1438 -0.0726 -0.1918
53117OCT     C2 6234  15.897   0.200   4.985 -0.1425  0.0207 -0.1308
53118OCT     C1 6235   6.936  15.507  11.053 -0.0362  0.0927 -0.0101
53118OCT     C2 6236   6.677  15.348  10.687 -0.2589 -0.0999 -0.2048
53119OCT     C1 6237  18.397  21.273  12.199  0.4003 -0.3139 -0.2305
53119OCT     C2 6238  18.785  21.573  12.340 -0.1554 -0.1566  0.2116
53120OCT     C1 6239  22.900  18.623  21.246 -0.1369 -0.1773 -0.2293
53120OCT     C2 6240  23.273  18.328  21.213  0.2372 -0.1495  0.0371
53121OCT     C1 6241   8.105  16.913   8.519 -0.0432  0.2489  0.2819
53121OCT     C2 6242   7.793  16.551   8.565  0.0463  0.1989 -0.2188
53122OCT     C1 6243  22.612  13.491   3.231  0.1364 -0.1012 -0.2016
53122OCT     C2 6244  22.267  13.222   3.323 -0.0032 -0.1557 -0.1312
53123OCT     C1 6245  18.919  14.311  14.674 -0.0650  0.0973 -0.0254
53123OCT     C2 6246  18.984  14.320  14.256 -0.0111 -0.0397  0.4381
53124OCT     C1 6247  22.981   8.770   6.835  0.0517  0.0644 -0.1123
53124OCT     C2 6248  22.907   8.637   6.382  0.2954  0.3066  0.0541
53125OCT     C1 6249   6.048   8.024  17.447 -0.2670 -0.0310  0.0018
53125OCT     C2 6250   6.010   8.487  17.236  0.4651  0.2298 -0.0792
53126OCT     C1 6251  15.443  14.502   6.937 -0.1339 -0.3163  0.3180
53126OCT     C2 6252  15.216  14.357   7.333  0.0117  0.2019  0.0302
53127OCT     C1 6253  22.332  19.384   4.208  0.0525 -0.0496  0.0023
53127OCT     C2 6254  22.751  19.409   3.990  0.2593 -0.2798  0.1223
53128OCT     C1 6255   4.539  20.014  10.181  0.2187  0.1043  0.1774
53128OCT     C2 6256   4.770  19.609  10.079  0.3916 -0.0947 -0.3600
53129OCT     C1 6257   3.811  17.955   3.641  0.0206 -0.1061  0.1761
53129OCT     C2 6258   4.018  17.573   3.788  0.5991 -0.0255  0.1283
53130OCT     C1 6259   4.058   2.304  23.576 -0.5298  0.0030  0.0057
53130OCT     C2 6260   4.451   2.223   0.049  0.0904 -0.0057 -0.3464
53131OCT     C1 6261   6.585  14.777  19.809  0.0021 -0.3613  0.0250
53131OCT     C2 6262   6.816  14.416  19.763  0.0184 -0.0308 -0.0253
53132OCT     C1 6263  10.675   7.952  20.557 -0.0182  0.1897  0.2581
53132OCT     C2 6264  10.677   8.463  20.617 -0.4183  0.1745 -0.0167
53133OCT     C1 6265   2.305  13.557   6.457  0.0233  0.4714 -0.1089
53133OCT     C2 6266   2.755  13.550   6.402  0.3366  0.3097  0.2637
53134OCT     C1 6267   6.956   5.225  22.935  0.3642  0.1918  0.0020
53134OCT     C2 6268   7.329   5.103  23.171  0.3758  0.0342 -0.0919
53135OCT     C1 6269  20.510   9.887  16.581  0.0648 -0.0635  0.0173
53135OCT     C2 6270  20.807   9.963  16.208 -0.2809 -0.2166  0.1548
53136OCT     C1 6271  22.467   4.568   4.955 -0.0972 -0.0188 -0.0702
53136OCT     C2 6272  22.308   4.209   4.738  0.2485 -0.1119 -0.0863
53137OCT     C1 6273   5.195  20.056  15.730  0.0786 -0.3637  0.0920
53137OCT     C2 6274   4.772  20.305  15.607  0.1103 -0.2776 -0.3968
53138OCT     C1 6275  17.977  20.764   9.010 -0.0945  0.1297 -0.2046
53138OCT     C2 6276  18.435  20.517   9.126  0.0783  0.0513 -0.1426
53139OCT     C1 6277   3.840  15.595  10.040 -0.3321  0.0577  0.0465
53139OCT     C2 6278   4.044  16.000  10.215 -0.0409  0.1845 -0.1358
53140OCT     C1 6279  16.500   0.522   5.295 -0.0447  0.0444 -0.0373
53140OCT     C2 6280  16.076   0.658   5.244 -0.2746 -0.1213  0.1385
53141OCT     C1 6281  18.330  10.644   2.834  0.1061 -0.0493  0.1073
53141OCT     C2 6282  18.490  10.351   3.123 -0.0938 -0.1229  0.2525
53142OCT     C1 6283  18.484  18.218  17.014  0.0280 -0.0433 -0.2916
53142OCT     C2 6284  18.791  18.008  16.721 -0.3593  0.3975 -0.0075
53143OCT     C1 6285   2.912  15.365   8.792 -0.2930  0.0087 -0.0217
53143OCT     C2 6286   2.515  15.480   8.851  0.2671 -0.2005 -0.1960
53144OCT     C1 6287  16.548   2.485   9.527  0.0914  0.1142 -0.0428
53144OCT     C2 6288  17.007   2.462   9.532 -0.1372 -0.2104 -0.1114
53145OCT     C1 6289  21.223  19.259  19.999  0.0242  0.0667  0.0461
53145OCT     C2 6290  21.374  19.066  20.379 -0.2045  0.1829  0.0845
53146OCT     C1 6291   6.007   9.660  11.826  0.3916  0.2149  0.1966
53146OCT     C2 6292   6.342   9.338  11.816 -0.4226  0.4892  0.1825
53147OCT     C1 6293  13.454  13.865  20.353 -0.1399 -0.1727  0.2883
53147OCT     C2 6294  13.381  14.331  20.519 -0.3108  0.3119  0.2300
53148OCT     C1 6295   7.676  15.351   1.092 -0.2248 -0.1817 -0.3331
53148OCT     C2 6296   7.451  15.034   0.790 -0.0011  0.2214  0.4537
53149OCT     C1 6297   0.886  21.537  17.711 -0.3612  0.1102  0.0710
53149OCT     C2 6298   0.519  21.342  17.408 -0.1462 -0.2419  0.0999
53150OCT     C1 6299  18.154  10.266  22.873 -0.0840  0.0155 -0.0997
53150OCT     C2 6300  18.448  10.590  22.889  0.0828  0.1989  0.2519
53151OCT     C1 6301   5.359   6.349  12.449  0.3241 -0.3934  0.1932
53151OCT     C2 6302   5.001   6.346  12.764  0.0162 -0.1330  0.1774
53152OCT     C1 6303   4.445  17.540   9.528  0.0385 -0.0719 -0.3685
53152OCT     C2 6304   3.988  17.431   9.436 -0.0698 -0.6069 -0.1846
53153OCT     C1 6305  19.654   8.145   1.585  0.0973  0.1608 -0.0703
53153OCT     C2 6306  19.307   7.770   1.495 -0.1671  0.0964  0.2665
53154OCT     C1 6307   2.758  12.860   9.393 -0.4524 -0.3645  0.4620
53154OCT     C2 6308   3.254  12.819   9.191 -0.2151  0.2336  0.1568
53155OCT     C1 6309  22.073  13.254   0.253  0.0234  0.1611 -0.4905
53155OCT     C2 6310  22.102  13.505  23.569 -0.1147 -0.0875  0.0913
53156OCT     C1 6311  22.566   1.181   1.676  0.0590  0.1207 -0.0555
53156OCT     C2 6312  22.153   0.929   1.823  0.0324  0.1628 -0.0036
53157OCT     C1 6313   5.399  10.862  14.468 -0.0854  0.0893 -0.1515
53157OCT     C2 6314   5.512  10.945  14.923  0.2655 -0.2250 -0.2329
53158OCT     C1 6315   9.175  21.257  20.569 -0.3171 -0.0403  0.2953
53158OCT     C2 6316   8.884  21.519  20.386 -0.1759 -0.2727 -0.0085
53159OCT     C1 6317  17.492  18.473  11.544  0.2547  0.1177 -0.0449
53159OCT     C2 6318  17.283  18.776  11.864  0.4726 -0.0978  0.0488
53160OCT     C1 6319   3.216  14.177   4.687  0.1200  0.1003  0.2528
53160OCT     C2 6320   3.159  13.785   4.505 -0.0264 -0.1472 -0.0002
53161OCT     C1 6321   8.390   6.955  19.236 -0.0114 -0.1016 -0.1671
53161OCT     C2 6322   8.586   6.587  18.956 -0.0049  0.0384  0.3567
53162OCT     C1 6323  15.647  15.291  13.288  0.4502 -0.2501 -0.1370
53162OCT     C2 6324  15.511  14.909  13.025  0.2290 -0.0560 -0.2360
53163OCT     C1 6325   4.394   5.417   9.838 -0.1149 -0.6413 -0.0666
53163OCT     C2 6326   4.673   5.817   9.744  0.1563 -0.0276 -0.1302
53164OCT     C1 6327  13.430   2.587  23.489  0.0160 -0.1102  0.0394
53164OCT     C2 6328  13.309   2.229  23.638  0.0849  0.1913  0.0139
53165OCT     C1 6329  22.162   1.398  19.137 -0.1398 -0.0030 -0.1102
53165OCT     C2 6330  22.436   1.771  19.226 -0.0703  0.0055 -0.0852
53166OCT     C1 6331   2.746   0.313   4.549  0.2583 -0.2508 -0.3273
53166OCT     C2 6332   2.545  23.694   4.805  0.1782  0.1839  0.2209
53167OCT     C1 6333  19.999   6.385  13.748  0.1727 -0.2182  0.0469
53167OCT     C2 6334  20.009   6.637  13.361  0.2759 -0.0375  0.1922
53168OCT     C1 6335   1.921  20.390   3.739 -0.0784  0.3896 -0.2569
53168OCT     C2 6336   1.720  20.068   3.477 -0.0003 -0.0834  0.0237
53169OCT     C1 6337  19.946  20.023  12.803 -0.0737 -0.2042 -0.0863
53169OCT     C2 6338  20.006  19.581  12.974 -0.0087 -0.2210 -0.0531
53170OCT     C1 6339  18.027  16.116  21.995 -0.2451 -0.0654  0.2991
53170OCT     C2 6340  17.796  16.062  22.460  0.1858  0.2116  0.6019
53171OCT     C1 6341   1.436  16.494  21.989  0.0115  0.0644  0.0395
53171OCT     C2 6342   1.834  16.389  21.765  0.0481  0.1504 -0.2027
53172OCT     C1 6343  13.358   4.589  21.406 -0.3443  0.1867 -0.2836
53172OCT     C2 6344  12.920   4.699  21.579 -0.0198  0.1916  0.8121
53173OCT     C1 6345   1.781   1.322   9.763  0.1535 -0.1630 -0.0720
53173OCT     C2 6346   1.691   1.791   9.667 -0.3951  0.1950 -0.1685
53174OCT     C1 6347   1.913  20.298  10.569 -0.2304  0.3332  0.1431
53174OCT     C2 6348   2.194  20.252  10.145  0.1030 -0.1647 -0.1244
53175OCT     C1 6349   9.318  20.046   1.119  0.0412 -0.3489 -0.0901
53175OCT     C2 6350   8.943  20.088   1.394 -0.0053  0.2125 -0.1210
53176OCT     C1 6351   0.431  20.034   7.066 -0.5155  0.2054  0.3365
53176OCT     C2 6352  23.716  20.132   6.981  0.4829 -0.1204  0.2603
53177OCT     C1 6353  21.173  12.843   0.310 -0.0554  0.1503  0.1219
53177OCT     C2 6354  20.880  13.121   0.043 -0.0057 -0.0220 -0.4686
53178OCT     C1 6355   5.113  20.827   6.086  0.0872 -0.1628  0.2536
53178OCT     C2 6356   5.464  21.130   6.047 -0.0124 -0.2136 -0.4672
53179OCT     C1 6357   0.632   0.458   7.376  0.1180  0.0458 -0.1901
53179OCT     C2 6358   0.851   0.379   6.950 -0.0984 -0.1690  0.1047
53180OCT     C1 6359  13.400   5.799   3.453  0.3235 -0.5702  0.0128
53180OCT     C2 6360  13.063   5.784   3.739  0.3093 -0.0372  0.0803
53181OCT     C1 6361   6.036  13.227  16.403  0.1718 -0.1956 -0.0570
53181OCT     C2 6362   5.841  12.881  16.617  0.1247  0.1750  0.2022
53182OCT     C1 6363  15.710  22.691   0.003  0.3198  0.0130  0.3301
53182OCT     C2 6364  15.895  23.091  23.468 -0.4417  0.0227 -0.2473
53183OCT     C1 6365   0.662   5.311  18.052 -0.2199  0.1793 -0.1987
53183OCT     C2 6366   1.135   5.448  18.117 -0.0460 -0.3129 -0.0435
53184OCT     C1 6367  18.452   6.754   7.464 -0.1494 -0.0331 -0.0471
53184OCT     C2 6368  18.041   6.670   7.327  0.3521 -0.1817  0.1488
53185OCT     C1 6369  20.466  22.045   3.630 -0.1999 -0.0907 -0.1628
53185OCT     C2 6370  20.237  21.744   3.906 -0.0844  0.0226  0.0452
53186OCT     C1 6371  13.800  19.660   4.799 -0.0220  0.0688  0.2084
53186OCT     C2 6372  14.058  19.527   4.422 -0.4845  0.2733  0.5291
53187OCT     C1 6373   1.140  12.682   5.611  0.1078 -0.2893 -0.2993
53187OCT     C2 6374   1.364  12.251   5.550  0.3572  0.1295  0.1691
53188OCT     C1 6375   2.903  20.679  11.607  0.2468  0.0552  0.2193
53188OCT     C2 6376   3.032  20.960  11.219 -0.3176  0.0428  0.1173
53189OCT     C1 6377  19.211   8.839   5.618  0.1318  0.1063  0.1092
53189OCT     C2 6378  19.644   8.610   5.548 -0.0121  0.3520 -0.1343
53190OCT     C1 6379  14.536  20.889   3.672 -0.0707 -0.1886  0.0767
53190OCT     C2 6380  14.518  21.344   3.809  0.1906 -0.0446 -0.1647
53191OCT     C1 6381  17.596  19.638  23.479  0.4065  0.1710 -0.1836
53191OCT     C2 6382  17.150  19.607  23.238  0.2850 -0.2556  0.1540
53192OCT     C1 6383  12.130  14.483  13.861  0.3464 -0.1595  0.0693
53192OCT     C2 6384  12.376  14.240  14.197 -0.6733 -0.2189 -0.2104
53193OCT     C1 6385  23.198   1.336  17.132 -0.1300  0.0662 -0.1044
53193OCT     C2 6386  23.618   1.196  17.227  0.3079 -0.2579  0.1167
53194OCT     C1 6387  19.107  21.349  20.484 -0.1554 -0.1683 -0.2228
53194OCT     C2 6388  18.925  21.540  20.155 -0.1665 -0.1770  0.3144
53195OCT     C1 6389   1.563  11.636  19.885 -0.2261  0.0654  0.0541
53195OCT     C2 6390   1.244  11.423  19.569  0.1747 -0.0656 -0.0237
53196OCT     C1 6391  18.896   4.949  14.551  0.0728  0.0976  0.1824
53196OCT     C2 6392  18.928   4.458  14.571 -0.0534 -0.0437 -0.0300
53197OCT     C1 6393   7.109   2.612  14.858  0.0099 -0.0114 -0.0505
53197OCT     C2 6394   6.713   2.558  14.727 -0.0185 -0.1209  0.2101
53198OCT     C1 6395  10.772  22.472   2.522 -0.0169 -0.0345 -0.0297
53198OCT     C2 6396  11.165  22.581   2.770 -0.1080  0.3256 -0.2014
53199OCT     C1 6397  17.929   9.952  18.138  0.0107  0.0416 -0.0458
53199OCT     C2 6398  17.595  10.222  18.222  0.0735 -0.0424 -0.1769
53200OCT     C1 6399   0.945  11.430   4.360 -0.1115  0.2419  0.2893
53200OCT     C2 6400   1.274  11.167   4.291  0.0600 -0.0688 -0.0473
53201OCT     C1 6401  23.298   1.658  15.054 -0.1056 -0.2535  0.1380
53201OCT     C2 6402  23.339   1.441  14.629 -0.2397 -0.0018  0.2251
53202OCT     C1 6403  14.579  20.437  10.297 -0.1431  0.0270 -0.1836
53202OCT     C2 6404  14.393  20.058  10.258 -0.0895 -0.2403 -0.2303
53203OCT     C1 6405   3.360  20.500  15.064 -0.2256 -0.4144  0.4297
53203OCT     C2 6406   3.535  20.137  15.222  0.1561  0.3141 -0.0107
53204OCT     C1 6407  18.579  16.819   2.532 -0.3981  0.0229  0.1531
53204OCT     C2 6408  18.842  16.815   2.112  0.1086  0.5609 -0.0613
53205OCT     C1 6409   0.030  17.937  12.980  0.0293  0.2427  0.1463
53205OCT     C2 6410  23.714  17.647  13.227  0.2214 -0.2946  0.2958
53206OCT     C1 6411   1.072   3.959  19.564  0.0848  0.1716  0.1157
53206OCT     C2 6412   0.931   4.426  19.613 -0.2090 -0.4020  0.0656
53207OCT     C1 6413  18.898  16.841  22.864 -0.0618 -0.2895 -0.2004
53207OCT     C2 6414  18.769  16.505  22.576  0.0177  0.3517 -0.1028
53208OCT     C1 6415   8.881  15.366  14.757  0.4321 -0.0235  0.0506
53208OCT     C2 6416   8.591  15.743  14.523  0.3807 -0.1780  0.2014
53209OCT     C1 6417   2.047  12.695  10.217  0.0375  0.3340 -0.2334
53209OCT     C2 6418   1.810  12.273  10.191  0.0586 -0.0919 -0.0079
53210OCT     C1 6419  15.764   8.446   2.836 -0.2597  0.0981  0.0684
53210OCT     C2 6420  16.088   8.216   2.638  0.1940  0.1401  0.1283
53211OCT     C1 6421  17.774  21.840  15.627 -0.2449  0.0170 -0.1070
53211OCT     C2 6422  17.711  21.727  15.223 -0.0524 -0.1649 -0.4146
53212OCT     C1 6423   1.003   2.544   4.535  0.0162 -0.2549  0.1450
53212OCT     C2 6424   0.690   2.612   4.826  0.1917  0.0597  0.1275
53213OCT     C1 6425  11.854  10.071  22.047 -0.2630  0.1029  0.0829
53213OCT     C2 6426  11.414  10.047  21.921  0.2390 -0.2163  0.1061
53214OCT     C1 6427   4.057  17.077   4.059 -0.2353 -0.0828  0.0086
53214OCT     C2 6428   3.630  17.290   4.070 -0.1777 -0.0661 -0.0984
53215OCT     C1 6429   5.477   0.944   9.050  0.0840 -0.1933 -0.3505
53215OCT     C2 6430   5.797   1.270   9.284 -0.0409  0.3695  0.1220
53216OCT     C1 6431  19.929  18.436   7.346  0.0018  0.0754 -0.0576
53216OCT     C2 6432  19.496  18.327   7.435 -0.0190  0.3055  0.3127
53217OCT     C1 6433  18.835  23.415  12.476 -0.0378  0.2620 -0.0864
53217OCT     C2 6434  18.761  23.168  12.822 -0.1334  0.2133 -0.1350
53218OCT     C1 6435   7.472   7.642  11.028  0.1351 -0.4598 -0.0987
53218OCT     C2 6436   7.914   7.709  11.149 -0.2783 -0.2337 -0.0854
53219OCT     C1 6437  16.793   8.908   6.660 -0.1852  0.0780  0.1142
53219OCT     C2 6438  16.927   8.589   6.343  0.0203  0.0504 -0.1901
53220OCT     C1 6439   2.973   7.518   6.390 -0.1284  0.1351 -0.1750
53220OCT     C2 6440   3.330   7.830   6.311  0.1055  0.1436 -0.0894
53221OCT     C1 6441  17.443   8.242  23.487  0.0186 -0.1178 -0.0443
53221OCT     C2 6442  17.368   7.874  23.185 -0.2358 -0.1659 -0.1373
53222OCT     C1 6443  12.615  14.585  13.389 -0.3310 -0.0091  0.1950
53222OCT     C2 6444  12.132  14.600  13.400 -0.1984 -0.0289 -0.4301
53223OCT     C1 6445  12.441  10.701   4.670 -0.0746 -0.2483  0.0292
53223OCT     C2 6446  12.615  10.746   4.205 -0.2239  0.0025  0.1511
53224OCT     C1 6447   0.205  18.233  17.971  0.2345  0.2120 -0.2925
53224OCT     C2 6448  23.587  18.440  17.943  0.0947 -0.0012  0.1397
53225OCT     C1 6449  22.504  20.366   6.665  0.3677  0.2254  0.2307
53225OCT     C2 6450  22.521  19.898   6.450 -0.0339 -0.1868  0.1915
53226OCT     C1 6451  10.791   1.459  13.495  0.2050 -0.1121 -0.1365
53226OCT     C2 6452  10.807   1.908  13.732 -0.2620  0.1660  0.0221
53227OCT     C1 6453  21.728  19.959  15.585 -0.0007 -0.2521 -0.3890
53227OCT     C2 6454  21.922  19.990  15.180  0.0506  0.5446  0.0969
53228OCT     C1 6455  15.781  17.960  21.812 -0.2082  0.3239  0.2397
53228OCT     C2 6456  15.424  18.289  21.833 -0.1619 -0.0534 -0.0308
53229OCT     C1 6457   7.446  14.629  16.928  0.1621  0.2020  0.1627
53229OCT     C2 6458   7.380  14.273  16.664  0.2266 -0.2474  0.2171
53230OCT     C1 6459  18.924   5.892   2.114 -0.0900  0.1051 -0.1642
53230OCT     C2 6460  19.037   6.180   1.771  0.2322 -0.0447 -0.1349
53231OCT     C1 6461  12.314   8.598  14.268 -0.2619  0.4913  0.3651
53231OCT     C2 6462  12.087   8.764  14.589 -0.1176  0.3070  0.0932
53232OCT     C1 6463  11.948   2.571  19.155 -0.2315  0.4902 -0.1770
53232OCT     C2 6464  11.541   2.624  18.848  0.1326 -0.3011  0.2285
53233OCT     C1 6465  20.000  11.151   3.978 -0.1192 -0.1531  0.1834
53233OCT     C2 6466  20.327  10.859   3.776 -0.2071 -0.1059  0.1850
53234OCT     C1 6467   9.516  12.217   1.707 -0.1889 -0.1143  0.0862
53234OCT     C2 6468   9.279  11.817   1.726  0.2325  0.0408  0.0776
53235OCT     C1 6469   1.784   7.650  20.706  0.1976 -0.0497 -0.2119
53235OCT     C2 6470   1.314   7.654  20.777  0.3733 -0.5294  0.0075
53236OCT     C1 6471  16.975  13.008  13.699  0.1633 -0.1674 -0.0426
53236OCT     C2 6472  16.539  12.997  13.902  0.3362 -0.1316 -0.2551
53237OCT     C1 6473  17.347   8.495  11.734 -0.3311 -0.0870  0.0827
53237OCT     C2 6474  17.323   8.591  11.242 -0.1406  0.0438 -0.2818
53238OCT     C1 6475   9.480  19.333   4.191 -0.3099 -0.0080  0.2575
53238OCT     C2 6476   9.424  19.137   3.774  0.0693  0.1541  0.1621
53239OCT     C1 6477   2.785   4.248  22.885  0.1163 -0.0434 -0.0021
53239OCT     C2 6478   2.389   4.131  23.099  0.0438  0.0168  0.0609
53240OCT     C1 6479  10.747  11.685   9.752  0.0955 -0.1022 -0.1013
53240OCT     C2 6480  11.019  11.456  10.038  0.1055  0.3686  0.0393
53241OCT     C1 6481   6.462   1.108  15.426  0.0348 -0.1581  0.0131
53241OCT     C2 6482   6.552   1.577  15.434  0.2127 -0.1506 -0.0881
53242OCT     C1 6483   3.144  17.455   6.881 -0.0140  0.2398 -0.0706
53242OCT     C2 6484   3.168  17.018   7.147  0.2250 -0.0810  0.0249
53243OCT     C1 6485  23.707   0.071   6.928 -0.1537 -0.0046  0.0922
53243OCT     C2 6486   0.375   0.100   6.821 -0.1912 -0.3500 -0.1152
53244OCT     C1 6487  12.686   3.644   1.001  0.1341 -0.0199  0.0413
53244OCT     C2 6488  12.639   3.368   1.309 -0.1935 -0.0789  0.3445
53245OCT     C1 6489  15.773  18.018  14.509  0.1804 -0.2218  0.2110
53245OCT     C2 6490  15.982  18.424  14.368  0.0775  0.0195 -0.0950
53246OCT     C1 6491  11.813  15.261   1.786 -0.1242  0.0130 -0.2443
53246OCT     C2 6492  11.626  15.414   2.213 -0.1990  0.1660 -0.1382
53247OCT     C1 6493  19.060  17.986  20.284 -0.0967  0.1224 -0.1039
53247OCT     C2 6494  18.790  17.614  20.038 -0.2542  0.0723  0.0564
53248OCT     C1 6495   7.171  18.068  15.997  0.1517 -0.1167  0.1029
53248OCT     C2 6496   6.829  18.110  16.288 -0.0610 -0.2836  0.2639
53249OCT     C1 6497   0.220  11.318  15.333  0.0267  0.0549  0.2206
53249OCT     C2 6498   0.530  11.459  15.663  0.4175 -0.1035  0.2406
53250OCT     C1 6499   3.451  17.309   1.836 -0.0845 -0.3604  0.0473
53250OCT     C2 6500   3.870  17.062   1.848  0.0880  0.3559 -0.1253
53251OCT     C1 6501  21.155   1.682  10.068  0.1649  0.1707 -0.1388
53251OCT     C2 6502  21.586   1.762  10.205  0.0108 -0.0064  0.1417
53252OCT     C1 6503   2.446   2.902   9.185  0.1371 -0.0168 -0.3055
53252OCT     C2 6504   2.636   2.786   8.786 -0.2513 -0.0101 -0.1282
53253OCT     C1 6505  20.582   0.345   0.458 -0.1871  0.0345 -0.0778
53253OCT     C2 6506  20.277   0.442   0.763  0.3207 -0.2475 -0.2725
53254OCT     C1 6507  16.362   8.417  14.860  0.4172  0.3722  0.0419
53254OCT     C2 6508  16.470   8.809  15.140 -0.2149  0.1873  0.2250
53255OCT     C1 6509  17.995  15.470  12.729 -0.0738 -0.0593 -0.1334
53255OCT     C2 6510  17.726  15.105  12.750 -0.0701  0.0163  0.2748
53256OCT     C1 6511  17.352  15.080  11.864 -0.3763 -0.3371 -0.2194
53256OCT     C2 6512  17.115  15.285  12.199 -0.0175  0.1446 -0.0126
53257OCT     C1 6513   7.017  13.743  21.306  0.0140 -0.3476  0.1539
53257OCT     C2 6514   6.596  13.989  21.464  0.1029 -0.1227  0.3495
53258OCT     C1 6515  17.784   2.183  16.708  0.0352  0.0007 -0.1226
53258OCT     C2 6516  18.252   2.325  16.579 -0.0363  0.2610 -0.1230
53259OCT     C1 6517   1.148  19.890   3.572  0.0826  0.4111 -0.2987
53259OCT     C2 6518   1.238  20.211   3.320 -0.0300  0.1400  0.4192
53260OCT     C1 6519   8.561  18.185  17.177  0.1755 -0.1594 -0.1828
53260OCT     C2 6520   8.417  18.658  17.224  0.0172  0.3817  0.3945
53261OCT     C1 6521   0.558   0.616   3.695  0.3667 -0.2057  0.2079
53261OCT     C2 6522   0.532   0.155   3.867  0.1963  0.2505 -0.1149
53262OCT     C1 6523   8.858   6.737  19.851 -0.1100 -0.4849 -0.3300
53262OCT     C2 6524   9.270   6.642  19.906  0.0236 -0.0915  0.0180
53263OCT     C1 6525  21.047  15.866  21.533 -0.0771 -0.0057 -0.2401
53263OCT     C2 6526  20.998  16.084  21.925 -0.0106  0.6131 -0.1227
53264OCT     C1 6527  17.853  23.571   1.639 -0.0105 -0.3537 -0.4247
53264OCT     C2 6528  17.826   0.244   1.795  0.2020  0.1413  0.0913
53265OCT     C1 6529  22.144   4.094  13.869 -0.3017  0.0236 -0.2835
53265OCT     C2 6530  21.903   3.758  13.682  0.0913 -0.1945 -0.0464
53266OCT     C1 6531   3.897  13.485   9.575 -0.2410  0.1713  0.3595
53266OCT     C2 6532   3.846  13.315   9.966 -0.2458  0.2095 -0.3441
53267OCT     C1 6533  14.319  10.707   7.257 -0.2367  0.1898  0.1211
53267OCT     C2 6534  14.770  10.747   7.260  0.2669  0.0351 -0.0050
53268OCT     C1 6535  13.832  14.949  22.860  0.1336  0.0761 -0.2724
53268OCT     C2 6536  14.177  14.711  22.775  0.3389 -0.0193  0.0664
53269OCT     C1 6537  22.816   7.667  12.384 -0.0735 -0.0691  0.1673
53269OCT     C2 6538  22.534   7.682  12.761  0.0791  0.0088 -0.4837
53270OCT     C1 6539   0.162  17.872  21.533  0.0411  0.1907 -0.1737
53270OCT     C2 6540  23.697  17.554  21.231 -0.3152  0.0854  0.1889
53271OCT     C1 6541   2.481  20.620  12.500 -0.2582 -0.0396  0.4151
53271OCT     C2 6542   2.739  20.278  12.400 -0.7543  0.0190 -0.2369
53272OCT     C1 6543  19.048  10.809   8.335 -0.1970  0.1349 -0.0331
53272OCT     C2 6544  18.812  10.665   7.945 -0.0787 -0.1587 -0.1842
53273OCT     C1 6545  12.039   6.684  18.537 -0.2980  0.2972  0.2018
53273OCT     C2 6546  12.337   6.422  18.207 -0.0424  0.0193 -0.2087
53274OCT     C1 6547  11.183   4.476  23.104 -0.0329  0.1483 -0.4593
53274OCT     C2 6548  10.969   4.048  23.127  0.0070  0.0512  0.0664
53275OCT     C1 6549  14.854  10.692  18.270  0.0507 -0.0837  0.2065
53275OCT     C2 6550  14.677  11.155  18.287 -0.0660  0.0477  0.1771
53276OCT     C1 6551   4.571   8.522  14.783  0.1474  0.0818  0.0451
53276OCT     C2 6552   4.763   8.958  14.859  0.0207 -0.0739 -0.0746
53277OCT     C1 6553   6.942   2.024  19.613 -0.0086  0.0192  0.0915
53277OCT     C2 6554   6.938   2.310  19.186  0.1401  0.2755 -0.3988
53278OCT     C1 6555  20.400   4.977  21.428  0.0851  0.0136 -0.3920
53278OCT     C2 6556  20.665   4.785  21.727  0.2988  0.1879 -0.1756
53279OCT     C1 6557   1.526  21.065  19.296  0.0131  0.3134  0.0048
53279OCT     C2 6558   1.638  20.802  18.906  0.0178  0.0836 -0.2583
53280OCT     C1 6559  21.880  17.864  10.256 -0.2704  0.0905 -0.2999
53280OCT     C2 6560  21.482  17.687  10.111  0.3615  0.0079  0.1129
53281OCT     C1 6561  13.617   6.209  21.053  0.1706 -0.1632 -0.1587
53281OCT     C2 6562  13.703   6.475  20.688  0.0250  0.0169  0.2868
53282OCT     C1 6563  16.327  11.843  12.160 -0.0969  0.2176  0.2053
53282OCT     C2 6564  16.733  11.616  12.363  0.0060  0.2229  0.2590
53283OCT     C1 6565  12.363   4.500  18.928  0.1002  0.4268 -0.0192
53283OCT     C2 6566  12.130   4.101  19.129 -0.0545 -0.0936  0.0667
53284OCT     C1 6567  18.286  22.567  20.233  0.0518  0.1163 -0.0528
53284OCT     C2 6568  18.344  22.295  19.834  0.0853 -0.0935 -0.0614
53285OCT     C1 6569  13.895  23.485  20.212 -0.0385  0.1181  0.0732
53285OCT     C2 6570  13.880   0.170  20.103  0.2377  0.2306 -0.0158
53286OCT     C1 6571  23.587  18.791  12.975 -0.3070 -0.1617  0.2202
53286OCT     C2 6572   0.031  19.010  12.595 -0.1631 -0.0800 -0.3040
53287OCT     C1 6573  23.092   9.845  19.315 -0.0808 -0.3260  0.1459
53287OCT     C2 6574  23.348   9.461  19.490 -0.2605 -0.1669  0.3314
53288OCT     C1 6575  19.771  18.089  22.999 -0.1560  0.0621  0.0173
53288OCT     C2 6576  19.433  18.223  23.326  0.1213  0.3976 -0.2585
53289OCT     C1 6577   9.203   4.131   5.020  0.4042 -0.1210  0.0820
53289OCT     C2 6578   9.427   4.151   5.463  0.1301  0.1037  0.3269
53290OCT     C1 6579  14.755  12.908  13.538 -0.1469  0.1908 -0.3135
53290OCT     C2 6580  14.712  12.485  13.339 -0.0492  0.3586 -0.2777
53291OCT     C1 6581  20.191  14.116   5.787 -0.0137  0.1733 -0.2278
53291OCT     C2 6582  20.609  14.343   5.739 -0.1056 -0.1003  0.3482
53292OCT     C1 6583   5.162   2.980  15.306 -0.2380  0.4387 -0.0494
53292OCT     C2 6584   5.081   2.509  15.417  0.0854 -0.1447  0.3903
53293OCT     C1 6585  11.727  12.542   3.318 -0.3317 -0.0265 -0.2320
53293OCT     C2 6586  11.941  12.101   3.362 -0.1540 -0.1941 -0.0463
53294OCT     C1 6587  17.483  23.495   0.808 -0.0305  0.0292  0.0297
53294OCT     C2 6588  17.377  23.213   0.470 -0.4324  0.0093  0.2395
53295OCT     C1 6589  10.274   0.127   2.355 -0.0255  0.0300 -0.0818
53295OCT     C2 6590  10.343   0.370   2.702  0.0135 -0.3726 -0.3835
53296OCT     C1 6591   3.667   4.033   2.222  0.0838 -0.0406 -0.2774
53296OCT     C2 6592   4.052   4.164   2.121  0.2557 -0.0316  0.2152
53297OCT     C1 6593  15.052  19.377   4.184  0.3661 -0.1305  0.1243
53297OCT     C2 6594  15.287  19.584   3.877 -0.2399  0.0193 -0.2085
53298OCT     C1 6595  23.610  14.646  17.650  0.1808  0.2377 -0.1895
53298OCT     C2 6596  23.383  14.479  17.303  0.0522 -0.1501  0.2929
53299OCT     C1 6597  23.276   7.295  18.836 -0.3403  0.0673  0.0337
53299OCT     C2 6598  23.147   7.004  18.522 -0.4256  0.1390 -0.1027
53300OCT     C1 6599   9.166   1.506   5.239  0.4570 -0.2569  0.0850
53300OCT     C2 6600   8.867   1.871   5.211  0.1395 -0.0412  0.1563
53301OCT     C1 6601   7.231   3.677  14.168 -0.1999  0.1130  0.2867
53301OCT     C2 6602   7.360   3.894  13.815  0.4000 -0.1260  0.1983
53302OCT     C1 6603   9.216   2.254  16.012  0.1385 -0.1041 -0.3196
53302OCT     C2 6604   9.129   2.042  16.417  0.2118  0.0290  0.1163
53303OCT     C1 6605   1.908  10.660   1.565 -0.0755 -0.2340 -0.2053
53303OCT     C2 6606   2.191  10.383   1.769 -0.4268 -0.0547  0.2080
53304OCT     C1 6607   6.610  19.721   6.126 -0.0342 -0.4942 -0.0721
53304OCT     C2 6608   6.724  20.199   6.122  0.3012 -0.2765 -0.0907
53305OCT     C1 6609  15.016  15.994  12.484 -0.1147 -0.3856  0.1378
53305OCT     C2 6610  14.860  16.388  12.328 -0.4366 -0.3654  0.0966
53306OCT     C1 6611  20.349  22.238   1.660 -0.0573 -0.0696 -0.2395
53306OCT     C2 6612  20.680  22.186   1.986 -0.2497  0.3746 -0.0390
53307OCT     C1 6613  14.106   6.240   1.165  0.3333 -0.2057  0.2875
53307OCT     C2 6614  13.804   6.572   1.082  0.0503  0.2721  0.3510
53308OCT     C1 6615   2.955  16.563   3.422 -0.1440 -0.0915  0.1154
53308OCT     C2 6616   3.271  16.317   3.690 -0.2553  0.0824 -0.3683
53309OCT     C1 6617   6.945   4.323   0.471  0.0187 -0.1048  0.1065
53309OCT     C2 6618   6.895   4.783   0.475 -0.0845 -0.0205  0.0902
53310OCT     C1 6619   0.136   4.284   6.136  0.1028  0.1443  0.0850
53310OCT     C2 6620  23.687   4.502   5.774 -0.0610  0.0827  0.2308
53311OCT     C1 6621  23.155  18.139  19.043  0.1919 -0.1174 -0.2675
53311OCT     C2 6622  23.470  18.471  18.835 -0.0464 -0.0567 -0.0936
53312OCT     C1 6623  11.244  14.453  15.666  0.0368  0.0538  0.0881
53312OCT     C2 6624  11.377  14.303  15.252 -0.0643 -0.0155 -0.0477
53313OCT     C1 6625  23.406  11.914   7.988 -0.0809  0.1422  0.1184
53313OCT     C2 6626  23.120  12.279   7.952 -0.0361 -0.2522 -0.1862
53314OCT     C1 6627  16.107  21.234   9.488 -0.2005  0.2732 -0.1424
53314OCT     C2 6628  16.299  20.936   9.740 -0.1605  0.0762  0.1108
53315OCT     C1 6629  22.486   9.267   0.222 -0.0871  0.0837 -0.1787
53315OCT     C2 6630  22.710   9.657   0.402  0.0170  0.0773  0.1417
53316OCT     C1 6631  21.985   4.473  19.980  0.1877  0.0412  0.0572
53316OCT     C2 6632  21.879   4.329  19.530 -0.1019  0.2085  0.1384
53317OCT     C1 6633  17.415  16.250  18.551 -0.2811  0.1534  0.3459
53317OCT     C2 6634  17.222  15.831  18.612  0.3698  0.1195  0.3068
53318OCT     C1 6635  21.552  15.888  13.546  0.2524 -0.1365 -0.1060
53318OCT     C2 6636  21.309  15.535  13.751 -0.0389 -0.3272  0.0864
53319OCT     C1 6637   8.139   0.982  22.357  0.0363 -0.1548  0.0675
53319OCT     C2 6638   8.349   1.264  22.063 -0.2236  0.0749 -0.0319
53320OCT     C1 6639   3.148  18.338  18.955 -0.0308  0.1248  0.0358
53320OCT     C2 6640   3.433  17.961  18.931  0.0759  0.4772  0.0980
53321OCT     C1 6641   1.749   7.601   4.389  0.0409 -0.0275 -0.1869
53321OCT     C2 6642   1.737   7.672   3.947 -0.1111  0.1221  0.1318
53322OCT     C1 6643  19.820   9.536  17.136  0.5255  0.2229  0.0928
53322OCT     C2 6644  20.047   9.099  17.215  0.1984  0.0348  0.2565
53323OCT     C1 6645   5.918   3.058   6.213  0.0536 -0.4776  0.2744
53323OCT     C2 6646   5.669   3.389   6.012  0.5006  0.0068 -0.0087
53324OCT     C1 6647   0.334  15.802  17.595  0.0356  0.1350  0.0728
53324OCT     C2 6648   0.626  15.420  17.645  0.2657 -0.1093 -0.0679
53325OCT     C1 6649  21.082  14.817   7.983 -0.1453 -0.0212  0.0346
53325OCT     C2 6650  21.258  15.260   8.024 -0.3592 -0.5880 -0.1719
53326OCT     C1 6651   5.964  23.725   4.780  0.1182 -0.0093  0.2207
53326OCT     C2 6652   6.406   0.163   4.633 -0.2223 -0.1110  0.0276
53327OCT     C1 6653   1.203   5.788  11.729  0.0122  0.0858 -0.0456
53327OCT     C2 6654   0.965   5.554  11.450  0.5399 -0.0109  0.0796
53328OCT     C1 6655  14.097  10.505   6.025 -0.4252  0.3255 -0.2505
53328OCT     C2 6656  13.965  10.091   6.117 -0.2340  0.0060 -0.2187
53329OCT     C1 6657   4.090   7.628  20.295  0.2180  0.0903 -0.3866
53329OCT     C2 6658   4.508   7.723  20.139 -0.0593 -0.0904 -0.1779
53330OCT     C1 6659  18.921  20.174  19.698  0.0484 -0.3045 -0.1986
53330OCT     C2 6660  19.161  20.448  19.475  0.2669  0.0050  0.0090
53331OCT     C1 6661   7.073  21.045   8.062 -0.1166 -0.0446 -0.4672
53331OCT     C2 6662   7.204  20.800   8.485 -0.3517  0.0753  0.2493
53332OCT     C1 6663   0.719   6.098   0.370 -0.4188 -0.1369  0.1346
53332OCT     C2 6664   0.793   5.734   0.057  0.2261  0.1909 -0.1753
53333OCT     C1 6665   0.718  13.918  15.913 -0.0803  0.0139 -0.3462
53333OCT     C2 6666   0.378  13.569  15.992  0.0885 -0.2455  0.4351
53334OCT     C1 6667  23.074  10.608  14.136 -0.2595 -0.3035  0.1337
53334OCT     C2 6668  22.696  10.392  14.030 -0.2952 -0.1661  0.0521
53335OCT     C1 6669   9.109  13.742   5.909 -0.1755  0.0369 -0.0216
53335OCT     C2 6670   9.474  13.433   5.965 -0.0739  0.0069 -0.2921
53336OCT     C1 6671   2.333  20.575   7.369 -0.5965 -0.0176 -0.3769
53336OCT     C2 6672   2.189  20.852   7.790  0.0873  0.0361 -0.0276
53337OCT     C1 6673   1.339   4.440   0.601 -0.3011 -0.3480 -0.0422
53337OCT     C2 6674   1.601   4.317   0.226  0.0550 -0.0576  0.1341
53338OCT     C1 6675   7.166  10.744   2.967  0.0915  0.1023 -0.0868
53338OCT     C2 6676   6.805  10.602   2.702 -0.0528 -0.2615 -0.1626
53339OCT     C1 6677  15.188  18.813   1.940  0.2530  0.0751 -0.5090
53339OCT     C2 6678  15.214  19.156   1.649 -0.1858 -0.0341 -0.2255
53340OCT     C1 6679  22.774   7.947   2.811 -0.3275  0.2278  0.0631
53340OCT     C2 6680  23.090   7.625   2.731 -0.0915  0.2230  0.0063
53341OCT     C1 6681   2.968   4.128  16.549 -0.0196 -0.2968  0.0655
53341OCT     C2 6682   3.339   3.914  16.780  0.2950  0.0517 -0.0034
53342OCT     C1 6683   9.511   8.585  12.550 -0.0199 -0.0824  0.0837
53342OCT     C2 6684   9.798   8.229  12.567 -0.3945 -0.1208  0.2334
53343OCT     C1 6685   9.463  16.748   0.705  0.0945 -0.0432  0.1691
53343OCT     C2 6686   9.782  16.583   1.025 -0.1115  0.5651 -0.1108
53344OCT     C1 6687   1.506  21.140   1.850 -0.1090  0.1575  0.5212
53344OCT     C2 6688   1.684  20.771   1.847 -0.1443  0.0827 -0.6055
53345OCT     C1 6689  11.873  22.019  18.992 -0.0301 -0.0372 -0.3472
53345OCT     C2 6690  11.984  21.602  19.128  0.2409  0.0008  0.0341
53346OCT     C1 6691  10.386   6.304   4.093  0.2053  0.3594 -0.0052
53346OCT     C2 6692  10.335   6.546   3.706 -0.2960  0.4220  0.1571
53347OCT     C1 6693  18.453  10.633   7.273  0.1219  0.1775 -0.1515
53347OCT     C2 6694  18.592  10.161   7.166 -0.1381  0.2062  0.1749
53348OCT     C1 6695  10.012  10.063  13.302 -0.1291  0.0475 -0.0793
53348OCT     C2 6696   9.925   9.687  13.579  0.2170  0.0001  0.1119
53349OCT     C1 6697   4.124   7.943   6.458 -0.0037 -0.1569 -0.0660
53349OCT     C2 6698   4.575   7.932   6.506  0.0516 -0.0578 -0.1760
53350OCT     C1 6699  15.515  22.158  19.166  0.1929  0.2429  0.1384
53350OCT     C2 6700  15.703  21.937  19.563  0.0186 -0.3553  0.1340
53351OCT     C1 6701  20.640   3.872  22.082  0.1833  0.0238 -0.0747
53351OCT     C2 6702  20.467   3.468  22.310 -0.4839  0.0788  0.0395
53352OCT     C1 6703  18.690   0.058  21.806  0.1780 -0.1376 -0.0329
53352OCT     C2 6704  18.902   0.451  22.026 -0.0180  0.2358 -0.0077
53353OCT     C1 6705  15.933  19.823  15.908 -0.3307 -0.0649  0.2284
53353OCT     C2 6706  15.528  20.030  15.969 -0.0352  0.3120  0.2355
53354OCT     C1 6707  16.539   9.262  16.927 -0.2142 -0.1118 -0.1460
53354OCT     C2 6708  16.886   9.025  17.145  0.2359 -0.2109  0.0053
53355OCT     C1 6709   4.885   8.118  22.717  0.0702  0.1429  0.1009
53355OCT     C2 6710   4.990   7.686  22.904 -0.0602 -0.1842  0.1352
53356OCT     C1 6711  14.877  14.100  10.001 -0.5446 -0.0248 -0.1613
53356OCT     C2 6712  14.695  13.860  10.364 -0.2368 -0.1423 -0.5028
53357OCT     C1 6713  21.534  23.122  11.272 -0.0688  0.1425 -0.0614
53357OCT     C2 6714  21.121  23.247  11.279  0.5125 -0.2702  0.0718
53358OCT     C1 6715  21.025  18.446   6.828  0.1560  0.1188 -0.2271
53358OCT     C2 6716  21.033  18.060   7.142  0.1901 -0.1273  0.0594
53359OCT     C1 6717   1.935  18.866  14.630  0.0016 -0.0827 -0.1006
53359OCT     C2 6718   2.296  18.670  14.876  0.0283  0.2431 -0.2374
53360OCT     C1 6719   0.541  18.039  23.221  0.0405 -0.0552  0.0777
53360OCT     C2 6720   0.996  18.126  23.002  0.3588 -0.0762  0.0778
53361OCT     C1 6721  16.778   8.375  13.274  0.2565  0.0334  0.0480
53361OCT     C2 6722  16.679   8.776  13.485  0.3676 -0.3159 -0.1352
53362OCT     C1 6723   6.762  10.105   2.714  0.0108  0.0022 -0.1294
53362OCT     C2 6724   6.464   9.849   2.400 -0.3121  0.2107 -0.1209
53363OCT     C1 6725   8.689  12.170  13.997  0.0678  0.4755  0.3279
53363OCT     C2 6726   9.066  11.905  13.923 -0.1533 -0.2317  0.1835
53364OCT     C1 6727   6.313   1.269  14.019 -0.1761  0.0798  0.3078
53364OCT     C2 6728   6.201   1.739  14.183 -0.0220  0.2771 -0.4809
53365OCT     C1 6729   9.388   0.641  13.862 -0.0457  0.2053  0.0579
53365OCT     C2 6730   9.231   1.051  13.716  0.1215 -0.1267 -0.2565
53366OCT     C1 6731  11.906   7.972  18.853 -0.1285  0.1452  0.1391
53366OCT     C2 6732  12.018   7.498  18.707 -0.0781 -0.5648 -0.2473
53367OCT     C1 6733   3.450  19.360  18.456 -0.3055  0.3305 -0.1685
53367OCT     C2 6734   3.600  19.781  18.736 -0.1153  0.1325  0.0065
53368OCT     C1 6735  13.625  23.061   0.228  0.0659 -0.0981 -0.1771
53368OCT     C2 6736  13.242  23.311   0.324  0.2693 -0.0902 -0.3875
53369OCT     C1 6737  14.520   3.126  20.773 -0.0426 -0.0650 -0.1332
53369OCT     C2 6738  14.399   3.363  21.165  0.0821  0.2199  0.0779
53370OCT     C1 6739   6.476   8.759  18.258 -0.0490 -0.1381  0.1144
53370OCT     C2 6740   6.729   8.514  18.006 -0.3118 -0.3066  0.2310
53371OCT     C1 6741  10.693  10.560  16.798  0.1296 -0.1591 -0.2180
53371OCT     C2 6742  10.927  10.866  17.082 -0.1615 -0.0756 -0.1382
53372OCT     C1 6743  14.791  14.328  22.125  0.0626 -0.4019 -0.0014
53372OCT     C2 6744  14.533  14.537  22.479 -0.1314  0.0881  0.0565
53373OCT     C1 6745  16.697   7.512   4.774 -0.1375 -0.1309  0.2808
53373OCT     C2 6746  17.034   7.761   4.532  0.1398  0.2747  0.2358
53374OCT     C1 6747   1.772   5.996  19.668 -0.2376 -0.0821  0.0783
53374OCT     C2 6748   1.670   5.533  19.599  0.2733 -0.1444  0.3550
53375OCT     C1 6749   4.984  19.087  11.236 -0.0368  0.2836  0.1001
53375OCT     C2 6750   4.944  19.143  11.694  0.0602  0.1464 -0.1415
53376OCT     C1 6751  15.531  10.373  10.032 -0.2845  0.2058 -0.0338
53376OCT     C2 6752  15.572  10.809   9.909  0.0720 -0.0158 -0.1794
53377OCT     C1 6753  23.320  22.156  12.633  0.0665  0.1453 -0.1990
53377OCT     C2 6754  23.668  21.905  12.768  0.2074  0.1116 -0.0227
53378OCT     C1 6755   8.624   2.078   6.962  0.0722 -0.3224  0.0269
53378OCT     C2 6756   8.358   2.443   6.932  0.2839  0.2942 -0.0122
53379OCT     C1 6757  16.508  17.830  10.737 -0.0773 -0.1537  0.0112
53379OCT     C2 6758  16.786  17.453  10.672 -0.0602  0.0635  0.1563
53380OCT     C1 6759  14.260  17.213  12.108  0.1240  0.1496 -0.0583
53380OCT     C2 6760  14.545  17.491  12.297  0.0431  0.0465 -0.4002
53381OCT     C1 6761  17.089  14.357  19.975  0.2594 -0.0576  0.0046
53381OCT     C2 6762  17.007  14.494  19.555  0.1067  0.0101  0.2379
53382OCT     C1 6763  21.484   8.723   6.933  0.0183  0.2633 -0.1288
53382OCT     C2 6764  21.354   8.667   7.359  0.0345  0.1264 -0.1596
53383OCT     C1 6765  21.886  11.716  19.396  0.1962  0.0649 -0.1971
53383OCT     C2 6766  22.105  11.827  18.956 -0.0985 -0.1232 -0.2669
53384OCT     C1 6767  20.421  17.640  13.045 -0.0379  0.0354  0.1500
53384OCT     C2 6768  20.215  17.798  13.368  0.4747  0.0428 -0.1960
53385OCT     C1 6769  15.934   8.911  11.507 -0.2101  0.0177 -0.1184
53385OCT     C2 6770  15.811   8.495  11.784 -0.1880  0.1830 -0.1638
53386OCT     C1 6771   0.631  12.433   2.165 -0.1768 -0.1637 -0.5133
53386OCT     C2 6772   0.354  12.113   2.306  0.1109  0.2979  0.1315
53387OCT     C1 6773  14.404  22.196  11.330  0.0442  0.0590  0.1590
53387OCT     C2 6774  14.648  22.590  11.306 -0.0595 -0.2193  0.1867
53388OCT     C1 6775   7.032   2.794  19.245 -0.3090 -0.0653  0.2038
53388OCT     C2 6776   6.845   3.244  19.180 -0.1424  0.1535  0.0371
53389OCT     C1 6777   1.194  14.811   7.796  0.4077 -0.1047  0.2276
53389OCT     C2 6778   0.975  14.506   8.144  0.1934  0.3685  0.2872
53390OCT     C1 6779  15.312  17.250   7.439  0.2364 -0.0229  0.0299
53390OCT     C2 6780  15.439  17.011   7.828  0.0582 -0.0801 -0.2835
53391OCT     C1 6781  12.476  16.972  20.228 -0.1611  0.0628 -0.1186
53391OCT     C2 6782  12.811  17.239  20.434  0.1642  0.0067  0.0806
53392OCT     C1 6783  19.429   3.126   4.735  0.0422 -0.0118  0.2246
53392OCT     C2 6784  19.577   2.700   4.863 -0.2422 -0.2900 -0.2163
53393OCT     C1 6785  14.758  17.596   3.976 -0.2631  0.0731 -0.3520
53393OCT     C2 6786  14.833  17.218   4.223  0.6089 -0.4307 -0.0484
53394OCT     C1 6787  14.687   2.077  18.962  0.2351 -0.0961 -0.0775
53394OCT     C2 6788  14.839   1.612  19.101  0.0016 -0.0455  0.3330
53395OCT     C1 6789   6.340   9.947   2.874  0.2425 -0.0187  0.3139
53395OCT     C2 6790   6.001   9.950   2.504 -0.1070  0.0797  0.2066
53396OCT     C1 6791  16.628  12.639   7.058  0.0706  0.1292  0.2451
53396OCT     C2 6792  16.312  12.603   7.412 -0.1811  0.2732  0.2691
53397OCT     C1 6793   5.467  14.761   5.440 -0.0113  0.3809  0.1398
53397OCT     C2 6794   5.165  14.761   5.104  0.2066 -0.1138  0.2358
53398OCT     C1 6795   8.155   6.467  22.415 -0.2083 -0.4443 -0.1097
53398OCT     C2 6796   8.189   6.415  22.846 -0.0079 -0.0542 -0.2382
53399OCT     C1 6797  15.214   1.535  20.995  0.3782  0.1543 -0.2530
53399OCT     C2 6798  15.367   1.105  20.977 -0.0917  0.2764 -0.1945
53400OCT     C1 6799   6.760   1.346   0.504  0.2350  0.0194  0.2511
53400OCT     C2 6800   6.851   0.945   0.217 -0.1281 -0.4190  0.0864
53401OCT     C1 6801  13.359  11.379   4.288 -0.2219  0.1347 -0.3164
53401OCT     C2 6802  13.111  11.155   4.003  0.1843  0.2777 -0.0036
53402OCT     C1 6803  23.731  14.785   6.115 -0.0012  0.0737  0.1272
53402OCT     C2 6804   0.141  15.184   6.348  0.1222 -0.0746 -0.2004
53403OCT     C1 6805  14.246  22.217   0.119  0.0700 -0.0547 -0.1314
53403OCT     C2 6806  14.537  21.876   0.012 -0.0264  0.2249 -0.0097
53404OCT     C1 6807  15.568  19.124  22.709 -0.4543 -0.0860  0.5214
53404OCT     C2 6808  15.753  18.756  22.495 -0.2042  0.1869 -0.0300
53405OCT     C1 6809   2.799  23.731  15.776  0.0069  0.1810 -0.0467
53405OCT     C2 6810   2.636  23.651  15.324 -0.0753 -0.1900 -0.0922
53406OCT     C1 6811  11.025   5.846   0.740 -0.4753  0.2440 -0.0644
53406OCT     C2 6812  11.212   6.214   0.929 -0.2225 -0.1189 -0.4471
53407OCT     C1 6813  13.065   7.237  10.355 -0.1971 -0.3324 -0.1949
53407OCT     C2 6814  13.229   7.240   9.916 -0.0740 -0.1123  0.0837
53408OCT     C1 6815  18.467   2.879  22.325 -0.1313  0.0179 -0.4494
53408OCT     C2 6816  18.532   2.881  22.742 -0.0199 -0.2083 -0.0571
53409OCT     C1 6817  13.669   0.728   3.452  0.0100  0.1195  0.2663
53409OCT     C2 6818  13.683   0.452   3.810  0.3411 -0.2933 -0.0291
53410OCT     C1 6819   5.006   2.519   4.603  0.3859  0.0017 -0.2667
53410OCT     C2 6820   5.395   2.729   4.460  0.1912  0.3156  0.2865
53411OCT     C1 6821   7.062  10.403  23.677 -0.1049  0.0613 -0.0301
53411OCT     C2 6822   7.329  10.185   0.225  0.2009  0.0168  0.1080
53412OCT     C1 6823   4.877   1.632  20.023 -0.1346  0.4029  0.1960
53412OCT     C2 6824   4.474   1.876  19.999  0.0405  0.1105 -0.0858
53413OCT     C1 6825   8.012   1.482  14.330 -0.0245 -0.3066  0.1626
53413OCT     C2 6826   8.064   1.549  13.861  0.3268  0.1846 -0.3414
53414OCT     C1 6827  14.343   8.776  14.829  0.1083 -0.1425  0.6660
53414OCT     C2 6828  14.379   9.280  14.799  0.3052 -0.3390 -0.0335
53415OCT     C1 6829   7.944  15.207  17.727  0.0387  0.0189 -0.2852
53415OCT     C2 6830   8.004  15.690  17.735 -0.3177 -0.2886  0.0988
53416OCT     C1 6831  10.185  12.111  13.849 -0.0773  0.0198 -0.0559
53416OCT     C2 6832   9.995  12.296  13.441 -0.0086 -0.0096  0.2542
53417OCT     C1 6833  12.073   0.755  10.685 -0.1665 -0.1241  0.1702
53417OCT     C2 6834  12.408   0.615  11.033 -0.0157 -0.0807  0.0394
53418OCT     C1 6835   7.336  23.720  16.825  0.0512 -0.0485  0.1354
53418OCT     C2 6836   7.283   0.335  16.542  0.1180 -0.0546  0.0093
53419OCT     C1 6837  11.597  13.013   0.837  0.0281 -0.0626 -0.1721
53419OCT     C2 6838  11.327  13.123   0.507  0.2319  0.2963 -0.3290
53420OCT     C1 6839  16.945  22.302  17.942 -0.1150 -0.0840  0.0002
53420OCT     C2 6840  16.696  22.030  17.606  0.1738 -0.5531  0.1928
53421OCT     C1 6841   5.813  19.009  22.184 -0.3027 -0.2975 -0.0891
53421OCT     C2 6842   5.615  19.416  22.334  0.0052  0.0823  0.0371
53422OCT     C1 6843   3.462  17.854   4.557  0.1401  0.1101 -0.0327
53422OCT     C2 6844   3.902  17.952   4.675 -0.0562 -0.3720  0.2730
53423OCT     C1 6845  17.462   9.929  12.973 -0.0337  0.2873  0.0474
53423OCT     C2 6846  17.463  10.347  12.719  0.1436 -0.0398 -0.0904
53424OCT     C1 6847  18.412  13.645  15.996  0.0978  0.0093  0.1258
53424OCT     C2 6848  18.296  13.331  15.682  0.0546 -0.0644  0.2248
53425OCT     C1 6849  16.278  20.818   4.286  0.0714 -0.2263 -0.0203
53425OCT     C2 6850  16.518  20.760   3.886 -0.0457 -0.1881 -0.1697
53426OCT     C1 6851  18.649   7.251   0.058  0.3488 -0.0142 -0.0980
53426OCT     C2 6852  18.487   6.820   0.003  0.1906  0.0003 -0.1466
53427OCT     C1 6853   5.911  11.730   3.025  0.0121 -0.2598  0.0960
53427OCT     C2 6854   5.469  11.767   3.021 -0.1670 -0.0462  0.2738
53428OCT     C1 6855  17.617  16.465   5.267 -0.1539  0.1544  0.0012
53428OCT     C2 6856  17.263  16.137   5.149 -0.2163 -0.2294 -0.2343
53429OCT     C1 6857  11.263  22.177   4.110 -0.2857  0.0162 -0.0415
53429OCT     C2 6858  11.153  22.631   4.061  0.0994  0.3325 -0.2322
53430OCT     C1 6859  23.720  10.411  12.756 -0.2724 -0.1179  0.1213
53430OCT     C2 6860   0.299  10.558  12.437 -0.0160  0.1338 -0.0601
53431OCT     C1 6861  22.539   6.405  17.892 -0.0928  0.2542  0.1151
53431OCT     C2 6862  22.897   6.342  17.547  0.4251 -0.0664 -0.0781
53432OCT     C1 6863   9.640  17.004  18.531 -0.1874  0.0886 -0.3477
53432OCT     C2 6864   9.241  17.002  18.376 -0.0482  0.3052 -0.0010
53433OCT     C1 6865  22.859  10.157   3.019  0.1036 -0.1141  0.1107
53433OCT     C2 6866  23.173  10.171   3.315 -0.1410 -0.3590  0.4151
53434OCT     C1 6867  12.171  17.547  18.798 -0.0424  0.2889 -0.1730
53434OCT     C2 6868  12.311  17.767  19.189 -0.1008 -0.1136 -0.0369
53435OCT     C1 6869   5.228   9.353   3.789  0.1362 -0.1200  0.1398
53435OCT     C2 6870   4.777   9.415   3.865  0.2576  0.1232 -0.1028
53436OCT     C1 6871  14.734   7.034  21.165 -0.1401  0.2174 -0.1082
53436OCT     C2 6872  14.350   6.848  21.321 -0.0556 -0.1488 -0.0208
53437OCT     C1 6873   3.251   0.666  21.440  0.4020  0.1655  0.0164
53437OCT     C2 6874   3.637   0.454  21.517 -0.2167 -0.2266  0.0834
53438OCT     C1 6875  15.860  16.963   5.610  0.2088  0.3135  0.2053
53438OCT     C2 6876  15.964  17.409   5.685  0.4776  0.0669 -0.3058
53439OCT     C1 6877  18.167  10.031  20.204 -0.4136 -0.0356  0.2667
53439OCT     C2 6878  18.097  10.167  19.790  0.0650 -0.0915 -0.1593
53440OCT     C1 6879   3.588   8.686  14.301 -0.1689  0.1848 -0.1815
53440OCT     C2 6880   3.650   9.005  13.904  0.2275  0.1066 -0.2721
53441OCT     C1 6881  19.373  23.550  17.270  0.0706  0.1652 -0.1805
53441OCT     C2 6882  19.722  23.323  17.531  0.0321 -0.1209  0.2588
53442OCT     C1 6883  18.102  22.799  18.447 -0.4850  0.0901  0.0718
53442OCT     C2 6884  18.193  22.594  18.881  0.1182  0.2521  0.4994
53443OCT     C1 6885  16.711   1.804  19.783  0.0235 -0.0994  0.0543
53443OCT     C2 6886  16.386   1.687  20.139 -0.2551  0.0430  0.0083
53444OCT     C1 6887  14.464  19.299   6.647 -0.1861  0.3790 -0.3578
53444OCT     C2 6888  14.091  19.144   6.387 -0.1602 -0.1084 -0.2667
53445OCT     C1 6889  13.119  12.123  18.315 -0.2878 -0.1460  0.2189
53445OCT     C2 6890  12.841  12.332  18.018 -0.2064 -0.0805  0.0922
53446OCT     C1 6891  19.859  18.607  15.860  0.2434  0.0901  0.1398
53446OCT     C2 6892  19.397  18.589  15.911 -0.4954  0.0331  0.0024
53447OCT     C1 6893   3.615  15.025  19.650  0.3435  0.1519  0.0482
53447OCT     C2 6894   3.238  14.819  19.799  0.2801 -0.2913 -0.0073
53448OCT     C1 6895   6.811  22.819  23.240 -0.0345 -0.1530  0.1025
53448OCT     C2 6896   6.778  22.434  23.493 -0.0396  0.6380  0.1487
53449OCT     C1 6897  22.789  17.018   6.244 -0.1837  0.1265 -0.0638
53449OCT     C2 6898  22.790  17.148   5.785  0.3313  0.0355  0.2522
53450OCT     C1 6899   2.071  14.117   3.857 -0.3068 -0.2355 -0.1292
53450OCT     C2 6900   2.287  14.276   3.433  0.1659 -0.3139 -0.0236
53451OCT     C1 6901  18.600  17.428  11.204  0.0486  0.0689 -0.1076
53451OCT     C2 6902  18.188  17.287  11.011  0.2344 -0.3522 -0.1646
53452OCT     C1 6903  11.257   4.076   6.092 -0.0788  0.2817  0.0706
53452OCT     C2 6904  11.632   4.080   6.355  0.1095  0.1720 -0.0442
53453OCT     C1 6905  19.143  19.783  18.471 -0.3374 -0.2218  0.1522
53453OCT     C2 6906  19.332  20.157  18.157 -0.2139  0.0724  0.0429
53454OCT     C1 6907   3.740   3.583  23.532  0.2516 -0.1585 -0.1459
53454OCT     C2 6908   3.791   3.822   0.226  0.4905  0.1776  0.0078
53455OCT     C1 6909  23.635   4.142   8.902 -0.3604  0.2613 -0.0107
53455OCT     C2 6910   0.183   4.479   8.889  0.4392  0.0654 -0.1997
53456OCT     C1 6911  10.922  23.541  13.583  0.0939  0.3119  0.0819
53456OCT     C2 6912  10.818  23.265  13.200 -0.0448 -0.1118 -0.1507
53457OCT     C1 6913  10.761   3.317  19.064  0.2951 -0.0405  0.1029
53457OCT     C2 6914  11.196   3.498  19.210  0.1280  0.0749 -0.3587
53458OCT     C1 6915   5.805  18.815   5.036 -0.5159  0.1787  0.0319
53458OCT     C2 6916   6.231  18.947   5.114 -0.2044 -0.1614 -0.1551
53459OCT     C1 6917   6.056  13.781  16.264 -0.0525  0.1418 -0.1420
53459OCT     C2 6918   5.785  13.603  16.663 -0.0968  0.0765 -0.0630
53460OCT     C1 6919  14.035   1.909  15.629 -0.3308 -0.0878 -0.0332
53460OCT     C2 6920  14.170   1.738  16.027 -0.0699  0.2042 -0.1247
53461OCT     C1 6921   6.498   1.568   4.593 -0.1141 -0.1981  0.2630
53461OCT     C2 6922   6.583   1.211   4.324 -0.0105 -0.0809 -0.0997
53462OCT     C1 6923  17.481  13.777   5.095 -0.0832 -0.1693 -0.3460
53462OCT     C2 6924  17.388  14.205   4.903  0.0895  0.1743  0.2383
53463OCT     C1 6925  17.948  21.002   7.251  0.0577 -0.1027 -0.1989
53463OCT     C2 6926  17.653  21.230   6.939 -0.0834 -0.0575 -0.6695
53464OCT     C1 6927  13.295  11.916  13.161  0.2870 -0.1689 -0.2533
53464OCT     C2 6928  12.832  12.032  13.309 -0.3093  0.1086 -0.1657
53465OCT     C1 6929   0.552  20.261  15.915 -0.0242 -0.0431 -0.0514
53465OCT     C2 6930   0.861  20.586  15.952  0.1953  0.0478  0.0530
53466OCT     C1 6931   7.024  21.332   0.746 -0.1842  0.1142 -0.4018
53466OCT     C2 6932   6.933  21.085   0.407  0.0392  0.1280 -0.0051
53467OCT     C1 6933  16.039   6.309  11.689 -0.1241  0.0093 -0.0876
53467OCT     C2 6934  16.071   6.681  11.475  0.2489  0.0790  0.0650
53468OCT     C1 6935  11.672  12.349  17.471  0.1114 -0.0648 -0.0141
53468OCT     C2 6936  11.381  12.476  17.132 -0.1253  0.3510 -0.0603
53469OCT     C1 6937   4.512  21.285   0.908 -0.2403 -0.0516 -0.5984
53469OCT     C2 6938   4.662  21.611   0.598 -0.1330  0.0412 -0.1195
53470OCT     C1 6939  19.691   6.627  15.459  0.0654  0.0541 -0.1557
53470OCT     C2 6940  19.517   6.206  15.484  0.0810  0.0133  0.0341
53471OCT     C1 6941  21.147  11.648   9.050 -0.1983  0.2669  0.4443
53471OCT     C2 6942  20.692  11.723   8.967  0.0895 -0.1434 -0.0606
53472OCT     C1 6943   0.815  12.830   1.836  0.0541  0.2091  0.0149
53472OCT     C2 6944   0.413  12.900   2.044 -0.2315  0.0502 -0.0225
53473OCT     C1 6945   8.307  20.990  21.884  0.0092  0.0654  0.0032
53473OCT     C2 6946   8.071  20.652  22.056  0.0208 -0.0352  0.0799
53474OCT     C1 6947   3.887  15.773  14.853 -0.2283 -0.0384 -0.3725
53474OCT     C2 6948   4.269  15.690  15.068  0.0719  0.1213 -0.3284
53475OCT     C1 6949   2.537   6.544   1.643 -0.1649  0.2925 -0.0501
53475OCT     C2 6950   2.619   6.840   1.319  0.0883 -0.1214  0.1115
53476OCT     C1 6951   9.562  11.115   6.438  0.0121  0.0943 -0.2733
53476OCT     C2 6952   9.830  10.918   6.828 -0.1129 -0.3903 -0.0839
53477OCT     C1 6953  14.578  22.808  19.061  0.2733  0.2678  0.1870
53477OCT     C2 6954  14.698  23.225  19.300 -0.5256 -0.4750  0.1315
53478OCT     C1 6955   7.128   9.492  22.013  0.2243 -0.0673 -0.0983
53478OCT     C2 6956   7.247   9.504  22.458  0.0787  0.0420 -0.0910
53479OCT     C1 6957   6.098   3.928  13.173  0.1361  0.1351  0.0929
53479OCT     C2 6958   5.709   3.810  13.065 -0.0241 -0.0896 -0.1372
53480OCT     C1 6959  11.774  14.736  15.596 -0.0216  0.3284 -0.1054
53480OCT     C2 6960  11.648  14.522  15.947 -0.2873  0.5596  0.0847
53481OCT     C1 6961  22.224   6.834  10.982  0.0646 -0.0540  0.1497
53481OCT     C2 6962  22.156   6.901  11.438  0.1114 -0.4970  0.1771
53482OCT     C1 6963   1.176   7.511   1.322  0.2224  0.0742 -0.0705
53482OCT     C2 6964   0.722   7.317   1.293  0.2543  0.2825 -0.0144
53483OCT     C1 6965   5.904   2.058  14.470 -0.2094  0.5424  0.1598
53483OCT     C2 6966   6.140   1.762  14.712 -0.2247 -0.2242  0.1645
53484OCT     C1 6967   0.696   7.809  16.858 -0.0363  0.0511 -0.2860
53484OCT     C2 6968   0.372   7.855  16.476  0.2524 -0.0015  0.0435
53485OCT     C1 6969  10.985   5.691  12.777  0.1705 -0.1196 -0.4400
53485OCT     C2 6970  11.043   5.467  13.213 -0.0118  0.0142 -0.1851
53486OCT     C1 6971  21.374  14.912   4.407  0.0194  0.4741  0.0056
53486OCT     C2 6972  21.555  14.510   4.560 -0.0842  0.0563 -0.1090
53487OCT     C1 6973  11.078   3.221  17.076  0.1290 -0.3543 -0.0589
53487OCT     C2 6974  11.132   2.849  16.805 -0.0222  0.0072 -0.1997
53488OCT     C1 6975  21.109  15.316  20.744  0.4005  0.1431  0.0691
53488OCT     C2 6976  21.125  15.126  20.291  0.0850  0.0804 -0.0077
53489OCT     C1 6977  15.116   9.655  20.422  0.2346 -0.0819  0.1377
53489OCT     C2 6978  14.802   9.951  20.147 -0.0946 -0.0658 -0.1496
53490OCT     C1 6979  11.330   9.156   9.696 -0.2315 -0.1240  0.2119
53490OCT     C2 6980  11.306   9.461   9.301  0.0778  0.0005  0.3140
53491OCT     C1 6981   4.306  13.328  20.166  0.0999  0.5828 -0.3162
53491OCT     C2 6982   3.920  13.073  20.046  0.1512 -0.0888 -0.2605
53492OCT     C1 6983  19.387   0.712   2.723  0.3141 -0.6597  0.0013
53492OCT     C2 6984  18.988   0.905   2.461  0.1788 -0.3011 -0.0291
53493OCT     C1 6985  16.051   4.537  11.911  0.2345  0.1232  0.0618
53493OCT     C2 6986  15.754   4.669  12.267 -0.1344  0.1530  0.3204
53494OCT     C1 6987  18.470   9.488   7.736  0.4555  0.2698 -0.1195
53494OCT     C2 6988  18.715   9.774   7.420  0.0426  0.0070 -0.1704
53495OCT     C1 6989   4.210   0.080   3.179 -0.0696  0.2327 -0.1888
53495OCT     C2 6990   4.294   0.420   3.477 -0.2152  0.3787  0.5582
53496OCT     C1 6991   8.328  18.230  14.554 -0.1749 -0.3972 -0.0770
53496OCT     C2 6992   7.890  18.267  14.357  0.0389 -0.4325 -0.3122
53497OCT     C1 6993   9.740  20.889  12.606  0.1278 -0.0253 -0.0946
53497OCT     C2 6994   9.922  21.296  12.635  0.1203  0.0574  0.1826
53498OCT     C1 6995  10.961  20.121   1.057  0.3884 -0.0716 -0.2183
53498OCT     C2 6996  10.727  20.484   1.207  0.0926 -0.1520 -0.1379
53499OCT     C1 6997   4.944   5.747   7.354 -0.2334 -0.0449 -0.3568
53499OCT     C2 6998   5.371   5.705   7.594 -0.2343 -0.2282 -0.3059
53500OCT     C1 6999  14.400  20.271  21.162 -0.1593  0.0775  0.0005
53500OCT     C2 7000  14.319  20.316  21.628  0.0041  0.1387 -0.1196
53501OCT     C1 7001   1.611   6.377  15.076  0.0372  0.2841  0.1348
53501OCT     C2 7002   1.768   6.696  14.770  0.0326 -0.0630 -0.0627
53502OCT     C1 7003  15.330  21.363   7.336 -0.0360  0.0027 -0.2464
53502OCT     C2 7004  14.907  21.123   7.394 -0.0938  0.0262  0.0539
53503OCT     C1 7005   1.539   0.795  15.123 -0.2199 -0.1015 -0.3863
53503OCT     C2 7006   1.501   0.412  15.437 -0.1632 -0.2400 -0.0564
53504OCT     C1 7007  14.926  20.865  11.545 -0.3694  0.2549 -0.1458
53504OCT     C2 7008  15.083  21.066  11.940 -0.1014  0.0633  0.1149
53505OCT     C1 7009  13.286  11.015  16.141 -0.0434 -0.2028 -0.2826
53505OCT     C2 7010  13.769  10.963  16.184 -0.0006  0.4245  0.0541
53506OCT     C1 7011  19.086  19.383  16.667  0.2851 -0.0991 -0.0699
53506OCT     C2 7012  18.632  19.376  16.528  0.3269 -0.0675 -0.0376
53507OCT     C1 7013  11.000   4.659   9.670  0.0575  0.1567 -0.0401
53507OCT     C2 7014  11.078   4.423  10.053 -0.2339 -0.0349 -0.2520
53508OCT     C1 7015  17.458   1.234   7.187 -0.2050 -0.1340 -0.1144
53508OCT     C2 7016  17.043   1.323   7.017  0.0933  0.2708  0.0003
53509OCT     C1 7017  12.793   5.369  17.436  0.2554 -0.0444 -0.1581
53509OCT     C2 7018  12.348   5.171  17.405 -0.2727 -0.2432  0.2070
53510OCT     C1 7019   3.699  19.831   2.908  0.0700  0.1345 -0.0053
53510OCT     C2 7020   3.478  20.142   3.162 -0.1665  0.0895  0.0860
53511OCT     C1 7021   0.918  19.651  16.443  0.3967 -0.0339 -0.0184
53511OCT     C2 7022   1.223  19.582  16.082 -0.2921 -0.1243  0.0108
53512OCT     C1 7023   2.071   9.904   6.177 -0.0517  0.0596 -0.1621
53512OCT     C2 7024   1.852   9.618   6.328 -0.0299 -0.0477 -0.0525
53513OCT     C1 7025  19.012  22.750  19.007 -0.0629  0.0951  0.2870
53513OCT     C2 7026  19.330  22.667  19.276 -0.2818 -0.0258  0.2114
53514OCT     C1 7027   1.907  19.016  22.692 -0.2094  0.0453  0.2929
53514OCT     C2 7028   2.226  18.726  22.635 -0.1780  0.2032  0.1076
53515OCT     C1 7029  16.071   8.222   6.161  0.0634 -0.4327 -0.0420
53515OCT     C2 7030  16.125   8.325   6.676 -0.4725  0.3147  0.0056
53516OCT     C1 7031   9.109   3.269  17.145 -0.0793  0.0461 -0.2384
53516OCT     C2 7032   8.983   3.465  17.535  0.1970  0.0788  0.1239
53517OCT     C1 7033  19.493   9.057  12.594 -0.1980  0.1727 -0.1653
53517OCT     C2 7034  19.891   9.308  12.650  0.1881  0.1161 -0.0721
53518OCT     C1 7035  14.903  13.872   9.550 -0.3189 -0.2063  0.1224
53518OCT     C2 7036  14.594  14.215   9.601 -0.2582 -0.1750 -0.0940
53519OCT     C1 7037   6.275   1.695  16.355 -0.1254  0.3391 -0.1107
53519OCT     C2 7038   6.442   2.077  16.588 -0.1923  0.1832  0.0823
53520OCT     C1 7039   3.393   5.766   2.155 -0.2898 -0.0618 -0.1493
53520OCT     C2 7040   3.405   5.705   1.673  0.2802 -0.2100  0.1403
53521OCT     C1 7041  18.093  12.037   0.301 -0.1154  0.2576 -0.2184
53521OCT     C2 7042  18.252  12.417   0.571  0.0356 -0.3026 -0.0902
53522OCT     C1 7043  12.494   2.950  16.064  0.0755 -0.1779  0.2811
53522OCT     C2 7044  12.114   3.290  15.998 -0.2893 -0.0520  0.0876
53523OCT     C1 7045  23.586  19.587  14.750  0.0693 -0.0281 -0.1938
53523OCT     C2 7046  23.410  19.183  14.968 -0.1689  0.2859 -0.2466
53524OCT     C1 7047  23.274  10.776   6.559 -0.1452  0.0847 -0.0841
53524OCT     C2 7048  22.898  10.622   6.738  0.0905  0.1343 -0.0491
53525OCT     C1 7049  20.264   6.266  21.930 -0.2314 -0.0285  0.1875
53525OCT     C2 7050  19.912   6.067  22.152  0.1081 -0.0174 -0.2907
53526OCT     C1 7051  21.799   5.177  13.010  0.3051 -0.2247 -0.0370
53526OCT     C2 7052  21.678   4.862  12.752  0.1070  0.0009 -0.2566
53527OCT     C1 7053   5.604  22.418   2.133 -0.3443 -0.0311 -0.0404
53527OCT     C2 7054   5.795  22.084   2.308  0.2020  0.4150 -0.1093
53528OCT     C1 7055   0.116  15.048   9.894  0.5152 -0.1461  0.0863
53528OCT     C2 7056  23.498  14.729   9.865  0.3233  0.1362  0.1651
53529OCT     C1 7057  11.084  21.651   9.246 -0.0341 -0.0867 -0.1691
53529OCT     C2 7058  10.936  21.952   9.595  0.2801 -0.0297 -0.3361
53530OCT     C1 7059  17.152   4.738   9.079 -0.0540  0.1951  0.1377
53530OCT     C2 7060  17.139   5.047   9.451 -0.3929  0.1034  0.2831
53531OCT     C1 7061   2.656  18.603  13.842  0.3916 -0.1082  0.0653
53531OCT     C2 7062   2.623  18.808  13.408 -0.4461  0.3072 -0.0664
53532OCT     C1 7063  23.376   9.346  10.510 -0.3349 -0.2153 -0.0743
53532OCT     C2 7064  23.080   9.027  10.431  0.0830 -0.2062  0.2331
53533OCT     C1 7065  16.133   9.422  22.799 -0.1004 -0.1342 -0.4566
53533OCT     C2 7066  16.031   9.183  23.206 -0.1217  0.0342  0.0001
53534OCT     C1 7067  22.557  21.551  10.097 -0.1635  0.4247  0.2147
53534OCT     C2 7068  22.816  21.536  10.550 -0.3719  0.1194 -0.3270
53535OCT     C1 7069  17.264  14.497   0.397  0.1675  0.3675 -0.0961
53535OCT     C2 7070  17.569  14.351   0.704  0.2917  0.2314 -0.0102
53536OCT     C1 7071  22.312   8.652  21.058  0.1926 -0.0354  0.0986
53536OCT     C2 7072  22.380   8.275  21.378 -0.3358  0.1965  0.0937
53537OCT     C1 7073   5.165  11.942  15.744 -0.0784 -0.2569  0.3072
53537OCT     C2 7074   5.056  12.266  15.388 -0.3115  0.1002  0.2279
53538OCT     C1 7075   7.577  17.230   9.984  0.0648  0.1563 -0.0781
53538OCT     C2 7076   7.476  17.708   9.930 -0.0984 -0.1192  0.1514
53539OCT     C1 7077  16.688  11.479  17.210 -0.1482 -0.0248 -0.1541
53539OCT     C2 7078  16.829  11.651  17.591  0.0750 -0.1261  0.0938
53540OCT     C1 7079  20.156   6.229  16.653  0.0118 -0.4252  0.1154
53540OCT     C2 7080  20.371   5.791  16.607  0.0610 -0.0184  0.0841
53541OCT     C1 7081  18.585  12.469   7.745  0.0054 -0.1191 -0.0870
53541OCT     C2 7082  18.475  12.895   7.542 -0.0210  0.1013 -0.0330
53542OCT     C1 7083  13.569  16.265   3.807 -0.0738  0.1495 -0.1953
53542OCT     C2 7084  14.031  16.198   4.000 -0.2909  0.0041  0.6877
53543OCT     C1 7085   4.739  14.574   0.041 -0.1473 -0.2491 -0.0984
53543OCT     C2 7086   4.625  15.032   0.053 -0.3569  0.4845  0.4153
53544OCT     C1 7087  16.781   4.505   0.966  0.4301 -0.2918  0.1451
53544OCT     C2 7088  17.185   4.730   0.946 -0.0427 -0.1079  0.2900
53545OCT     C1 7089  20.293  17.735   3.012 -0.1383  0.1787  0.1811
53545OCT     C2 7090  20.612  17.954   3.328  0.2854  0.1858 -0.1058
53546OCT     C1 7091   1.672  11.323   5.590 -0.0321  0.1384  0.0354
53546OCT     C2 7092   1.667  11.254   6.034 -0.1045  0.0532  0.1560
53547OCT     C1 7093  17.871  13.140  11.704  0.1827 -0.1306 -0.1393
53547OCT     C2 7094  17.878  13.000  12.122  0.1667 -0.0604 -0.0056
53548OCT     C1 7095  20.777  16.646  18.955  0.1387 -0.1387  0.2424
53548OCT     C2 7096  20.366  16.535  19.162  0.0897 -0.0211 -0.0155
53549OCT     C1 7097  22.221  16.651  12.702  0.0106  0.3896  0.0175
53549OCT     C2 7098  21.908  16.647  12.446  0.0832  0.3234 -0.1038
53550OCT     C1 7099   5.149  11.937  16.302 -0.1781 -0.0019  0.2088
53550OCT     C2 7100   5.081  12.402  16.372  0.2746  0.1702  0.0637
53551OCT     C1 7101  13.667   5.529  20.545  0.1955 -0.1918 -0.0779
53551OCT     C2 7102  13.520   5.967  20.601 -0.2675 -0.1756  0.2545
53552OCT     C1 7103  21.112  18.134  10.604  0.0286  0.1009 -0.2032
53552OCT     C2 7104  21.445  17.794  10.636  0.0900 -0.0959 -0.1254
53553OCT     C1 7105   5.070  13.103   0.061 -0.1743 -0.1112 -0.2477
53553OCT     C2 7106   4.918  13.505  23.732 -0.0056 -0.2669 -0.0858
53554OCT     C1 7107   3.953  15.461  20.422  0.6617 -0.4274 -0.1439
53554OCT     C2 7108   3.965  14.995  20.403 -0.0466 -0.2663  0.3106
53555OCT     C1 7109  10.593  20.205  16.773  0.0716  0.0219 -0.2387
53555OCT     C2 7110  11.069  20.393  16.800  0.1877 -0.0534 -0.0531
53556OCT     C1 7111  18.438  22.258  10.573  0.2890  0.0600 -0.1280
53556OCT     C2 7112  18.426  21.931  10.233 -0.0822 -0.4648 -0.1763
53557OCT     C1 7113   8.748  23.356  22.311 -0.1396 -0.5446 -0.2154
53557OCT     C2 7114   8.512  23.268  22.738 -0.1362 -0.0517 -0.0352
53558OCT     C1 7115  20.478   2.775   2.683  0.0441  0.0730  0.1815
53558OCT     C2 7116  20.796   2.973   2.363 -0.0781  0.0470  0.2944
53559OCT     C1 7117  19.092   8.685  20.843  0.1623  0.0724 -0.4306
53559OCT     C2 7118  19.345   9.039  20.621  0.2807  0.1015  0.1305
53560OCT     C1 7119  12.738   0.110   6.726 -0.2892 -0.3071  0.2074
53560OCT     C2 7120  12.457   0.346   6.407 -0.1638  0.1016 -0.0414
53561OCT     C1 7121   7.018   2.102  16.492 -0.1549  0.0466 -0.0771
53561OCT     C2 7122   7.102   2.137  16.066  0.0878  0.3073 -0.1742
53562OCT     C1 7123   8.258   3.367   7.034 -0.0160  0.3005 -0.1152
53562OCT     C2 7124   7.904   3.300   7.364 -0.0655  0.2988 -0.0273
53563OCT     C1 7125  18.178  19.559  20.988  0.1308  0.2313  0.0001
53563OCT     C2 7126  17.806  19.342  20.812  0.0750 -0.1345  0.3567
53564OCT     C1 7127   8.624   1.336  21.629 -0.0927 -0.1283  0.0845
53564OCT     C2 7128   9.019   1.274  21.501  0.0448 -0.0208  0.0150
53565OCT     C1 7129   1.672   6.489   3.283  0.3036 -0.1972  0.0785
53565OCT     C2 7130   1.342   6.558   2.966  0.0660  0.2374  0.0231
53566OCT     C1 7131   8.409   6.946   4.709  0.2606 -0.2445  0.0772
53566OCT     C2 7132   8.221   7.409   4.816  0.0430  0.0039  0.1137
53567OCT     C1 7133   8.488   1.892  13.287  0.0500 -0.4800  0.1533
53567OCT     C2 7134   8.650   1.624  12.986  0.1915 -0.2512  0.3541
53568OCT     C1 7135  20.407   8.498  23.707  0.0111  0.0164 -0.2534
53568OCT     C2 7136  20.479   8.160  23.415  0.1558 -0.2289 -0.1624
53569OCT     C1 7137  22.401   6.656   3.925 -0.2103 -0.0734  0.2404
53569OCT     C2 7138  21.970   6.459   3.960 -0.1730  0.0496  0.0347
53570OCT     C1 7139   2.810  21.990  13.212 -0.3883  0.2032  0.0983
53570OCT     C2 7140   2.475  21.881  12.830 -0.2464 -0.0450 -0.3968
53571OCT     C1 7141   1.007  14.524  11.405 -0.3781  0.0911  0.1948
53571OCT     C2 7142   1.101  14.237  11.794 -0.0165 -0.0167  0.0212
53572OCT     C1 7143   0.856   3.281  21.732  0.1223 -0.2510 -0.4105
53572OCT     C2 7144   1.311   3.290  21.633  0.3842 -0.0208 -0.0570
53573OCT     C1 7145  16.222  11.592   0.938  0.4794 -0.2945 -0.0840
53573OCT     C2 7146  15.918  11.498   0.583  0.1744 -0.1349  0.0294
53574OCT     C1 7147   0.306  21.848  13.403  0.2543 -0.1533  0.0642
53574OCT     C2 7148  23.694  21.575  13.596 -0.2972  0.4440  0.2097
53575OCT     C1 7149   8.094  18.489   6.746  0.0134 -0.1287 -0.3351
53575OCT     C2 7150   7.975  18.701   6.390  0.1326 -0.4270  0.1033
53576OCT     C1 7151  12.672  15.551  13.468 -0.2095  0.1789  0.0716
53576OCT     C2 7152  12.879  15.203  13.722  0.2672 -0.2212 -0.2586
53577OCT     C1 7153  10.990   4.403  23.526  0.3549  0.1189  0.0944
53577OCT     C2 7154  11.134   4.838  23.489  0.2296 -0.2075 -0.1611
53578OCT     C1 7155  12.715   9.630  18.025 -0.0888 -0.2288 -0.0913
53578OCT     C2 7156  13.097   9.543  17.741  0.2559 -0.0915 -0.0347
53579OCT     C1 7157  20.496  19.364  19.418 -0.0418 -0.1050  0.1206
53579OCT     C2 7158  20.463  19.806  19.389  0.1003 -0.0612  0.1185
53580OCT     C1 7159  16.376  18.541   3.539 -0.3123 -0.0782 -0.3109
53580OCT     C2 7160  16.706  18.399   3.858 -0.1056  0.1197  0.2334
53581OCT     C1 7161   4.784   4.979   6.152  0.1594 -0.2067 -0.0118
53581OCT     C2 7162   4.356   4.685   6.268 -0.1658  0.2237 -0.3292
53582OCT     C1 7163  10.865   3.046   0.926  0.1988 -0.0270  0.3613
53582OCT     C2 7164  10.869   3.276   0.509 -0.1299  0.1680 -0.0952
53583OCT     C1 7165  13.815  22.001   4.123 -0.1645  0.1496  0.5147
53583OCT     C2 7166  13.603  21.950   4.555 -0.0297  0.0988 -0.2290
53584OCT     C1 7167  22.968  21.730   8.691 -0.2567  0.1260  0.0061
53584OCT     C2 7168  23.256  21.979   8.369 -0.1209 -0.0118  0.0867
53585OCT     C1 7169   2.645  23.143   4.698 -0.0538  0.0327 -0.0036
53585OCT     C2 7170   2.512  23.055   5.135  0.0973 -0.2524 -0.2317
53586OCT     C1 7171   2.021  22.970  20.944 -0.1597  0.0277 -0.1431
53586OCT     C2 7172   1.917  22.968  20.503  0.1587  0.1490  0.1164
53587OCT     C1 7173  12.710  12.548  22.571  0.1206  0.3752  0.2162
53587OCT     C2 7174  12.950  12.136  22.501  0.0129  0.1188  0.5625
53588OCT     C1 7175   7.054  18.880   1.569  0.1607  0.0799 -0.0515
53588OCT     C2 7176   7.101  19.309   1.396 -0.2336  0.3696  0.0742
53589OCT     C1 7177  19.885   4.867  16.802 -0.3932 -0.2438 -0.0168
53589OCT     C2 7178  20.258   5.087  16.675 -0.0007 -0.5926  0.0059
53590OCT     C1 7179   3.440  13.775   5.824 -0.4297  0.0519  0.0731
53590OCT     C2 7180   3.048  13.530   5.640  0.1126 -0.1528  0.1532
53591OCT     C1 7181   3.327   8.834  16.928 -0.0204  0.3119  0.3778
53591OCT     C2 7182   2.937   9.089  16.889 -0.1458  0.0390 -0.5241
53592OCT     C1 7183  22.019   5.368   9.993  0.1217  0.4705 -0.3543
53592OCT     C2 7184  22.237   4.961   9.969 -0.3695 -0.3718  0.0133
53593OCT     C1 7185  18.034  20.445   7.253  0.0538  0.0066  0.1761
53593OCT     C2 7186  17.970  20.100   6.955 -0.0319  0.1400 -0.1699
53594OCT     C1 7187   2.985  20.972  21.831 -0.3919 -0.0648 -0.1196
53594OCT     C2 7188   2.863  20.624  21.516  0.1259  0.2510  0.1040
53595OCT     C1 7189   4.485   1.513  23.190 -0.0418  0.0760  0.0226
53595OCT     C2 7190   4.883   1.391  23.419  0.0343  0.1432  0.3737
53596OCT     C1 7191   5.751  10.931   0.007 -0.3163  0.1375 -0.0198
53596OCT     C2 7192   5.644  11.162   0.384 -0.3232 -0.0452 -0.1230
53597OCT     C1 7193  16.860   3.306   3.053  0.0812  0.1607 -0.2524
53597OCT     C2 7194  16.456   3.131   2.758 -0.0603  0.2259  0.0492
53598OCT     C1 7195   0.709  22.690  12.620  0.1765  0.1784 -0.4362
53598OCT     C2 7196   0.398  23.020  12.826 -0.0229 -0.1121 -0.1715
53599OCT     C1 7197   4.542   3.410  22.025  0.0814 -0.0227  0.0971
53599OCT     C2 7198   4.660   3.734  22.400  0.0534 -0.0730  0.0827
53600OCT     C1 7199  13.711  21.671  12.028  0.0955 -0.2236  0.2405
53600OCT     C2 7200  13.758  22.169  11.989 -0.1823  0.2533 -0.0865
53601OCT     C1 7201   6.490  22.276  18.551  0.1027  0.1006 -0.0639
53601OCT     C2 7202   6.763  22.355  18.199  0.0509 -0.1159  0.0179
53602OCT     C1 7203  23.029   9.748   3.351 -0.2006  0.2132 -0.0792
53602OCT     C2 7204  22.990   9.597   2.882  0.1523 -0.1421  0.0152
53603OCT     C1 7205   5.142   7.033  16.312  0.2058  0.0337  0.1036
53603OCT     C2 7206   4.752   6.985  16.085  0.2977 -0.0769  0.0249
53604OCT     C1 7207  18.401  23.561   0.148  0.0228 -0.4145 -0.2217
53604OCT     C2 7208  18.850  23.661   0.145 -0.0113 -0.0468 -0.1123
53605OCT     C1 7209  13.212   7.247   5.563 -0.2410 -0.1165  0.0953
53605OCT     C2 7210  13.517   7.340   5.961  0.2254 -0.2639 -0.0355
53606OCT     C1 7211   3.170  14.244  15.150  0.0851  0.0762 -0.1876
53606OCT     C2 7212   3.098  14.489  15.493  0.0931  0.1695  0.0688
53607OCT     C1 7213  16.174  16.105   9.851 -0.0477 -0.2194  0.3193
53607OCT     C2 7214  16.165  15.651  10.056 -0.1451  0.0682  0.2907
53608OCT     C1 7215   4.410  20.151  14.482  0.0946  0.0083  0.2054
53608OCT     C2 7216   3.947  20.187  14.314  0.0237  0.2472 -0.7512
53609OCT     C1 7217   1.595   6.729  16.031 -0.0299 -0.0362  0.1401
53609OCT     C2 7218   1.354   7.012  15.807  0.0820  0.0764  0.2209
53610OCT     C1 7219  19.068   7.145   0.391  0.1948 -0.0124 -0.0680
53610OCT     C2 7220  19.227   7.625   0.232 -0.0112 -0.1185 -0.0435
53611OCT     C1 7221   0.928  23.511  15.213  0.0742 -0.0005  0.1451
53611OCT     C2 7222   0.732   0.131  15.091  0.1363  0.2211 -0.0369
53612OCT     C1 7223   8.600  12.278  11.047  0.1929 -0.0386  0.1923
53612OCT     C2 7224   8.712  11.845  11.079 -0.0828 -0.1157  0.1634
53613OCT     C1 7225  22.720   8.938  10.065 -0.2590  0.0169  0.1306
53613OCT     C2 7226  22.270   8.836  10.009  0.0866 -0.0069 -0.0276
53614OCT     C1 7227  20.535  22.894  12.321 -0.2529  0.0241 -0.3692
53614OCT     C2 7228  20.406  22.574  12.595 -0.3911 -0.0579  0.1008
53615OCT     C1 7229   9.347  16.397  11.816  0.0953 -0.0465 -0.1837
53615OCT     C2 7230   9.259  16.172  11.431  0.1493  0.1915  0.2047
53616OCT     C1 7231  17.327  18.608   0.076 -0.2718  0.1093 -0.4505
53616OCT     C2 7232  17.084  18.841  23.452  0.0260 -0.0801  0.0203
53617OCT     C1 7233  12.353  15.823   9.907 -0.1518 -0.4362  0.0451
53617OCT     C2 7234  12.581  15.815  10.321 -0.1924  0.3219  0.0065
53618OCT     C1 7235  18.222   5.905  18.118  0.0868 -0.1700 -0.2647
53618OCT     C2 7236  17.802   5.925  18.234 -0.2071 -0.1669  0.2633
53619OCT     C1 7237  15.521  14.426  16.105 -0.4098  0.0691 -0.1677
53619OCT     C2 7238  15.507  14.236  16.500 -0.0312 -0.2538 -0.2037
53620OCT     C1 7239  16.324   2.567  16.651 -0.0168 -0.1932  0.1224
53620OCT     C2 7240  16.033   2.749  16.301  0.1475 -0.0795 -0.0469
53621OCT     C1 7241   5.255  21.637  13.964 -0.3791 -0.1675 -0.2228
53621OCT     C2 7242   5.387  21.793  13.543 -0.2723  0.2920 -0.2262
53622OCT     C1 7243   8.472  13.039  20.638  0.3614 -0.2387 -0.3016
53622OCT     C2 7244   8.420  12.621  20.461  0.0824  0.1918  0.1412
53623OCT     C1 7245   8.126  11.349  15.325  0.0701 -0.2336  0.0688
53623OCT     C2 7246   7.853  11.382  14.940 -0.1147 -0.2318  0.1770
53624OCT     C1 7247   0.169   8.666  23.527  0.0478  0.0637  0.2552
53624OCT     C2 7248   0.262   9.149  23.341  0.0220 -0.3257  0.1896
53625OCT     C1 7249   3.597  12.971   6.252 -0.3876 -0.0583  0.4017
53625OCT     C2 7250   3.220  12.691   6.325 -0.2318 -0.1534 -0.1250
53626OCT     C1 7251  21.133   0.327  20.757  0.4716 -0.5547  0.1306
53626OCT     C2 7252  21.162   0.616  21.178  0.1081 -0.4546  0.1189
53627OCT     C1 7253   2.816  12.038   0.982  0.0627  0.0612  0.3590
53627OCT     C2 7254   3.167  11.836   1.246  0.1721 -0.4768  0.0732
53628OCT     C1 7255  10.386   1.174   3.154  0.0408  0.5924  0.2395
53628OCT     C2 7256  10.623   1.110   3.553 -0.1753  0.5050  0.0588
53629OCT     C1 7257   3.001  16.090  22.676  0.1410  0.1392 -0.0929
53629OCT     C2 7258   2.871  16.128  22.248  0.1709 -0.0419  0.3758
53630OCT     C1 7259   1.254   9.389  23.408  0.1352 -0.1092 -0.1332
53630OCT     C2 7260   1.020   9.224  23.018 -0.2024 -0.3157  0.3156
53631OCT     C1 7261  23.423  18.883  16.495  0.0962  0.1564 -0.3051
53631OCT     C2 7262  23.125  18.500  16.475 -0.1204 -0.0495 -0.0050
53632OCT     C1 7263   4.899  20.932  23.128  0.1945 -0.0894 -0.3988
53632OCT     C2 7264   4.562  20.873  22.776  0.3919  0.1842  0.0193
53633OCT     C1 7265  16.344  13.490  21.048  0.2351 -0.0116 -0.0377
53633OCT     C2 7266  16.307  13.841  21.317 -0.5830  0.1983  0.0292
53634OCT     C1 7267  18.025  18.155   1.648  0.4486  0.1391  0.2614
53634OCT     C2 7268  18.265  17.899   1.402 -0.3099 -0.4060  0.0171
53635OCT     C1 7269   2.912   4.223   1.537  0.0206 -0.0679 -0.0265
53635OCT     C2 7270   2.832   3.831   1.680  0.4921  0.1742  0.3044
53636OCT     C1 7271  18.674   6.149   8.277  0.1139 -0.2429 -0.1991
53636OCT     C2 7272  19.073   6.020   8.510 -0.2193  0.0962 -0.1679
53637OCT     C1 7273  17.449  21.856  21.083 -0.4670  0.2097  0.1949
53637OCT     C2 7274  17.116  22.052  20.901  0.2079  0.0222 -0.0474
53638OCT     C1 7275   6.917  17.982  13.145  0.3472  0.2718  0.0190
53638OCT     C2 7276   7.172  18.374  13.060  0.1592 -0.1011 -0.0790
53639OCT     C1 7277  12.557  10.948  13.093  0.0071 -0.2657  0.2101
53639OCT     C2 7278  12.169  10.821  12.986 -0.0803 -0.3473  0.0240
53640OCT     C1 7279  18.255   9.749  19.178 -0.0173 -0.1253 -0.2012
53640OCT     C2 7280  17.830   9.697  19.032  0.1902  0.1571  0.2567
53641OCT     C1 7281  20.049  18.254   4.631 -0.1491  0.3184 -0.2208
53641OCT     C2 7282  19.708  18.533   4.548 -0.1055  0.1612  0.2407
53642OCT     C1 7283  21.174  12.515   5.445  0.0472  0.2228  0.2453
53642OCT     C2 7284  21.230  12.635   5.914 -0.0711 -0.3673 -0.0251
53643OCT     C1 7285   7.852  12.563   8.116 -0.0479  0.0433  0.1096
53643OCT     C2 7286   8.170  12.859   7.993 -0.1100  0.2707  0.0042
53644OCT     C1 7287   9.285  10.329   3.385  0.0610  0.0866  0.0413
53644OCT     C2 7288   9.670  10.132   3.497 -0.0044  0.1468  0.1443
53645OCT     C1 7289  18.644  22.664  12.669  0.2682  0.1085 -0.1093
53645OCT     C2 7290  18.358  22.870  13.012  0.0940 -0.0660 -0.0084
53646OCT     C1 7291   1.466  22.289   6.497  0.0213 -0.0341  0.1750
53646OCT     C2 7292   1.717  22.497   6.154 -0.1761 -0.2480  0.0144
53647OCT     C1 7293  19.341   1.257   1.946  0.0055  0.1914 -0.2098
53647OCT     C2 7294  19.058   1.322   2.266 -0.2473  0.0360 -0.2156
53648OCT     C1 7295  19.896  12.935  20.350 -0.2304 -0.1737 -0.1811
53648OCT     C2 7296  19.994  12.898  19.871 -0.2444  0.4081 -0.0677
53649OCT     C1 7297  16.096   2.223  10.926 -0.1551 -0.1117 -0.0653
53649OCT     C2 7298  16.275   2.493  11.257 -0.2393 -0.1232  0.2522
53650OCT     C1 7299  18.655  11.353  23.141  0.3480 -0.2206 -0.0688
53650OCT     C2 7300  18.796  11.705  22.855  0.0077  0.0207 -0.0844
53651OCT     C1 7301  10.048  12.472  17.692 -0.0643 -0.1654  0.1563
53651OCT     C2 7302  10.401  12.619  17.913  0.0385  0.1263  0.0608
53652OCT     C1 7303   1.796  14.379  10.625 -0.1338  0.0131 -0.3670
53652OCT     C2 7304   1.701  14.459  10.151  0.0172 -0.0426  0.3984
53653OCT     C1 7305  12.099  17.795  17.154 -0.0412 -0.1787  0.0542
53653OCT     C2 7306  11.739  18.096  17.324 -0.0824  0.1048  0.0998
53654OCT     C1 7307  11.805   6.620  22.283 -0.1432  0.0040  0.0546
53654OCT     C2 7308  11.613   7.074  22.233  0.0534  0.2191 -0.2986
53655OCT     C1 7309  17.218  10.668  16.934 -0.3581 -0.0726 -0.3230
53655OCT     C2 7310  17.659  10.709  16.730  0.0969  0.1396 -0.2037
53656OCT     C1 7311   4.786   8.992   9.262 -0.3237 -0.3271 -0.1969
53656OCT     C2 7312   4.484   8.950   8.932  0.2624 -0.1034 -0.0241
53657OCT     C1 7313  18.722  18.462  16.582  0.2042 -0.0459 -0.1432
53657OCT     C2 7314  18.547  18.827  16.295 -0.1696 -0.3352  0.0999
53658OCT     C1 7315  11.623  21.824  11.875  0.1387 -0.1365  0.0086
53658OCT     C2 7316  12.015  22.006  11.874 -0.3059 -0.2649  0.2814
53659OCT     C1 7317   7.741  19.284   1.203  0.0372 -0.0230  0.3022
53659OCT     C2 7318   7.991  18.946   1.273 -0.1433 -0.1686 -0.3578
53660OCT     C1 7319  11.560   7.803  11.197  0.0118 -0.1394  0.1397
53660OCT     C2 7320  11.714   8.037  10.803 -0.1170 -0.1203 -0.0376
53661OCT     C1 7321  23.431   0.088  23.047 -0.3239  0.0276  0.2780
53661OCT     C2 7322  22.959   0.093  23.191 -0.2210 -0.2174 -0.0817
53662OCT     C1 7323  23.267  11.024   7.228 -0.1588 -0.2271  0.2604
53662OCT     C2 7324  23.107  11.149   6.848 -0.2513 -0.0528  0.1107
53663OCT     C1 7325  23.430  18.821   0.422 -0.2290  0.1176 -0.0557
53663OCT     C2 7326  23.037  18.922   0.146  0.1147  0.1434  0.0369
53664OCT     C1 7327  19.870   4.829  20.619 -0.0069 -0.3630 -0.0061
53664OCT     C2 7328  19.701   4.421  20.728  0.1034  0.3166  0.0821
53665OCT     C1 7329   6.956  17.854  17.845  0.2897  0.1363  0.2319
53665OCT     C2 7330   6.878  18.293  17.698  0.0328 -0.0513  0.0610
53666OCT     C1 7331   4.894   8.879  17.592  0.0744 -0.0053 -0.1240
53666OCT     C2 7332   4.986   9.005  17.140 -0.1043  0.2491  0.1741
53667OCT     C1 7333  20.506  16.765  18.536  0.0085  0.2313  0.1254
53667OCT     C2 7334  20.323  17.049  18.154 -0.0563  0.4207  0.2165
53668OCT     C1 7335   5.418  10.512   8.679 -0.1756 -0.0408  0.1319
53668OCT     C2 7336   4.982  10.553   8.828 -0.0436 -0.2263  0.0635
53669OCT     C1 7337  18.690  10.763  16.773 -0.1369  0.2567  0.0075
53669OCT     C2 7338  18.466  10.359  16.909  0.3307  0.3720  0.1068
53670OCT     C1 7339  20.145  10.467  15.898 -0.0426  0.2272  0.1321
53670OCT     C2 7340  19.974  10.166  15.559 -0.1183 -0.2428 -0.3249
53671OCT     C1 7341  22.228  11.014   5.329  0.0096  0.0506 -0.1194
53671OCT     C2 7342  22.569  11.319   5.323 -0.1373  0.4030 -0.0073
53672OCT     C1 7343  11.337  17.313  19.860  0.0692 -0.2038 -0.0554
53672OCT     C2 7344  11.411  17.616  19.512 -0.2086 -0.1411 -0.1386
53673OCT     C1 7345  15.622  13.181   8.297  0.4261  0.2662  0.0908
53673OCT     C2 7346  15.934  12.820   8.137 -0.1983 -0.2557  0.0134
53674OCT     C1 7347   8.003  10.594   3.227 -0.1440 -0.2514 -0.0571
53674OCT     C2 7348   7.828  10.201   3.400  0.2312 -0.1507 -0.3391
53675OCT     C1 7349  10.488  10.661  21.486  0.2579 -0.2484  0.1906
53675OCT     C2 7350  10.075  10.426  21.365 -0.1453  0.1093  0.2011
53676OCT     C1 7351   7.231  15.865   1.768  0.2776  0.0861 -0.0679
53676OCT     C2 7352   7.477  15.917   1.365 -0.5511 -0.0364  0.1095
53677OCT     C1 7353   4.939   6.335  12.141  0.2208 -0.0961  0.0178
53677OCT     C2 7354   5.313   6.117  11.983 -0.1252 -0.2819  0.0956
53678OCT     C1 7355  17.775  10.271  20.396  0.2502 -0.1297  0.0999
53678OCT     C2 7356  17.463   9.990  20.614  0.2916  0.3835  0.1671
53679OCT     C1 7357   7.225   0.363  18.456 -0.1514  0.0311 -0.1086
53679OCT     C2 7358   7.124  23.706  18.709  0.1881  0.1060  0.1791
53680OCT     C1 7359  15.296   4.354  15.503 -0.5533 -0.2514  0.2309
53680OCT     C2 7360  15.595   4.610  15.326  0.0479  0.0270  0.0225
53681OCT     C1 7361   8.047   0.999   5.870 -0.2216 -0.2081 -0.1202
53681OCT     C2 7362   7.690   0.907   6.138  0.0162 -0.0701  0.5734
53682OCT     C1 7363  16.405  21.201   5.864  0.0630 -0.5658  0.0299
53682OCT     C2 7364  16.872  21.088   5.802 -0.1218  0.3018 -0.0329
53683OCT     C1 7365  20.771  17.648  16.014  0.0036  0.1222  0.0086
53683OCT     C2 7366  21.119  17.427  15.884  0.2790  0.1574 -0.6700
53684OCT     C1 7367   2.305  13.956  22.479  0.0987  0.0108 -0.1676
53684OCT     C2 7368   2.644  14.050  22.772 -0.0898 -0.1753  0.1436
53685OCT     C1 7369   8.918  10.065   5.943 -0.3728 -0.0580  0.0410
53685OCT     C2 7370   8.612   9.944   6.255 -0.0589  0.4014 -0.0555
53686OCT     C1 7371  11.228  18.751  13.186 -0.3284  0.1893  0.3057
53686OCT     C2 7372  10.811  18.965  13.321  0.0469 -0.1036 -0.1801
53687OCT     C1 7373  12.874   6.530  22.102 -0.2635  0.1701  0.1979
53687OCT     C2 7374  12.976   6.530  21.644 -0.0494  0.2971  0.1876
53688OCT     C1 7375   1.308   1.129   0.725  0.3568 -0.1775 -0.1266
53688OCT     C2 7376   0.878   1.237   0.898 -0.5479 -0.0792 -0.0551
53689OCT     C1 7377  19.181   4.120  13.012 -0.0649 -0.0100  0.1535
53689OCT     C2 7378  18.682   4.058  12.854 -0.0377 -0.0603  0.0926
53690OCT     C1 7379   5.904  12.343  16.341  0.0758  0.2172  0.2715
53690OCT     C2 7380   5.942  12.744  16.100 -0.2839  0.2830 -0.2685
53691OCT     C1 7381   9.585  13.975   1.241  0.3922 -0.4942 -0.0187
53691OCT     C2 7382   9.976  13.832   1.483  0.2831 -0.0172  0.4301
53692OCT     C1 7383  18.279   5.611   8.933  0.2619 -0.1183  0.2511
53692OCT     C2 7384  17.835   5.412   8.861 -0.1005 -0.1470 -0.0151
53693OCT     C1 7385  22.915  14.676  20.495  0.1763 -0.0627 -0.0493
53693OCT     C2 7386  22.597  14.869  20.138  0.4951 -0.0995 -0.4292
53694OCT     C1 7387  18.569  13.100  20.505 -0.1073 -0.2499  0.1968
53694OCT     C2 7388  18.313  12.811  20.185  0.3382 -0.1236  0.0379
53695OCT     C1 7389   7.022  17.986   2.234 -0.0574  0.1100 -0.1722
53695OCT     C2 7390   6.748  17.880   1.917 -0.1037  0.0370  0.0360
53696OCT     C1 7391   9.529   9.873   2.076 -0.2975 -0.1649  0.0912
53696OCT     C2 7392   9.533   9.522   1.784  0.0800 -0.0879  0.1667
53697OCT     C1 7393  14.611  12.426   0.662  0.1945  0.2474  0.0176
53697OCT     C2 7394  14.885  12.053   0.518 -0.3146  0.0842  0.1073
53698OCT     C1 7395   7.863  22.765  10.435 -0.3273 -0.1787  0.2381
53698OCT     C2 7396   7.608  22.595  10.811 -0.0390 -0.0129 -0.0561
53699OCT     C1 7397   8.817  23.130  12.971  0.3602 -0.1501  0.0912
53699OCT     C2 7398   9.078  23.534  12.977  0.1133  0.2250 -0.0683
53700OCT     C1 7399  11.969   0.767  20.526 -0.2195 -0.2892 -0.2210
53700OCT     C2 7400  12.392   1.008  20.281 -0.1607  0.1582  0.1355
53701OCT     C1 7401  10.587   6.234   8.962  0.0983 -0.1359  0.0057
53701OCT     C2 7402  10.483   5.773   8.949  0.0519 -0.4582 -0.1029
53702OCT     C1 7403   5.305   7.634   9.069  0.0096  0.0219 -0.2898
53702OCT     C2 7404   4.882   7.823   9.106  0.0327 -0.2415 -0.1871
53703OCT     C1 7405  13.250   7.694  10.626 -0.0328 -0.1083  0.1711
53703OCT     C2 7406  13.133   8.007  10.308  0.1246  0.2664  0.2583
53704OCT     C1 7407  13.756   4.403  19.184 -0.3195 -0.0613  0.0361
53704OCT     C2 7408  13.844   3.968  19.166 -0.2101  0.5310  0.2505
53705OCT     C1 7409   0.826  12.682   4.661 -0.0991  0.0940  0.2715
53705OCT     C2 7410   1.152  13.046   4.730 -0.0599  0.1871  0.1971
53706OCT     C1 7411  23.194   0.138   9.559  0.0529 -0.0084 -0.0199
53706OCT     C2 7412  22.717   0.161   9.663  0.0741  0.2737 -0.0646
53707OCT     C1 7413  23.732  20.114  11.518 -0.2587 -0.0645  0.0940
53707OCT     C2 7414   0.005  19.750  11.816  0.3424  0.1831  0.1620
53708OCT     C1 7415   5.149  22.057  18.649  0.2441  0.2312 -0.3069
53708OCT     C2 7416   5.204  22.543  18.588  0.0397  0.0329 -0.2223
53709OCT     C1 7417   6.356   3.569   8.512  0.2140 -0.1584 -0.2433
53709OCT     C2 7418   6.706   3.391   8.256  0.1822  0.2896 -0.1132
53710OCT     C1 7419   8.193  19.749  19.455  0.0298 -0.3185 -0.1003
53710OCT     C2 7420   8.271  19.597  19.032  0.0319 -0.0941  0.3178
53711OCT     C1 7421  15.378   2.936   5.085  0.0497 -0.0801 -0.3119
53711OCT     C2 7422  15.051   3.231   5.069  0.1578  0.2651 -0.0317
53712OCT     C1 7423  11.329  22.497  20.528 -0.1155  0.0541 -0.0831
53712OCT     C2 7424  11.421  22.546  21.012 -0.0614 -0.0316 -0.2542
53713OCT     C1 7425   6.294   0.890  22.193  0.0199 -0.1167  0.0539
53713OCT     C2 7426   6.180   0.743  21.781 -0.3398 -0.2674 -0.1729
53714OCT     C1 7427   9.995   6.089  23.158 -0.0516 -0.1934  0.0160
53714OCT     C2 7428  10.395   6.093  22.923  0.3480 -0.1048 -0.2650
53715OCT     C1 7429   6.090   5.498   5.388  0.0132 -0.2985  0.4090
53715OCT     C2 7430   6.399   5.277   5.687 -0.2215 -0.1654  0.4094
53716OCT     C1 7431   6.453  18.378  17.386  0.1066  0.0419 -0.2898
53716OCT     C2 7432   6.565  17.895  17.479 -0.0352 -0.1399  0.0876
53717OCT     C1 7433  14.820  21.002  15.550  0.1678  0.1866  0.0894
53717OCT     C2 7434  14.411  21.154  15.534  0.1650 -0.5078  0.6287
53718OCT     C1 7435  16.118  17.815   9.096  0.4173  0.2071 -0.2046
53718OCT     C2 7436  16.577  17.744   9.163 -0.2044  0.0204 -0.5319
53719OCT     C1 7437  18.853  14.133   6.797  0.3086 -0.2100  0.2227
53719OCT     C2 7438  19.050  14.425   6.537  0.1265 -0.0030 -0.2283
53720OCT     C1 7439  14.137  12.634  18.475  0.5575 -0.0897 -0.0714
53720OCT     C2 7440  14.195  12.418  18.846 -0.3078  0.1572 -0.0949
53721OCT     C1 7441  19.339   9.564  21.452 -0.5457  0.1674 -0.2270
53721OCT     C2 7442  19.596   9.955  21.478  0.1342  0.0999 -0.0099
53722OCT     C1 7443   4.040   9.792  20.854 -0.0792 -0.0473  0.1903
53722OCT     C2 7444   3.655   9.971  21.055 -0.2143 -0.0822  0.2034
53723OCT     C1 7445  17.241   3.592   2.770  0.1226 -0.4665 -0.0708
53723OCT     C2 7446  16.968   3.278   2.558 -0.3321  0.3670 -0.4365
53724OCT     C1 7447  22.422   8.952  14.218 -0.1503 -0.0591  0.0561
53724OCT     C2 7448  22.229   9.366  14.069 -0.1535 -0.0057 -0.2198
53725OCT     C1 7449  15.794   0.575  17.097  0.1864 -0.4925 -0.6326
53725OCT     C2 7450  15.484   0.877  17.231 -0.0445  0.3849  0.0061
53726OCT     C1 7451  16.907   5.450   8.548  0.1402  0.2159 -0.1947
53726OCT     C2 7452  16.506   5.610   8.741 -0.1949  0.0991 -0.0068
53727OCT     C1 7453   2.965  23.575  19.748  0.0300  0.0760  0.0629
53727OCT     C2 7454   2.997  23.653  19.292  0.2371  0.0630  0.1057
53728OCT     C1 7455  13.724  15.427   4.329  0.1602  0.1633 -0.2120
53728OCT     C2 7456  14.172  15.333   4.297 -0.0504  0.1832  0.1430
53729OCT     C1 7457   5.719  14.791   6.329  0.4143  0.0656  0.3156
53729OCT     C2 7458   5.820  14.445   6.653  0.3393  0.0704 -0.2734
53730OCT     C1 7459   8.079  10.345   6.904  0.1439 -0.0236 -0.0896
53730OCT     C2 7460   7.889  10.746   7.093 -0.1719  0.2896 -0.0378
53731OCT     C1 7461  21.756  17.681   0.643 -0.1357  0.4217  0.0970
53731OCT     C2 7462  21.857  18.130   0.797  0.0057  0.3577  0.3420
53732OCT     C1 7463  16.454   2.506  20.507 -0.1333 -0.0419  0.2023
53732OCT     C2 7464  16.746   2.726  20.243 -0.1191  0.2991 -0.0180
53733OCT     C1 7465   4.531   8.563   0.998  0.0691  0.2408  0.0671
53733OCT     C2 7466   4.841   8.520   0.686  0.0400 -0.1891  0.2467
53734OCT     C1 7467   3.596  22.954  17.488 -0.0160  0.1674 -0.2854
53734OCT     C2 7468   3.754  22.632  17.289 -0.1560  0.2760 -0.0565
53735OCT     C1 7469  21.615   0.349  21.108  0.1740  0.0705 -0.3493
53735OCT     C2 7470  21.908   0.393  21.485  0.0830 -0.0360  0.1436
53736OCT     C1 7471  14.111   3.792   7.225  0.0639  0.0446 -0.4679
53736OCT     C2 7472  14.198   3.605   6.826  0.0036  0.2435 -0.1311
53737OCT     C1 7473   2.739   3.519  17.593  0.1589  0.0000 -0.1132
53737OCT     C2 7474   2.913   3.148  17.297  0.0053 -0.4108  0.0688
53738OCT     C1 7475   2.005   1.593   7.818  0.0359 -0.3376  0.2324
53738OCT     C2 7476   1.903   1.609   8.276  0.0277 -0.0686 -0.0372
53739OCT     C1 7477   5.411   0.607   1.338 -0.0253  0.1061 -0.0780
53739OCT     C2 7478   5.565   0.964   1.116  0.0132 -0.3025  0.1336
53740OCT     C1 7479   3.217  18.753  17.860  0.1850 -0.0047 -0.0482
53740OCT     C2 7480   3.499  18.846  18.233  0.1475 -0.1496 -0.2570
53741OCT     C1 7481   0.569  13.625  19.794  0.2771 -0.2983  0.4681
53741OCT     C2 7482   0.199  13.299  19.802  0.1864 -0.0998 -0.5341
53742OCT     C1 7483   3.998  10.693   7.315  0.0069  0.1616  0.0116
53742OCT     C2 7484   3.795  11.142   7.255  0.2162 -0.0342  0.0673
53743OCT     C1 7485  17.580  17.077   7.914  0.1029  0.2552 -0.0228
53743OCT     C2 7486  17.890  17.429   7.874 -0.1935 -0.0362 -0.3755
53744OCT     C1 7487   0.424  17.428  21.320  0.0128 -0.1285 -0.0123
53744OCT     C2 7488   0.392  16.935  21.527  0.5172 -0.1093  0.0750
53745OCT     C1 7489  17.080  16.243   0.405  0.4702 -0.3448 -0.1233
53745OCT     C2 7490  17.351  16.138   0.075  0.0093 -0.1719 -0.1127
53746OCT     C1 7491  16.316  17.735  13.045 -0.2288 -0.1554  0.1195
53746OCT     C2 7492  16.561  17.975  13.360  0.1340  0.1447 -0.0381
53747OCT     C1 7493   1.298  10.020   1.453 -0.0547  0.0145 -0.1038
53747OCT     C2 7494   1.455  10.452   1.403 -0.0571  0.2991  0.4463
53748OCT     C1 7495  12.772  15.853  18.548  0.0365 -0.1132 -0.2106
53748OCT     C2 7496  12.949  15.414  18.418 -0.0358 -0.1676 -0.0980
53749OCT     C1 7497  20.358   3.863  13.952 -0.5288 -0.0387  0.0144
53749OCT     C2 7498  20.167   4.166  13.733  0.2562 -0.0794 -0.1325
53750OCT     C1 7499  16.770  11.031  22.594 -0.2218 -0.5382  0.1067
53750OCT     C2 7500  16.780  10.859  23.012 -0.0154  0.1393 -0.2486
53751OCT     C1 7501   7.105   9.954  16.995  0.1625  0.1039  0.0340
53751OCT     C2 7502   7.173   9.520  16.869  0.1610 -0.0487  0.3043
53752OCT     C1 7503   6.937   1.245  17.484  0.0871 -0.0961 -0.2804
53752OCT     C2 7504   6.606   1.443  17.675  0.2096  0.3083 -0.2273
53753OCT     C1 7505  22.350  17.675  13.333 -0.0028  0.3908  0.2696
53753OCT     C2 7506  22.302  17.596  13.817  0.4801 -0.1891  0.1623
53754OCT     C1 7507   6.166  22.406  22.104 -0.0860  0.2538 -0.2141
53754OCT     C2 7508   5.723  22.349  22.066 -0.1652  0.1137 -0.1231
53755OCT     C1 7509  10.017  12.757  14.297 -0.1267 -0.0211 -0.1644
53755OCT     C2 7510   9.996  13.060  14.677 -0.2449  0.0856 -0.2802
53756OCT     C1 7511  14.254  19.051  22.542 -0.0226  0.3419  0.2212
53756OCT     C2 7512  14.493  19.030  22.129  0.0901 -0.5478  0.1217
53757OCT     C1 7513  19.200   2.361  21.311 -0.1039  0.2628  0.0954
53757OCT     C2 7514  18.768   2.211  21.528 -0.0656 -0.2849 -0.1926
53758OCT     C1 7515  13.667  22.949   5.313  0.1704 -0.2112 -0.0883
53758OCT     C2 7516  13.694  23.039   4.867  0.3932 -0.0684  0.0786
53759OCT     C1 7517   8.847  13.821  10.537 -0.0516  0.2440  0.0635
53759OCT     C2 7518   8.991  13.377  10.356 -0.1981 -0.2147 -0.7955
53760OCT     C1 7519   8.757  22.292  15.080  0.1682 -0.0164  0.0379
53760OCT     C2 7520   8.358  22.110  15.111  0.2780  0.1083  0.5722
53761OCT     C1 7521  14.849   5.643   4.753  0.1504 -0.0743  0.0713
53761OCT     C2 7522  14.853   5.787   4.269 -0.2049  0.0610  0.2708
53762OCT     C1 7523   3.066  18.745  15.093  0.0965 -0.1055 -0.1019
53762OCT     C2 7524   3.473  18.524  15.031 -0.3797  0.2464  0.1657
53763OCT     C1 7525   5.038   3.046   7.815 -0.0448 -0.0318  0.1154
53763OCT     C2 7526   5.391   2.749   7.736  0.0523 -0.4648 -0.1974
53764OCT     C1 7527   7.750   3.613  22.202 -0.0393 -0.1033  0.3125
53764OCT     C2 7528   7.430   3.272  22.119 -0.0526  0.1457  0.1724
53765OCT     C1 7529  13.028   3.620  18.059 -0.1338 -0.2226  0.0720
53765OCT     C2 7530  12.832   3.699  17.628 -0.0218 -0.0608 -0.0082
53766OCT     C1 7531  11.548   0.311   8.364 -0.1103 -0.2733  0.1272
53766OCT     C2 7532  11.230   0.024   8.168  0.0382  0.1206  0.2395
53767OCT     C1 7533   8.984   8.516  23.504  0.5634  0.1220 -0.0980
53767OCT     C2 7534   8.757   8.144  23.224 -0.1671 -0.1453  0.0268
53768OCT     C1 7535   9.736   1.846   0.407  0.1425  0.4411  0.1450
53768OCT     C2 7536  10.056   2.112   0.574 -0.3317 -0.0715 -0.4256
53769OCT     C1 7537  17.139   7.546  15.041  0.0081 -0.3282 -0.0955
53769OCT     C2 7538  17.214   7.904  15.323  0.2563  0.2323  0.3205
53770OCT     C1 7539  12.314   3.356  18.708 -0.1294 -0.1572  0.1472
53770OCT     C2 7540  12.168   3.203  18.362  0.2589  0.4474 -0.0437
53771OCT     C1 7541  10.728  19.727  22.323 -0.0237  0.1565  0.1049
53771OCT     C2 7542  10.832  19.924  22.801  0.1059  0.3038 -0.2524
53772OCT     C1 7543   7.249   4.135  19.410 -0.0993  0.0826  0.0954
53772OCT     C2 7544   7.126   3.688  19.262  0.0863 -0.3108  0.1056
53773OCT     C1 7545  21.338   7.743  14.229  0.1002  0.1614  0.0714
53773OCT     C2 7546  21.716   7.958  14.253 -0.2236  0.3625 -0.0395
53774OCT     C1 7547  10.530  14.564  12.164  0.0214  0.0441  0.0918
53774OCT     C2 7548  10.170  14.594  11.896 -0.2408  0.3571  0.0344
53775OCT     C1 7549  20.073  11.348  22.926 -0.2948  0.0337 -0.1659
53775OCT     C2 7550  20.000  11.728  22.710 -0.2768 -0.3763 -0.3114
53776OCT     C1 7551  19.648  15.881   4.807  0.0145  0.1802 -0.2860
53776OCT     C2 7552  19.828  16.305   5.059  0.1224  0.1632 -0.1547
53777OCT     C1 7553   3.869  16.114   0.288 -0.1078  0.0300  0.2499
53777OCT     C2 7554   4.023  16.164  23.575 -0.1475  0.0520  0.1245
53778OCT     C1 7555   7.899   2.697  13.560  0.1726  0.2097  0.1904
53778OCT     C2 7556   7.670   2.686  13.995  0.2532  0.0255 -0.1079
53779OCT     C1 7557   2.865  20.029  16.056 -0.3013 -0.0715 -0.4091
53779OCT     C2 7558   3.000  19.612  16.157 -0.2797  0.1906  0.1109
53780OCT     C1 7559  15.252  23.442  16.139  0.1866 -0.0760 -0.0341
53780OCT     C2 7560  14.836  23.387  16.386  0.0817  0.4657 -0.2523
53781OCT     C1 7561   3.368  22.332  20.108 -0.0228 -0.1025 -0.1547
53781OCT     C2 7562   2.987  22.504  19.850  0.5327  0.3671 -0.3687
53782OCT     C1 7563  19.103  17.494   0.904 -0.1294  0.1782  0.0647
53782OCT     C2 7564  18.937  17.129   1.197 -0.2408 -0.3963 -0.0945
53783OCT     C1 7565  15.066   6.654   2.594 -0.0264 -0.1023  0.1621
53783OCT     C2 7566  15.263   7.114   2.511  0.1385  0.3049 -0.2940
53784OCT     C1 7567  14.784   4.341   0.730 -0.2660  0.1200 -0.0828
53784OCT     C2 7568  14.461   4.024   0.633 -0.2165  0.0265  0.3521
53785OCT     C1 7569  15.308  20.080  17.763  0.1344  0.0383  0.0064
53785OCT     C2 7570  14.970  20.223  17.483 -0.1722 -0.0216  0.2496
53786OCT     C1 7571   7.406  18.844  14.897 -0.0306  0.1261  0.4351
53786OCT     C2 7572   6.880  19.001  14.979 -0.0696 -0.2890  0.3023
53787OCT     C1 7573  13.031   2.706  17.003  0.1129  0.2099  0.2248
53787OCT     C2 7574  13.019   3.149  16.846  0.1140  0.3199  0.1819
53788OCT     C1 7575  20.108  16.543  13.294 -0.1204 -0.0921  0.2443
53788OCT     C2 7576  20.197  16.551  13.788  0.2057  0.1546 -0.2206
53789OCT     C1 7577  15.853  14.046   8.516 -0.3541 -0.3007 -0.0716
53789OCT     C2 7578  16.093  13.613   8.538 -0.0863 -0.0451 -0.2988
53790OCT     C1 7579  23.572  18.394   2.455  0.0054  0.2830  0.3243
53790OCT     C2 7580  23.214  18.694   2.402 -0.1909  0.4606 -0.2051
53791OCT     C1 7581  14.767  16.787  14.535 -0.2261 -0.3477  0.2127
53791OCT     C2 7582  15.127  16.661  14.805 -0.0482 -0.2121 -0.2723
53792OCT     C1 7583   5.339  18.196  14.185  0.0806 -0.2385 -0.0776
53792OCT     C2 7584   5.465  18.435  13.784  0.0883  0.0923 -0.0503
53793OCT     C1 7585  14.478   1.682  23.692 -0.2308  0.2096 -0.2543
53793OCT     C2 7586  14.715   1.836  23.317 -0.0205  0.0154  0.0170
53794OCT     C1 7587   8.349   7.353  15.145  0.0723  0.2054 -0.2385
53794OCT     C2 7588   7.908   7.405  15.274 -0.3332 -0.2151 -0.0322
53795OCT     C1 7589  14.042  16.071   8.620  0.1568 -0.2411 -0.0259
53795OCT     C2 7590  14.266  15.775   8.904 -0.3330 -0.3158 -0.3819
53796OCT     C1 7591   5.183  21.052   9.820  0.2457 -0.0177  0.3341
53796OCT     C2 7592   4.884  20.748   9.993  0.0794  0.0521  0.1165
53797OCT     C1 7593  21.773  13.960  20.549  0.0034 -0.2145 -0.1179
53797OCT     C2 7594  21.760  14.328  20.361 -0.1085 -0.0825 -0.0846
53798OCT     C1 7595  19.718   4.357  18.994  0.2614  0.0024 -0.1887
53798OCT     C2 7596  19.650   4.113  19.378 -0.1372 -0.0964  0.0672
53799OCT     C1 7597  12.024   3.086  21.561  0.0731 -0.1478  0.1087
53799OCT     C2 7598  11.734   3.042  21.225 -0.1810 -0.0664  0.2321
53800OCT     C1 7599  22.946  12.636  18.659  0.2172  0.0023  0.0941
53800OCT     C2 7600  22.903  12.407  19.013  0.1697  0.1597 -0.0163
53801OCT     C1 7601   6.465   2.405  10.920  0.0415  0.2185  0.1101
53801OCT     C2 7602   6.176   2.662  11.087 -0.0732 -0.0801  0.1931
53802OCT     C1 7603  19.124  12.541  23.429 -0.0444  0.2814  0.0465
53802OCT     C2 7604  19.343  12.496  23.056 -0.0622  0.1527  0.2644
53803OCT     C1 7605   3.076  14.387  20.328 -0.2396 -0.0425 -0.0968
53803OCT     C2 7606   2.896  14.825  20.270  0.0604 -0.1078 -0.0276
53804OCT     C1 7607  12.162  17.549   5.288  0.1640 -0.0620  0.0452
53804OCT     C2 7608  11.759  17.644   5.319 -0.3018 -0.1177 -0.1605
53805OCT     C1 7609  15.497   5.101   5.010  0.1019  0.1463  0.3472
53805OCT     C2 7610  15.072   5.300   5.140 -0.3158  0.1448  0.2279
53806OCT     C1 7611  16.652   0.412   6.535  0.1337  0.3187  0.1286
53806OCT     C2 7612  17.110   0.236   6.510 -0.1203 -0.0578 -0.0444
53807OCT     C1 7613   8.591  18.170   5.005  0.2124  0.0778 -0.0595
53807OCT     C2 7614   8.358  18.496   4.699 -0.1230  0.3444  0.0796
53808OCT     C1 7615   1.503   3.140   7.456  0.1755 -0.0163 -0.0012
53808OCT     C2 7616   1.714   3.525   7.267  0.2912 -0.0579 -0.2743
53809OCT     C1 7617  20.199   4.021   0.740  0.3348  0.1506 -0.3295
53809OCT     C2 7618  19.746   4.032   0.632  0.1874 -0.0250  0.1297
53810OCT     C1 7619   8.192   9.960  10.934  0.1484  0.0467 -0.4198
53810OCT     C2 7620   8.613   9.831  10.837 -0.0380 -0.0646  0.2520
53811OCT     C1 7621  15.754  11.491  22.737 -0.3204 -0.4259  0.0075
53811OCT     C2 7622  15.991  11.927  22.766 -0.2463  0.1685  0.3803
53812OCT     C1 7623  15.065  19.699  17.491  0.1261  0.3690 -0.1832
53812OCT     C2 7624  14.957  19.303  17.277 -0.3195  0.1710  0.3317
53813OCT     C1 7625  19.600  18.742   8.135 -0.2584  0.1904  0.0085
53813OCT     C2 7626  19.197  18.635   7.945 -0.0624 -0.2903 -0.1403
53814OCT     C1 7627  12.858  14.229  16.281 -0.0105 -0.1127  0.1455
53814OCT     C2 7628  12.433  14.089  16.436 -0.1182 -0.1532 -0.0884
53815OCT     C1 7629  21.107  13.023   0.764 -0.0756  0.2364 -0.0541
53815OCT     C2 7630  21.292  13.229   1.090 -0.3190  0.0011  0.2193
53816OCT     C1 7631  20.658  10.737   2.059  0.2147  0.2135  0.1155
53816OCT     C2 7632  21.027  10.849   1.838  0.0377  0.0854  0.1892
53817OCT     C1 7633   5.389  14.004  12.514  0.3152  0.1039 -0.3912
53817OCT     C2 7634   5.724  13.651  12.573  0.0900  0.1140 -0.4178
53818OCT     C1 7635   6.733  12.954   7.135  0.0730  0.0928  0.1739
53818OCT     C2 7636   6.834  13.142   7.466 -0.1651  0.1015 -0.0528
53819OCT     C1 7637   9.820  14.693   9.887  0.1525 -0.1974  0.0608
53819OCT     C2 7638   9.398  14.663  10.049 -0.0275  0.0511  0.1069
53820OCT     C1 7639  19.561  15.274  17.022 -0.2176  0.2421  0.0350
53820OCT     C2 7640  19.216  14.949  17.050  0.1934 -0.1892 -0.1599
53821OCT     C1 7641  22.903  14.520  11.027 -0.1508  0.1211 -0.1369
53821OCT     C2 7642  22.641  14.781  10.787  0.0918  0.0287 -0.1691
53822OCT     C1 7643   3.645  20.883  10.556  0.2494  0.5158 -0.0737
53822OCT     C2 7644   3.560  21.070  10.994  0.1532  0.0351 -0.2507
53823OCT     C1 7645  18.023   4.590  22.000  0.1546 -0.1214  0.2137
53823OCT     C2 7646  18.042   4.970  21.704  0.0189 -0.1602 -0.1337
53824OCT     C1 7647  22.025   3.181  18.883 -0.1831  0.0297  0.3319
53824OCT     C2 7648  22.002   2.966  19.333 -0.1299  0.0894 -0.0864
53825OCT     C1 7649   2.429   2.971  14.880  0.0935 -0.3599 -0.0344
53825OCT     C2 7650   2.076   3.097  14.599  0.1770  0.0409  0.1095
53826OCT     C1 7651  15.970  20.018  14.522 -0.0853 -0.1716 -0.2840
53826OCT     C2 7652  16.370  19.955  14.283 -0.2154  0.1046  0.0276
53827OCT     C1 7653  15.760   3.509   4.311  0.1690 -0.0829 -0.1719
53827OCT     C2 7654  15.885   3.215   3.958 -0.0813  0.0611  0.1739
53828OCT     C1 7655   3.762   6.145  18.257  0.1839 -0.2369  0.1387
53828OCT     C2 7656   4.082   6.038  17.997  0.4383 -0.3239 -0.1167
53829OCT     C1 7657  18.006  21.355   0.959 -0.1123  0.1325  0.4171
53829OCT     C2 7658  18.196  21.165   1.317 -0.2121 -0.0232 -0.1912
53830OCT     C1 7659  12.613  22.311  12.273 -0.1362 -0.3744 -0.2625
53830OCT     C2 7660  12.338  22.556  12.539 -0.1695  0.3567 -0.0486
53831OCT     C1 7661  17.417  21.365  10.978  0.0458  0.0796  0.0369
53831OCT     C2 7662  17.557  20.972  11.155 -0.5283  0.1048  0.1135
53832OCT     C1 7663   9.542  13.060  16.706 -0.0574 -0.0689  0.3198
53832OCT     C2 7664   9.329  13.123  17.081 -0.1661  0.3070  0.0422
53833OCT     C1 7665  20.199  19.719  16.653 -0.0827 -0.2923 -0.2701
53833OCT     C2 7666  20.392  19.979  17.000 -0.2949 -0.1923 -0.0912
53834OCT     C1 7667   1.075  12.356  12.064 -0.2712 -0.0841 -0.1572
53834OCT     C2 7668   1.438  12.413  11.733  0.1972 -0.0619 -0.1868
53835OCT     C1 7669   6.346  22.582   1.523  0.6172 -0.0180 -0.3942
53835OCT     C2 7670   6.586  23.006   1.464  0.1484  0.4479 -0.0273
53836OCT     C1 7671   3.427  10.772  11.329 -0.1595 -0.1531 -0.0422
53836OCT     C2 7672   3.320  10.389  11.120 -0.0304  0.0505 -0.1956
53837OCT     C1 7673   9.307  20.795   2.672  0.3125 -0.0869 -0.1727
53837OCT     C2 7674   9.324  21.255   2.866  0.1741  0.0291 -0.2616
53838OCT     C1 7675   8.031  16.633  23.247  0.5029  0.0607  0.0302
53838OCT     C2 7676   7.644  16.654  23.404 -0.2199 -0.1180  0.1268
53839OCT     C1 7677  19.241  14.102   6.154 -0.5195  0.2215 -0.0126
53839OCT     C2 7678  18.994  14.461   6.016 -0.3076  0.1304 -0.1128
53840OCT     C1 7679  21.344   9.099  23.138  0.0762  0.3069 -0.1035
53840OCT     C2 7680  21.599   9.392  22.887  0.0185 -0.0607  0.0239
53841OCT     C1 7681  16.444   0.010   9.769  0.0321 -0.2237  0.1976
53841OCT     C2 7682  16.508  23.515   9.438  0.0078 -0.3497 -0.1785
53842OCT     C1 7683   9.542  18.674   2.803  0.1103  0.1222  0.3217
53842OCT     C2 7684   9.384  19.107   2.832  0.0709 -0.0669 -0.4137
53843OCT     C1 7685   8.186  21.049  23.100  0.1560  0.1088  0.0558
53843OCT     C2 7686   7.775  21.153  23.260  0.2585  0.1530  0.0394
53844OCT     C1 7687  14.394  11.441   9.576 -0.1010 -0.1201 -0.0939
53844OCT     C2 7688  14.063  11.261   9.852  0.1734  0.1195  0.2333
53845OCT     C1 7689   0.352  18.506   6.012  0.0577  0.2111 -0.0238
53845OCT     C2 7690   0.451  18.761   6.399 -0.2742 -0.0614 -0.0041
53846OCT     C1 7691   6.560  19.418   1.200 -0.3074  0.1760 -0.1332
53846OCT     C2 7692   6.344  19.061   0.983  0.0251 -0.0905  0.2551
53847OCT     C1 7693  12.578   1.127   1.111  0.0645  0.1707 -0.2523
53847OCT     C2 7694  12.444   0.698   0.989 -0.0973  0.0401 -0.1251
53848OCT     C1 7695  13.854  15.034   7.859  0.2407 -0.1816  0.0178
53848OCT     C2 7696  13.982  15.045   8.304  0.1831  0.3372  0.0221
53849OCT     C1 7697  21.892  18.141  23.025  0.0709  0.0317  0.3031
53849OCT     C2 7698  21.771  18.495  23.234  0.0676  0.1102  0.0382
53850OCT     C1 7699  15.789  21.864  16.575 -0.1296 -0.0007 -0.0676
53850OCT     C2 7700  15.874  21.432  16.381 -0.1066  0.0982 -0.2402
53851OCT     C1 7701   9.774  12.285   7.031 -0.3781 -0.0407  0.0457
53851OCT     C2 7702   9.362  12.336   6.848 -0.0303  0.2516  0.1437
53852OCT     C1 7703  11.338  20.815  17.529  0.0452  0.1499 -0.4388
53852OCT     C2 7704  11.280  20.786  17.096 -0.0866 -0.2114  0.3090
53853OCT     C1 7705  20.213  11.270  14.024 -0.0757 -0.0471  0.0426
53853OCT     C2 7706  19.910  11.467  13.719  0.0279  0.3187  0.1739
53854OCT     C1 7707  17.063  13.769  13.139  0.0672 -0.3323  0.2359
53854OCT     C2 7708  17.311  13.389  13.203 -0.0111 -0.0571 -0.0622
53855OCT     C1 7709   4.718  12.840  22.938 -0.0112 -0.1022 -0.3564
53855OCT     C2 7710   4.996  13.191  22.794  0.1484 -0.1394  0.0791
53856OCT     C1 7711  23.286  14.516   0.483 -0.2729  0.1332  0.0733
53856OCT     C2 7712  23.518  14.881   0.225  0.1875  0.0049 -0.4031
53857OCT     C1 7713  20.748   2.522   4.341  0.2939  0.0510 -0.1502
53857OCT     C2 7714  20.577   2.908   4.089  0.3544  0.0658 -0.3041
53858OCT     C1 7715   2.754   7.351  13.090  0.1968 -0.0688 -0.3418
53858OCT     C2 7716   2.625   6.881  13.030  0.0833 -0.0586  0.2663
53859OCT     C1 7717  10.569  11.804  13.750  0.1122 -0.2268  0.0991
53859OCT     C2 7718  11.000  11.767  13.665 -0.1310 -0.1036  0.0330
53860OCT     C1 7719  20.323   0.720  11.766 -0.2568  0.2328 -0.0150
53860OCT     C2 7720  20.282   0.568  11.367 -0.1604  0.2014  0.1418
53861OCT     C1 7721  20.188  10.907   7.961  0.1250  0.2234 -0.1944
53861OCT     C2 7722  20.044  11.147   8.303 -0.1526  0.3751  0.1286
53862OCT     C1 7723  20.748  15.604   9.214 -0.1227  0.1223 -0.1349
53862OCT     C2 7724  21.096  15.787   8.945  0.0450  0.1181 -0.0994
53863OCT     C1 7725   9.553   6.061  13.020 -0.1279  0.0536 -0.2521
53863OCT     C2 7726   9.901   5.788  13.182  0.1656 -0.0757 -0.0020
53864OCT     C1 7727  12.606   7.983  18.392  0.1230  0.0741 -0.0240
53864OCT     C2 7728  12.468   8.258  18.069  0.1536 -0.3624 -0.1302
53865OCT     C1 7729  13.926   0.750  23.069  0.0485  0.1717 -0.1310
53865OCT     C2 7730  14.058   0.358  23.063 -0.0118  0.2345  0.3634
53866OCT     C1 7731  21.835  10.742  19.227 -0.3461  0.1147 -0.0286
53866OCT     C2 7732  22.172  10.362  19.177  0.2784  0.0921 -0.1310
53867OCT     C1 7733  12.698   2.447  14.279  0.4521 -0.1594 -0.2287
53867OCT     C2 7734  13.047   2.464  13.981  0.0179  0.2941  0.1861
53868OCT     C1 7735  17.724   9.747   6.187  0.2597 -0.2443  0.0157
53868OCT     C2 7736  17.565  10.150   6.309  0.0006 -0.4820 -0.1218
53869OCT     C1 7737   6.997  21.326  11.700  0.1341  0.0015 -0.0086
53869OCT     C2 7738   6.837  21.024  11.410 -0.3501 -0.5013 -0.1978
53870OCT     C1 7739  20.025   8.251   3.678 -0.1857  0.2778  0.2083
53870OCT     C2 7740  20.136   8.571   3.931  0.1438 -0.0730 -0.0888
53871OCT     C1 7741  22.978  11.965  15.181 -0.1239 -0.2074 -0.3465
53871OCT     C2 7742  23.241  11.940  15.572 -0.0053 -0.0123 -0.0423
53872OCT     C1 7743  10.098  19.930   1.544  0.3226  0.1775 -0.1132
53872OCT     C2 7744   9.938  20.385   1.605 -0.0349 -0.1087  0.2778
53873OCT     C1 7745  22.226  16.572   9.697  0.1039  0.0017  0.3885
53873OCT     C2 7746  21.820  16.753   9.681  0.1008 -0.1488  0.3822
53874OCT     C1 7747  14.944  10.956   2.397 -0.3078 -0.0355 -0.0271
53874OCT     C2 7748  15.000  11.014   2.819  0.2814 -0.0977  0.0718
53875OCT     C1 7749  21.230   9.780   2.933 -0.2819 -0.0668  0.3712
53875OCT     C2 7750  21.275   9.439   2.633 -0.2417 -0.1195  0.0769
53876OCT     C1 7751  19.903  23.279  10.134  0.2555 -0.2955 -0.1064
53876OCT     C2 7752  19.871  22.924   9.791 -0.1081  0.2614  0.1585
53877OCT     C1 7753  10.889   6.104   9.464 -0.1752 -0.1306  0.1725
53877OCT     C2 7754  11.041   6.116   9.014  0.0254  0.2272  0.1146
53878OCT     C1 7755   1.839   4.877  11.979 -0.3334 -0.1348  0.1143
53878OCT     C2 7756   1.643   5.236  12.193 -0.0746  0.1367  0.4286
53879OCT     C1 7757  15.145   2.769  13.294 -0.1475 -0.5383  0.5545
53879OCT     C2 7758  15.463   2.750  12.928  0.1088  0.0265 -0.2258
53880OCT     C1 7759   0.754  14.613  21.254 -0.0081 -0.2195  0.3135
53880OCT     C2 7760   0.934  14.214  21.419  0.2223  0.1425 -0.2440
53881OCT     C1 7761  20.795  23.191  20.399 -0.2500  0.3557  0.0789
53881OCT     C2 7762  20.969  23.199  20.772  0.4089 -0.1870  0.4425
53882OCT     C1 7763   9.860   7.761   9.085 -0.4286  0.0176  0.0685
53882OCT     C2 7764   9.729   7.858   9.545 -0.2976 -0.0419  0.0685
53883OCT     C1 7765  10.935   7.365   5.100  0.2609 -0.3073  0.2391
53883OCT     C2 7766  11.063   6.943   5.397 -0.0617 -0.3051  0.0417
53884OCT     C1 7767  11.380  22.943   5.034  0.2370 -0.0876  0.0202
53884OCT     C2 7768  11.770  23.064   4.674 -0.0595  0.0794  0.5996
53885OCT     C1 7769   0.543   8.684   4.536  0.0863 -0.2162 -0.2399
53885OCT     C2 7770   0.975   8.643   4.323 -0.2228 -0.1890 -0.0706
53886OCT     C1 7771   1.545   5.927   6.205 -0.4510  0.2850  0.0148
53886OCT     C2 7772   1.280   6.152   5.908  0.1689  0.0193  0.3743
53887OCT     C1 7773   3.246  21.776  13.745 -0.1787 -0.1023  0.2235
53887OCT     C2 7774   3.662  21.726  13.968  0.2293 -0.0797 -0.3107
53888OCT     C1 7775  21.079  16.992   3.648  0.6048 -0.1591  0.2382
53888OCT     C2 7776  21.473  17.081   3.742  0.0393 -0.5961  0.3643
53889OCT     C1 7777  10.307   8.935  20.601  0.1309  0.0508  0.2191
53889OCT     C2 7778  10.262   9.220  21.025 -0.2334  0.1246 -0.1145
53890OCT     C1 7779   0.153   8.380   3.186 -0.1627  0.1253  0.0653
53890OCT     C2 7780   0.243   8.843   3.235 -0.5307 -0.5804  0.4384
53891OCT     C1 7781  10.410  19.924   1.964  0.0684 -0.0359  0.0745
53891OCT     C2 7782  10.213  20.352   2.005  0.2246 -0.1449  0.1360
53892OCT     C1 7783  14.980  12.307  12.068  0.5273 -0.1577 -0.0006
53892OCT     C2 7784  14.745  12.771  12.038  0.0363  0.3729 -0.1660
53893OCT     C1 7785  14.249  11.467   6.850 -0.0328 -0.0883 -0.0216
53893OCT     C2 7786  13.795  11.422   6.706  0.1043 -0.1844  0.1137
53894OCT     C1 7787  14.683  10.235  21.512 -0.1215  0.0356 -0.3030
53894OCT     C2 7788  14.808  10.155  21.092 -0.1187 -0.0593 -0.0261
53895OCT     C1 7789   0.075  20.919  23.276 -0.1853  0.1236  0.1241
53895OCT     C2 7790  23.570  20.515  23.200  0.0169  0.2368 -0.3262
53896OCT     C1 7791   2.626  22.010  15.014 -0.1541  0.1099 -0.3291
53896OCT     C2 7792   2.679  21.557  14.822  0.2692 -0.3222  0.0721
53897OCT     C1 7793  21.480  20.180   3.559  0.1345  0.0510  0.2267
53897OCT     C2 7794  21.227  19.853   3.822  0.0971 -0.0497  0.1144
53898OCT     C1 7795  11.441  16.159   6.790 -0.2550  0.3241 -0.1438
53898OCT     C2 7796  11.827  16.248   6.977  0.0065 -0.1230 -0.1019
53899OCT     C1 7797  21.367   2.943   0.627 -0.1072  0.1611  0.1873
53899OCT     C2 7798  21.003   2.649   0.458  0.0931 -0.0894 -0.1515
53900OCT     C1 7799  19.978   8.114  18.479  0.0716 -0.1813  0.3676
53900OCT     C2 7800  20.268   7.795  18.503 -0.0741  0.1361 -0.1252
53901OCT     C1 7801   8.137  13.957  17.756  0.0002  0.0120  0.0346
53901OCT     C2 7802   8.549  13.787  17.834 -0.2786 -0.2227  0.1244
53902OCT     C1 7803  17.357   1.644  21.255  0.2322 -0.1444 -0.2200
53902OCT     C2 7804  17.724   1.346  21.230 -0.0241 -0.1890  0.1417
53903OCT     C1 7805  14.004   0.109   0.606  0.2908  0.0592 -0.0939
53903OCT     C2 7806  13.876   0.242   0.163 -0.1529 -0.1547 -0.0720
53904OCT     C1 7807  13.777  11.985  17.799 -0.2228 -0.3458 -0.0603
53904OCT     C2 7808  13.762  12.457  18.051 -0.0246 -0.2137  0.0412
53905OCT     C1 7809   6.184   3.468   5.062 -0.0784  0.5802 -0.2244
53905OCT     C2 7810   6.031   3.009   4.878  0.1464  0.1926 -0.0083
53906OCT     C1 7811   9.384   5.421  14.475 -0.1713 -0.2058  0.2434
53906OCT     C2 7812   9.545   5.470  14.910  0.0694  0.0325 -0.1333
53907OCT     C1 7813   7.714  10.978   4.009  0.1211 -0.0728  0.0278
53907OCT     C2 7814   7.372  10.849   4.281  0.3536 -0.1742 -0.3257
53908OCT     C1 7815   8.118   5.137   2.158 -0.3595  0.1870 -0.1409
53908OCT     C2 7816   8.164   5.396   2.534  0.0534 -0.3324  0.0749
53909OCT     C1 7817   4.049   2.724  16.502 -0.3740 -0.4623 -0.3748
53909OCT     C2 7818   3.792   2.477  16.748 -0.0038  0.1720 -0.5950
53910OCT     C1 7819  16.439  19.226  19.227  0.1316 -0.1102  0.0751
53910OCT     C2 7820  16.049  19.375  19.125 -0.3021  0.0160  0.2174
53911OCT     C1 7821   4.747   0.800  14.370 -0.1209 -0.0384  0.1561
53911OCT     C2 7822   4.983   0.352  14.377  0.1111 -0.2149  0.0025
53912OCT     C1 7823   7.061   8.258  21.051  0.3312 -0.2042  0.2014
53912OCT     C2 7824   6.836   8.040  21.353 -0.1674 -0.2178 -0.3117
53913OCT     C1 7825   8.897   0.637  21.745  0.1539  0.2421  0.2877
53913OCT     C2 7826   9.284   0.819  21.563  0.0624  0.1337  0.3116
53914OCT     C1 7827  19.531   5.984  20.310 -0.2061  0.2612  0.1593
53914OCT     C2 7828  19.968   6.198  20.301  0.1099  0.4764 -0.0661
53915OCT     C1 7829  18.926  19.574   7.803  0.3892  0.1208  0.1042
53915OCT     C2 7830  18.788  19.809   7.412 -0.1234  0.3451  0.2061
53916OCT     C1 7831  13.737   8.559   0.843 -0.4758 -0.0724 -0.2256
53916OCT     C2 7832  13.337   8.348   0.760 -0.1215 -0.0578  0.1816
53917OCT     C1 7833  21.418  17.578   6.610 -0.3810 -0.0848  0.0144
53917OCT     C2 7834  21.611  17.186   6.470 -0.1523 -0.0639  0.0919
53918OCT     C1 7835  12.026  12.710  21.710  0.2136 -0.2319  0.2791
53918OCT     C2 7836  11.718  12.786  22.040  0.0320  0.0767 -0.0269
53919OCT     C1 7837  19.735   0.055  15.437  0.0863  0.3667  0.3952
53919OCT     C2 7838  20.080  23.525  15.638 -0.0768  0.0351  0.1315
53920OCT     C1 7839  16.710   8.735  10.275  0.0610 -0.0657  0.0320
53920OCT     C2 7840  16.692   8.487   9.901  0.0224 -0.1021  0.3439
53921OCT     C1 7841   5.289   4.393   5.650  0.4752  0.0746  0.0805
53921OCT     C2 7842   4.888   4.230   5.632 -0.0820 -0.0479 -0.1072
53922OCT     C1 7843  14.775   8.925  14.703 -0.0835  0.3069 -0.0092
53922OCT     C2 7844  15.237   8.831  14.695 -0.0302  0.0187 -0.3463
53923OCT     C1 7845   1.617  13.681  13.787 -0.0772  0.0302  0.0760
53923OCT     C2 7846   1.458  14.006  13.479  0.0514  0.0732 -0.0443
53924OCT     C1 7847   8.844  13.201   9.056 -0.1619  0.0154 -0.0465
53924OCT     C2 7848   8.532  13.210   8.745 -0.2279  0.2484 -0.1503
53925OCT     C1 7849   4.589  17.485   6.138  0.2094 -0.1112  0.4313
53925OCT     C2 7850   4.204  17.263   5.960 -0.2277 -0.4145  0.1509
53926OCT     C1 7851  17.825   3.071   6.926 -0.2061  0.0809 -0.0763
53926OCT     C2 7852  17.743   3.351   6.498  0.1479  0.0004  0.2324
53927OCT     C1 7853  17.680   5.068  20.390  0.2618 -0.0894  0.0675
53927OCT     C2 7854  17.871   5.372  20.713 -0.2364 -0.0626 -0.4766
53928OCT     C1 7855   5.617   3.588   0.563 -0.4047  0.0976  0.0271
53928OCT     C2 7856   5.461   4.008   0.514  0.1515  0.0020 -0.3971
53929OCT     C1 7857  14.100   5.052   0.416 -0.2651  0.0485 -0.0743
53929OCT     C2 7858  14.462   5.245   0.141 -0.1358  0.4230  0.1146
53930OCT     C1 7859   9.325   5.125  18.307  0.2544  0.2380 -0.0126
53930OCT     C2 7860   9.335   4.979  18.776 -0.3066  0.0047  0.2361
53931OCT     C1 7861  15.222   1.756  21.442 -0.0290  0.1228  0.2205
53931OCT     C2 7862  15.242   2.124  21.149 -0.1008  0.0497 -0.1322
53932OCT     C1 7863  18.830  17.663  13.459 -0.0806  0.3918 -0.3060
53932OCT     C2 7864  18.545  17.897  13.140 -0.1061  0.0504  0.0284
53933OCT     C1 7865  12.760   6.153   7.950 -0.1193  0.2165  0.2198
53933OCT     C2 7866  13.074   5.922   8.180  0.0985  0.1951 -0.1539
53934OCT     C1 7867  21.724   0.617  13.532 -0.1618 -0.0485 -0.2436
53934OCT     C2 7868  21.936   0.334  13.849 -0.2632 -0.4322 -0.0995
53935OCT     C1 7869   1.478  11.591   3.813 -0.1263 -0.1014  0.3720
53935OCT     C2 7870   1.224  11.897   3.594  0.0215  0.4425  0.1078
53936OCT     C1 7871   1.526   3.145  19.774 -0.2557  0.0353  0.0931
53936OCT     C2 7872   1.510   3.379  20.213  0.1318  0.1056 -0.1973
53937OCT     C1 7873   3.341   7.816  11.639 -0.1300 -0.2727  0.1465
53937OCT     C2 7874   3.370   8.261  11.481 -0.2429  0.0487 -0.0941
53938OCT     C1 7875  13.561  18.974   5.826  0.1767 -0.0276  0.1321
53938OCT     C2 7876  13.687  18.524   5.785 -0.3544 -0.4330 -0.3238
53939OCT     C1 7877   3.514   2.281   5.889  0.2101 -0.0535  0.1552
53939OCT     C2 7878   3.860   2.525   6.141  0.2174  0.2423 -0.0435
53940OCT     C1 7879   5.267  23.196  10.392 -0.0927 -0.1430  0.1487
53940OCT     C2 7880   4.797  23.329  10.453  0.1520 -0.3283  0.4107
53941OCT     C1 7881  20.951   1.618  18.699  0.1190  0.2562 -0.0815
53941OCT     C2 7882  21.329   1.345  18.820 -0.2305 -0.3739 -0.1241
53942OCT     C1 7883  15.547   1.652  22.929 -0.1392 -0.3203  0.2520
53942OCT     C2 7884  15.883   1.818  22.570  0.2763 -0.4540  0.0219
53943OCT     C1 7885  16.823   6.038  15.152 -0.1786  0.2332 -0.2569
53943OCT     C2 7886  16.424   6.229  15.298  0.3232  0.1206  0.1054
53944OCT     C1 7887   0.190   9.197  22.565  0.1087  0.1465 -0.1516
53944OCT     C2 7888   0.275   8.889  22.926 -0.1743  0.0459  0.0048
53945OCT     C1 7889   2.552   8.278  11.654  0.2499  0.0310  0.2520
53945OCT     C2 7890   2.956   8.219  11.914  0.0484  0.0973 -0.1778
53946OCT     C1 7891  23.024  21.057   2.289  0.1280 -0.1679 -0.1489
53946OCT     C2 7892  22.504  20.904   2.340 -0.0972  0.0023 -0.3568
53947OCT     C1 7893  21.285  15.240  23.275 -0.0158 -0.2616  0.2802
53947OCT     C2 7894  21.546  14.929  23.484  0.0291  0.2661  0.1668
53948OCT     C1 7895  14.805  23.637   9.343 -0.1236  0.3222 -0.1949
53948OCT     C2 7896  14.902   0.304   9.405  0.0219  0.6961 -0.1219
53949OCT     C1 7897   0.815  17.131   3.186  0.5865 -0.0543  0.2287
53949OCT     C2 7898   0.377  17.199   3.434 -0.0099 -0.4168  0.0357
53950OCT     C1 7899  12.871  13.527  22.938  0.0948  0.3888 -0.2037
53950OCT     C2 7900  13.318  13.438  23.112  0.0637 -0.1236  0.1201
53951OCT     C1 7901  18.425  10.144   2.377 -0.1638 -0.1346 -0.0240
53951OCT     C2 7902  18.013  10.408   2.523  0.0711 -0.0623  0.0949
53952OCT     C1 7903   0.251  22.580   3.135 -0.0963  0.3366 -0.0975
53952OCT     C2 7904  23.649  22.666   2.903  0.0287  0.4628  0.0719
53953OCT     C1 7905   3.500  15.077   8.151  0.0305  0.1105  0.1198
53953OCT     C2 7906   3.675  15.283   7.731 -0.2644 -0.2415 -0.2981
53954OCT     C1 7907  19.039   2.431   1.729 -0.2216 -0.0848  0.0854
53954OCT     C2 7908  19.245   2.394   1.240  0.0337  0.1276 -0.2771
53955OCT     C1 7909  13.091   1.488  15.194 -0.1415  0.4903 -0.0721
53955OCT     C2 7910  13.254   1.351  15.611  0.0685  0.1962  0.6735
53956OCT     C1 7911   8.642   2.534  17.744 -0.0557  0.0114  0.0299
53956OCT     C2 7912   8.234   2.659  17.995  0.0298  0.0746 -0.0774
53957OCT     C1 7913  13.007   9.597  10.259  0.1646  0.1574  0.0969
53957OCT     C2 7914  13.446   9.507  10.145 -0.0857 -0.4464 -0.0503
53958OCT     C1 7915   4.839  15.128  11.621  0.0356 -0.3327  0.1683
53958OCT     C2 7916   5.240  15.283  11.706 -0.2708 -0.0590  0.0372
53959OCT     C1 7917   0.225   3.213   4.218  0.0816 -0.0110 -0.2269
53959OCT     C2 7918  23.625   2.883   4.317 -0.1017 -0.3683 -0.1127
53960OCT     C1 7919  10.723   3.874  21.193  0.6614 -0.2841  0.3897
53960OCT     C2 7920  10.566   3.710  20.734  0.0013  0.0771 -0.3288
53961OCT     C1 7921   9.395  20.519   8.129 -0.2880 -0.3234  0.0268
53961OCT     C2 7922   9.196  20.842   8.401 -0.0783 -0.0573 -0.1860
53962OCT     C1 7923   5.921   3.045  21.374 -0.0897  0.1517 -0.1975
53962OCT     C2 7924   6.292   2.915  21.103  0.0940 -0.1658  0.0541
53963OCT     C1 7925  22.737   6.322  14.470 -0.0311  0.5669  0.2987
53963OCT     C2 7926  22.502   6.254  14.040  0.1917  0.2114 -0.2067
53964OCT     C1 7927  17.876  21.433   4.975  0.2030 -0.0055 -0.0214
53964OCT     C2 7928  17.728  21.291   5.346 -0.3009  0.0018 -0.0486
53965OCT     C1 7929  17.115   8.197   6.830  0.6533 -0.0097 -0.1869
53965OCT     C2 7930  17.549   8.184   6.702 -0.3325  0.4269  0.0403
53966OCT     C1 7931  12.813   3.511  14.229 -0.2016 -0.0081 -0.2064
53966OCT     C2 7932  12.746   3.422  13.805  0.1489  0.1209  0.1219
53967OCT     C1 7933   6.745  20.647  18.186 -0.0006  0.0117  0.3310
53967OCT     C2 7934   6.979  20.669  18.564  0.2312 -0.0240  0.2639
53968OCT     C1 7935   6.424  20.752  11.468  0.3906  0.0625 -0.0717
53968OCT     C2 7936   6.246  20.638  11.844  0.0667  0.0709  0.0479
53969OCT     C1 7937  21.370  12.429  11.037  0.1937  0.4829 -0.0817
53969OCT     C2 7938  21.580  11.991  10.931  0.1601  0.0095  0.3423
53970OCT     C1 7939   7.679   5.796  14.668  0.1710  0.1914 -0.0811
53970OCT     C2 7940   7.389   5.537  14.941  0.3176 -0.2554  0.2601
53971OCT     C1 7941  17.368  14.279   5.570  0.0853  0.2242  0.1363
53971OCT     C2 7942  16.974  14.021   5.461 -0.1419 -0.3947  0.4133
53972OCT     C1 7943   2.730  11.979   5.513 -0.0881 -0.3939  0.2135
53972OCT     C2 7944   2.421  11.822   5.218  0.0011 -0.0121  0.0587
53973OCT     C1 7945  14.717  16.945   1.386  0.3172  0.0898  0.3280
53973OCT     C2 7946  14.818  16.454   1.288  0.2110 -0.1554  0.2260
53974OCT     C1 7947   6.509   9.036  15.225 -0.3736  0.1874  0.2040
53974OCT     C2 7948   6.576   9.480  15.117 -0.1827  0.0492 -0.3124
53975OCT     C1 7949   1.407  13.983   8.083  0.1236 -0.1010  0.4089
53975OCT     C2 7950   1.244  14.106   8.542 -0.1759  0.1902  0.1114
53976OCT     C1 7951  11.998  14.265   9.233 -0.1057 -0.0471  0.0491
53976OCT     C2 7952  11.626  14.329   9.437 -0.2231 -0.0815 -0.3235
53977OCT     C1 7953  16.883  14.579  20.472 -0.2614 -0.2064  0.2493
53977OCT     C2 7954  16.710  14.733  20.913 -0.2229 -0.3353  0.1249
53978OCT     C1 7955   8.899  23.503  16.633 -0.2214  0.2920 -0.4349
53978OCT     C2 7956   9.331  23.302  16.451  0.1256 -0.1588 -0.2706
53979OCT     C1 7957  21.216  18.492  11.676  0.2692  0.0573  0.2077
53979OCT     C2 7958  21.301  18.796  11.308  0.1131 -0.3796 -0.0516
53980OCT     C1 7959  12.248   7.563  23.019  0.3541 -0.2499 -0.1426
53980OCT     C2 7960  11.980   7.128  22.885 -0.0371 -0.0098  0.1128
53981OCT     C1 7961   0.322   0.238  21.455 -0.2903  0.1871 -0.0579
53981OCT     C2 7962   0.022   0.441  21.089  0.0462  0.2084  0.0970
53982OCT     C1 7963  12.272   1.804  21.641 -0.2357 -0.1666  0.1686
53982OCT     C2 7964  12.621   2.111  21.510  0.0674 -0.5281  0.0142
53983OCT     C1 7965  19.714  12.254  21.776  0.0074  0.0574 -0.1299
53983OCT     C2 7966  19.470  12.106  22.144 -0.3635  0.1780 -0.0083
53984OCT     C1 7967  12.903  16.239   6.144 -0.2938  0.1361  0.0226
53984OCT     C2 7968  12.906  15.843   5.841  0.2675 -0.0887 -0.0843
53985OCT     C1 7969  22.159  13.160   7.773  0.0788 -0.0114 -0.1814
53985OCT     C2 7970  22.177  13.597   7.860 -0.2046 -0.3112  0.2195
53986OCT     C1 7971   5.798  17.934   0.734 -0.1156  0.0698  0.5071
53986OCT     C2 7972   5.884  18.341   0.836  0.3763 -0.2228 -0.3004
53987OCT     C1 7973  23.463   4.874   1.994  0.5928  0.2530 -0.4481
53987OCT     C2 7974  23.538   4.730   1.567 -0.0494  0.1700 -0.0216
53988OCT     C1 7975  21.394   1.734   4.685  0.1566 -0.1192 -0.2058
53988OCT     C2 7976  21.687   1.979   4.381  0.0145  0.2728 -0.3076
53989OCT     C1 7977  13.315  21.703  18.831 -0.1847  0.1701  0.1401
53989OCT     C2 7978  13.500  22.127  18.677 -0.0851 -0.1246  0.0165
53990OCT     C1 7979  14.415   1.603  11.477  0.1591 -0.0739 -0.0609
53990OCT     C2 7980  14.569   1.202  11.591  0.2357 -0.1029 -0.0227
53991OCT     C1 7981  13.434  11.908  10.917  0.0700  0.0376  0.1800
53991OCT     C2 7982  13.194  12.118  10.581  0.0983  0.1895 -0.1212
53992OCT     C1 7983  16.319  10.292  13.920 -0.0834 -0.2220 -0.5116
53992OCT     C2 7984  16.133   9.893  13.744 -0.1009 -0.0916  0.0898
53993OCT     C1 7985  20.676  18.628  10.099 -0.1621 -0.0813  0.2998
53993OCT     C2 7986  21.054  18.686   9.840  0.3183 -0.3657  0.2984
53994OCT     C1 7987   6.237   4.985   8.874  0.0776 -0.2796  0.1604
53994OCT     C2 7988   6.571   5.188   9.060 -0.1393  0.1438 -0.2654
53995OCT     C1 7989   9.344  15.862  18.006  0.1168 -0.1767  0.1550
53995OCT     C2 7990   9.052  16.099  17.667 -0.3018  0.0016 -0.0239
53996OCT     C1 7991  10.117   3.932  21.228 -0.0187  0.0905 -0.1150
53996OCT     C2 7992   9.929   4.308  21.015 -0.1283  0.1133  0.0592
53997OCT     C1 7993  18.300   1.189  10.986 -0.0810  0.1095 -0.3912
53997OCT     C2 7994  18.087   1.436  11.338  0.0063 -0.0006  0.2011
53998OCT     C1 7995  20.306  11.108   6.560 -0.3579 -0.0582 -0.0507
53998OCT     C2 7996  20.536  11.128   6.218  0.1250 -0.3653 -0.1559
53999OCT     C1 7997  17.944   8.925   9.295 -0.0857 -0.0991  0.3031
53999OCT     C2 7998  17.863   8.750   8.800 -0.3677  0.0720 -0.0546
54000OCT     C1 7999   2.100  11.138  18.735  0.0308 -0.0523  0.1540
54000OCT     C2 8000   1.842  10.750  18.803  0.1107  0.1562  0.1197
54001OCT     C1 8001   6.344  17.263   0.544  0.3368  0.0947  0.0932
54001OCT     C2 8002   6.610  17.001   0.831 -0.1132  0.1671 -0.1049
54002OCT     C1 8003   6.837  22.059  18.878 -0.2319 -0.3245 -0.1691
54002OCT     C2 8004   6.955  21.986  19.324  0.1295 -0.1811  0.1019
54003OCT     C1 8005  23.098   6.779   0.288  0.0587  0.2178 -0.0480
54003OCT     C2 8006  23.382   6.822  23.731  0.0619  0.2406 -0.0291
54004OCT     C1 8007  13.659  20.237   7.906 -0.2089 -0.1717 -0.2408
54004OCT     C2 8008  14.122  20.300   7.966 -0.2410  0.2139 -0.1952
54005OCT     C1 8009   9.465  21.262  14.567 -0.2102 -0.1956  0.0990
54005OCT     C2 8010   9.247  21.230  14.201  0.2513  0.1447  0.4134
54006OCT     C1 8011  12.125  12.105  14.569  0.5507  0.0228 -0.0545
54006OCT     C2 8012  12.538  12.008  14.748 -0.3275  0.1804 -0.0300
54007OCT     C1 8013  20.883  11.389  12.750 -0.0219 -0.3136  0.0509
54007OCT     C2 8014  20.917  11.385  13.200 -0.2723 -0.0660  0.1546
54008OCT     C1 8015  14.393   2.052   3.431  0.0553  0.0246 -0.1509
54008OCT     C2 8016  13.922   2.179   3.380 -0.2698  0.3411 -0.2479
54009OCT     C1 8017   9.394  11.711  11.930 -0.1631  0.1658 -0.1006
54009OCT     C2 8018   9.626  11.273  11.992 -0.1028  0.0092 -0.1235
54010OCT     C1 8019  21.079  22.676  18.589  0.0280 -0.2971  0.3758
54010OCT     C2 8020  20.910  22.239  18.557 -0.1033  0.1404  0.2443
54011OCT     C1 8021  18.585  23.645   9.917 -0.0066  0.0581  0.0493
54011OCT     C2 8022  18.861  23.394   9.616 -0.1043 -0.0415 -0.2050
54012OCT     C1 8023  10.509  12.542  19.364  0.0465 -0.1730  0.2388
54012OCT     C2 8024  10.846  12.703  19.654 -0.1606  0.3962  0.1778
54013OCT     C1 8025  12.879   0.819   1.558 -0.2506 -0.1153 -0.1187
54013OCT     C2 8026  13.161   0.746   1.202  0.2954  0.0441 -0.1405
54014OCT     C1 8027   6.473   3.620  17.821 -0.1127 -0.2952 -0.0705
54014OCT     C2 8028   6.106   3.527  17.430 -0.1782 -0.1155 -0.0369
54015OCT     C1 8029  11.382  16.017  19.999  0.3641  0.3619  0.2738
54015OCT     C2 8030  11.665  16.433  20.156  0.1626  0.0163  0.0021
54016OCT     C1 8031  12.481  14.861   4.784 -0.4807 -0.0954 -0.1245
54016OCT     C2 8032  12.434  14.528   4.499  0.2904 -0.0314  0.1722
54017OCT     C1 8033   0.838  13.464  15.685 -0.0527  0.3026 -0.3219
54017OCT     C2 8034   1.022  13.847  15.513  0.0313  0.0061  0.1560
54018OCT     C1 8035  17.334  21.962  11.217 -0.1297 -0.0112  0.0758
54018OCT     C2 8036  17.140  21.787  10.870  0.0079  0.0711 -0.2302
54019OCT     C1 8037  14.047   6.041  20.722 -0.0945 -0.1633 -0.0148
54019OCT     C2 8038  14.174   6.497  20.743  0.1328 -0.0984  0.0971
54020OCT     C1 8039   8.005   4.774  15.386  0.0059 -0.4623 -0.2922
54020OCT     C2 8040   8.378   5.036  15.504 -0.1659 -0.0849  0.3148
54021OCT     C1 8041  16.701  12.459   2.967  0.3791  0.1152  0.3194
54021OCT     C2 8042  16.842  12.916   2.948  0.2632 -0.0442 -0.0369
54022OCT     C1 8043  15.249  12.547  10.233 -0.0538 -0.3623 -0.1536
54022OCT     C2 8044  15.254  12.475  10.667  0.2792  0.0589 -0.0156
54023OCT     C1 8045  13.210   8.892   6.008 -0.0152 -0.0842 -0.0427
54023OCT     C2 8046  13.277   9.000   5.527  0.0472 -0.0577 -0.2366
54024OCT     C1 8047  13.199  10.292  16.946 -0.0379  0.4985 -0.0260
54024OCT     C2 8048  13.196  10.495  16.484  0.0172  0.2647 -0.3405
54025OCT     C1 8049   8.321  22.997   5.886  0.1943  0.0914 -0.1578
54025OCT     C2 8050   8.737  23.093   5.699 -0.1019 -0.1840 -0.4387
54026OCT     C1 8051   1.116   7.565  11.264  0.1332 -0.2551  0.0786
54026OCT     C2 8052   1.448   7.240  11.167  0.1328  0.1385 -0.0085
54027OCT     C1 8053   7.871  13.686  21.002  0.0310 -0.3318  0.5203
54027OCT     C2 8054   7.600  13.599  21.388  0.0685  0.0409  0.0359
54028OCT     C1 8055  18.198   6.519   8.421 -0.1101 -0.3354 -0.0087
54028OCT     C2 8056  18.224   6.999   8.415 -0.2920  0.0749 -0.1233
54029OCT     C1 8057   3.211   2.298   4.960 -0.3433  0.0652 -0.0738
54029OCT     C2 8058   3.264   1.874   5.174 -0.0241 -0.0033  0.2392
54030OCT     C1 8059  17.473  17.317  20.305 -0.1562 -0.0851 -0.0052
54030OCT     C2 8060  17.258  16.916  20.150 -0.0667 -0.1558 -0.3905
54031OCT     C1 8061  18.756   5.941  17.950  0.2948  0.0732 -0.2159
54031OCT     C2 8062  18.768   6.312  17.653  0.0534 -0.3274  0.2322
54032OCT     C1 8063   8.167  21.190  12.929 -0.2906 -0.1291  0.2144
54032OCT     C2 8064   8.501  20.970  13.103 -0.3160 -0.0258  0.1712
54033OCT     C1 8065  14.711   6.659   6.855  0.3436  0.0200 -0.5304
54033OCT     C2 8066  14.423   6.976   7.148 -0.4644  0.2402  0.0070
54034OCT     C1 8067  17.213   6.608   1.221  0.1641 -0.2876  0.0995
54034OCT     C2 8068  17.558   6.507   0.926 -0.0171  0.0424  0.2614
54035OCT     C1 8069   6.412  17.101   4.892 -0.1246 -0.0729  0.0689
54035OCT     C2 8070   6.656  17.496   4.831 -0.4733  0.0826  0.1459
54036OCT     C1 8071  19.628  10.035   1.076 -0.2159 -0.0507  0.4097
54036OCT     C2 8072  19.484  10.280   0.714 -0.0641 -0.1061  0.3135
54037OCT     C1 8073  12.717  18.232   5.451  0.4448  0.0535 -0.1116
54037OCT     C2 8074  12.534  18.541   5.176 -0.2203 -0.2035  0.1009
54038OCT     C1 8075  15.676  12.500  13.645  0.0967 -0.3537 -0.2337
54038OCT     C2 8076  15.338  12.477  13.941 -0.1580 -0.5416 -0.2299
54039OCT     C1 8077   2.370   4.925   2.637 -0.0408 -0.0635 -0.3851
54039OCT     C2 8078   2.335   5.114   2.208  0.1131 -0.0999  0.0551
54040OCT     C1 8079  14.119   7.946  16.537  0.0685  0.1168  0.1894
54040OCT     C2 8080  13.875   7.553  16.653 -0.1008 -0.0145 -0.2204
54041OCT     C1 8081   2.285   0.396   4.672 -0.4279  0.0846  0.1786
54041OCT     C2 8082   2.071   0.020   4.605 -0.1071  0.0614  0.1239
54042OCT     C1 8083   4.045  17.422  18.526  0.2305  0.1111  0.0719
54042OCT     C2 8084   3.747  17.460  18.176 -0.3600  0.2701  0.0094
54043OCT     C1 8085  17.831   9.150   4.111 -0.1233  0.0151  0.0297
54043OCT     C2 8086  18.041   9.340   4.472 -0.0158 -0.0475  0.1883
54044OCT     C1 8087   9.236   2.845   5.443 -0.0030  0.0242  0.1356
54044OCT     C2 8088   9.631   2.541   5.671 -0.1805  0.2003  0.1998
54045OCT     C1 8089  15.182  17.584   5.385 -0.1432  0.2364 -0.0400
54045OCT     C2 8090  15.620  17.557   5.234  0.0308  0.0145  0.0527
54046OCT     C1 8091  15.921   4.815   3.436 -0.1481 -0.0515  0.0599
54046OCT     C2 8092  16.358   4.740   3.452 -0.5182  0.0094  0.2562
54047OCT     C1 8093  22.206  13.477  22.917 -0.1424  0.0554 -0.3919
54047OCT     C2 8094  22.633  13.322  22.943 -0.0048 -0.2923 -0.0481
54048OCT     C1 8095  14.839  16.750  17.382 -0.0955  0.0792 -0.0607
54048OCT     C2 8096  14.783  16.314  17.525 -0.2180 -0.0051 -0.0109
54049OCT     C1 8097  19.696   4.371  22.772 -0.2280  0.0644  0.1678
54049OCT     C2 8098  20.068   4.104  22.898  0.3239 -0.3624 -0.2545
54050OCT     C1 8099  23.247  13.071  19.410  0.0069 -0.1786  0.2151
54050OCT     C2 8100  23.188  13.491  19.230  0.0127  0.3802 -0.0792
54051OCT     C1 8101   1.915  17.429  22.894  0.1246 -0.0131  0.3110
54051OCT     C2 8102   2.220  17.772  23.058 -0.3146  0.2359  0.1066
54052OCT     C1 8103   1.917   0.933  10.585  0.0295 -0.0704  0.1021
54052OCT     C2 8104   2.129   0.483  10.476 -0.2626  0.0305 -0.4827
54053OCT     C1 8105  14.662  22.549  22.399  0.1017  0.0275  0.1063
54053OCT     C2 8106  14.600  22.454  22.916  0.1010 -0.2627  0.2617
54054OCT     C1 8107   9.753  14.337  17.401 -0.0342 -0.1204 -0.1765
54054OCT     C2 8108   9.782  13.896  17.599  0.2666  0.2589  0.0150
54055OCT     C1 8109  11.538  12.295  19.207 -0.1564 -0.0259  0.3684
54055OCT     C2 8110  11.226  11.970  19.161  0.1642 -0.0522  0.1589
54056OCT     C1 8111   3.082   3.541  13.302  0.3209 -0.0525  0.1669
54056OCT     C2 8112   2.736   3.860  13.500 -0.1601  0.1089  0.4596
54057OCT     C1 8113  19.384   0.816  20.464 -0.2758 -0.1635  0.0211
54057OCT     C2 8114  19.521   0.601  20.019 -0.2505 -0.0338 -0.4825
54058OCT     C1 8115  17.574  21.292   2.919  0.2668  0.0201  0.5903
54058OCT     C2 8116  17.888  20.979   2.874  0.1195  0.1083  0.0314
54059OCT     C1 8117  10.116  13.487   7.638  0.1085 -0.4316  0.3063
54059OCT     C2 8118  10.580  13.369   7.570 -0.2852  0.0399  0.1620
54060OCT     C1 8119   9.325   4.742   9.727  0.1882  0.0885 -0.0488
54060OCT     C2 8120   9.497   4.364   9.885  0.2054  0.0734 -0.2100
54061OCT     C1 8121  14.988  10.043   5.188  0.0896  0.2230  0.1862
54061OCT     C2 8122  15.254   9.933   5.536  0.2201  0.2853  0.2362
54062OCT     C1 8123  22.670  22.067  21.188  0.0431 -0.1986 -0.0328
54062OCT     C2 8124  22.718  21.852  21.607  0.0951 -0.2512  0.3777
54063OCT     C1 8125  16.299   7.567  12.422  0.1173  0.0033 -0.0585
54063OCT     C2 8126  16.647   7.234  12.437  0.0208  0.0381 -0.1521
54064OCT     C1 8127   9.168  19.481   0.380  0.2949 -0.1953 -0.1445
54064OCT     C2 8128   8.906  19.861   0.443 -0.3025 -0.1211 -0.4569
54065OCT     C1 8129   2.824   9.948  21.006  0.0598 -0.0946  0.0573
54065OCT     C2 8130   2.708   9.988  21.456  0.2546  0.0801 -0.1277
54066OCT     C1 8131  16.797  12.521  11.360 -0.1428  0.0935 -0.1351
54066OCT     C2 8132  16.977  12.936  11.557  0.1379  0.3020  0.3393
54067OCT     C1 8133  10.002  12.986  12.097  0.1242  0.3632  0.0310
54067OCT     C2 8134   9.706  12.663  12.226  0.1009 -0.3310  0.2433
54068OCT     C1 8135   2.895  20.428  16.607 -0.4229 -0.0830 -0.3916
54068OCT     C2 8136   3.220  20.422  16.254  0.1389  0.0174  0.1106
54069OCT     C1 8137   6.018   9.853  16.572 -0.1803  0.3353 -0.0540
54069OCT     C2 8138   5.613  10.078  16.582  0.1609  0.4071 -0.0010
54070OCT     C1 8139   1.713  12.711  20.209  0.0635  0.0098 -0.0473
54070OCT     C2 8140   2.096  12.444  20.004 -0.3450  0.0335 -0.3536
54071OCT     C1 8141  10.771  23.191  11.772  0.0578  0.3647  0.5308
54071OCT     C2 8142  10.701  23.630  11.696  0.1706 -0.2125  0.2992
54072OCT     C1 8143  18.431  10.225   0.182  0.1179  0.3685 -0.5201
54072OCT     C2 8144  18.555  10.640   0.361 -0.0454 -0.2292 -0.0634
54073OCT     C1 8145  21.745  13.492  12.810  0.2904  0.2291  0.2937
54073OCT     C2 8146  21.992  13.886  12.688  0.3283  0.1872  0.0292
54074OCT     C1 8147   6.255  23.008  21.028 -0.1473  0.1696 -0.1916
54074OCT     C2 8148   6.662  22.987  21.210 -0.0151 -0.1461  0.3511
54075OCT     C1 8149   0.113  10.173   5.099 -0.2178  0.0597  0.0729
54075OCT     C2 8150  23.478   9.847   5.007  0.3620 -0.1471 -0.0291
54076OCT     C1 8151   6.738  15.991  11.454 -0.3491 -0.3367 -0.0396
54076OCT     C2 8152   6.917  16.391  11.282  0.0110 -0.2580  0.2026
54077OCT     C1 8153  11.892  14.647   4.412 -0.2312 -0.0084  0.0782
54077OCT     C2 8154  11.912  14.474   4.905 -0.4875 -0.1683 -0.0162
54078OCT     C1 8155   6.907   7.122   6.439 -0.3042 -0.0548 -0.0134
54078OCT     C2 8156   7.038   6.939   6.069  0.1397  0.3025  0.3903
54079OCT     C1 8157  14.225  13.941  18.688  0.2098  0.3774  0.1776
54079OCT     C2 8158  14.041  14.230  18.378 -0.1563  0.0017  0.1418
54080OCT     C1 8159  14.253  20.782  17.257  0.1058  0.0938 -0.4120
54080OCT     C2 8160  13.937  21.111  17.401  0.1293 -0.1151  0.1136
54081OCT     C1 8161  14.538   7.115   4.249  0.0505 -0.2517  0.0569
54081OCT     C2 8162  14.626   6.665   4.442  0.0965  0.0432  0.2388
54082OCT     C1 8163  21.155   3.087  20.439 -0.3008  0.1640 -0.1748
54082OCT     C2 8164  21.247   2.962  20.865  0.2814 -0.0069 -0.0160
54083OCT     C1 8165   6.461  15.188   2.787  0.3707  0.2752 -0.1905
54083OCT     C2 8166   6.187  15.019   3.114 -0.4285  0.1455 -0.0055
54084OCT     C1 8167  18.996  18.838   5.893  0.0523 -0.1958  0.1441
54084OCT     C2 8168  19.335  18.554   6.084 -0.0080  0.1645 -0.2378
54085OCT     C1 8169   2.710   3.131  16.767 -0.2538  0.2388  0.0653
54085OCT     C2 8170   2.481   3.289  17.182  0.0881  0.2936 -0.3481
54086OCT     C1 8171  11.906  11.269  11.782 -0.0002  0.4414  0.0666
54086OCT     C2 8172  11.585  11.035  11.605 -0.0108 -0.3317 -0.0984
54087OCT     C1 8173  19.402   2.416  22.593  0.0354 -0.0062  0.1732
54087OCT     C2 8174  19.366   2.680  22.170 -0.1996  0.3189  0.1717
54088OCT     C1 8175  19.986  14.125  16.395 -0.0486 -0.1867 -0.3397
54088OCT     C2 8176  19.663  14.333  16.241 -0.3193  0.0754  0.2302
54089OCT     C1 8177   6.224   8.587   8.552  0.0501  0.1470 -0.0965
54089OCT     C2 8178   6.013   9.002   8.728  0.1025 -0.1420  0.2608
54090OCT     C1 8179   4.109   5.361   2.518  0.0366 -0.2597 -0.5038
54090OCT     C2 8180   4.236   5.272   2.111  0.2500  0.1325  0.1740
54091OCT     C1 8181  16.746   9.440  14.232  0.0954  0.1576 -0.5438
54091OCT     C2 8182  16.754   9.100  13.873 -0.1131  0.4219  0.1830
54092OCT     C1 8183   2.838  21.840  10.491  0.1543  0.0143 -0.1082
54092OCT     C2 8184   2.580  21.570  10.813 -0.2734  0.1740 -0.0035
54093OCT     C1 8185  17.812  19.268  21.721  0.6418  0.5006 -0.4185
54093OCT     C2 8186  17.601  19.098  22.076 -0.3060  0.2367  0.1706
54094OCT     C1 8187  18.668  10.301  18.757 -0.4380 -0.2461 -0.1505
54094OCT     C2 8188  18.733  10.469  18.341 -0.0294 -0.2034  0.0287
54095OCT     C1 8189  11.545  12.069  21.500 -0.0397 -0.3445  0.0709
54095OCT     C2 8190  11.470  12.464  21.735 -0.2569  0.0252 -0.1408
54096OCT     C1 8191   6.687   6.119  19.342  0.1490 -0.4246  0.0540
54096OCT     C2 8192   6.819   6.533  19.491  0.1809  0.1797 -0.0556
54097OCT     C1 8193   9.321   5.520  17.054 -0.2138  0.2441  0.1799
54097OCT     C2 8194   9.460   5.071  16.928  0.0915 -0.1224  0.0539
54098OCT     C1 8195   6.154  11.380   9.743  0.2712 -0.0953 -0.0019
54098OCT     C2 8196   6.414  11.077   9.493  0.0083  0.2521  0.0968
54099OCT     C1 8197  10.381  20.837   6.786 -0.2959  0.1427  0.2902
54099OCT     C2 8198  10.047  21.174   6.886  0.2297  0.0184  0.5198
54100OCT     C1 8199  12.098   4.014  11.177  0.2011 -0.4161 -0.2685
54100OCT     C2 8200  12.158   3.660  11.433 -0.0974  0.0968 -0.0132
54101OCT     C1 8201   3.394  14.742   8.569  0.3095  0.1054  0.2006
54101OCT     C2 8202   2.916  14.807   8.728  0.0288  0.0227 -0.2894
54102OCT     C1 8203   2.486  23.056  20.644 -0.5180  0.1063 -0.0938
54102OCT     C2 8204   2.976  23.016  20.720  0.5560  0.2749  0.0083
54103OCT     C1 8205  16.971   1.589   8.359  0.3399  0.4061  0.2322
54103OCT     C2 8206  17.171   1.756   7.961  0.7622 -0.0848  0.3409
54104OCT     C1 8207  22.659  10.040  20.267 -0.0579  0.1891  0.2779
54104OCT     C2 8208  22.217  10.002  20.142 -0.1378  0.2498 -0.4197
54105OCT     C1 8209  23.691  23.653  11.945 -0.0498  0.1465 -0.0395
54105OCT     C2 8210  23.562  23.290  12.220  0.0825  0.1711 -0.0621
54106OCT     C1 8211  10.443  11.060   2.004  0.0922 -0.0952 -0.1112
54106OCT     C2 8212  10.194  10.741   2.121  0.0901  0.2763 -0.1450
54107OCT     C1 8213  16.613  16.006  10.178  0.2047 -0.1460 -0.2877
54107OCT     C2 8214  17.051  15.983  10.110  0.0933 -0.3073 -0.1168
54108OCT     C1 8215  23.600  20.376   3.014  0.1546  0.3504  0.1479
54108OCT     C2 8216   0.030  20.499   3.499 -0.0644 -0.1604 -0.4226
54109OCT     C1 8217  10.982  21.201  22.005 -0.0088  0.2760  0.1187
54109OCT     C2 8218  10.934  21.691  21.917 -0.0033 -0.1225  0.0649
54110OCT     C1 8219   6.194  16.742  14.540 -0.0634 -0.1415  0.4042
54110OCT     C2 8220   5.842  16.955  14.654  0.1183  0.2241 -0.1443
54111OCT     C1 8221  22.535  22.333  12.950 -0.4443  0.1035  0.0700
54111OCT     C2 8222  22.252  22.159  12.574  0.2343  0.2404  0.0067
54112OCT     C1 8223   3.522  20.981   6.201  0.1916  0.5537 -0.0630
54112OCT     C2 8224   3.239  20.941   6.557 -0.1500 -0.1818  0.0409
54113OCT     C1 8225  11.020   6.247  13.027  0.0344 -0.4167  0.0416
54113OCT     C2 8226  11.060   6.733  13.072  0.0899 -0.0473 -0.2321
54114OCT     C1 8227  11.773  18.841   9.753  0.2626  0.2502  0.0885
54114OCT     C2 8228  12.177  18.927   9.971  0.0681  0.0517 -0.2017
54115OCT     C1 8229  12.170  22.908  22.641  0.0100  0.0693 -0.0587
54115OCT     C2 8230  12.152  22.482  22.823  0.0548 -0.2494 -0.1054
54116OCT     C1 8231  18.490   4.469  16.272  0.1114 -0.0619  0.0251
54116OCT     C2 8232  18.397   4.440  15.805  0.1199  0.2148 -0.4057
54117OCT     C1 8233  17.091  15.271  18.343 -0.1284 -0.0078 -0.0757
54117OCT     C2 8234  17.009  15.258  18.770 -0.3040 -0.0275  0.0217
54118OCT     C1 8235  22.891  19.856   2.286 -0.2422 -0.1051 -0.6984
54118OCT     C2 8236  23.299  20.062   2.366 -0.2865  0.0537 -0.0943
54119OCT     C1 8237  19.461  22.757   3.345 -0.0214  0.1899  0.0134
54119OCT     C2 8238  19.641  22.644   3.761 -0.2146 -0.1520 -0.1950
54120OCT     C1 8239  19.675  16.254   6.980  0.5641  0.3245  0.1148
54120OCT     C2 8240  19.403  16.189   7.274 -0.1323 -0.3771  0.0422
54121OCT     C1 8241  11.614   9.174  20.643 -0.0793  0.1514 -0.0339
54121OCT     C2 8242  11.734   9.535  20.866  0.2460 -0.1693 -0.1230
54122OCT     C1 8243  21.726  14.961  19.012 -0.2232 -0.2870  0.1358
54122OCT     C2 8244  21.292  15.084  19.041 -0.1008 -0.1491  0.1322
54123OCT     C1 8245   8.383   6.995  14.257 -0.0812 -0.2234  0.2666
54123OCT     C2 8246   8.223   6.795  14.649  0.1536  0.1463 -0.3628
54124OCT     C1 8247  17.464   1.865   9.970  0.2475  0.0017  0.0720
54124OCT     C2 8248  17.813   2.030   9.706  0.0892 -0.0075  0.4021
54125OCT     C1 8249  11.635   5.572   8.310 -0.2533 -0.0439 -0.0607
54125OCT     C2 8250  11.377   5.169   8.178 -0.1445  0.0819 -0.3836
54126OCT     C1 8251   5.312  20.239   1.154  0.1612  0.2807 -0.0469
54126OCT     C2 8252   5.383  19.779   1.186 -0.0481  0.0275 -0.2867
54127OCT     C1 8253  23.354  14.586   5.881  0.2256  0.2621 -0.2461
54127OCT     C2 8254  23.373  14.292   5.514 -0.0861  0.0118 -0.0553
54128OCT     C1 8255  18.638  17.421  20.906 -0.0179 -0.0879  0.0598
54128OCT     C2 8256  18.913  17.824  20.833 -0.0109  0.3141  0.2434
54129OCT     C1 8257  11.227   4.026  22.678  0.2707 -0.1902  0.2405
54129OCT     C2 8258  10.874   4.284  22.728  0.0398 -0.1324  0.1638
54130OCT     C1 8259  18.556   1.363  20.489  0.0657 -0.4166  0.0277
54130OCT     C2 8260  18.393   1.454  20.084  0.0109 -0.0809 -0.0275
54131OCT     C1 8261   8.347  12.057  11.430  0.2214 -0.2065  0.1620
54131OCT     C2 8262   8.104  12.393  11.585 -0.2066 -0.1005 -0.4017
54132OCT     C1 8263  13.065  11.814   0.152  0.2328 -0.2816 -0.0428
54132OCT     C2 8264  13.166  12.056   0.502 -0.2191 -0.2010 -0.2365
54133OCT     C1 8265   8.371  13.367   0.165 -0.3472  0.1965 -0.1195
54133OCT     C2 8266   8.502  13.671   0.451  0.1567 -0.1508  0.0738
54134OCT     C1 8267   8.785   5.970  22.219 -0.5106  0.0166  0.1179
54134OCT     C2 8268   8.688   5.539  22.341  0.0202  0.1072  0.0262
54135OCT     C1 8269   3.701   1.098  10.045  0.0130  0.1988 -0.0512
54135OCT     C2 8270   3.570   1.501  10.063 -0.2278  0.0640 -0.1313
54136OCT     C1 8271   1.502  15.328   9.671 -0.3186 -0.0311  0.4298
54136OCT     C2 8272   1.079  15.428   9.838  0.0706  0.2701 -0.1498
54137OCT     C1 8273   1.733  15.498   2.036  0.2225 -0.2787  0.0043
54137OCT     C2 8274   1.904  15.746   1.650 -0.1487 -0.1378 -0.1208
54138OCT     C1 8275   6.483  18.368  21.664 -0.2341  0.1082 -0.3723
54138OCT     C2 8276   6.747  18.055  21.460 -0.1669  0.1493  0.2261
54139OCT     C1 8277   7.397  19.930   4.596  0.1486 -0.0934  0.0106
54139OCT     C2 8278   7.301  19.472   4.433  0.2598  0.1618  0.1106
54140OCT     C1 8279   5.302  18.995   6.058  0.1346 -0.0595  0.0869
54140OCT     C2 8280   5.127  18.555   6.170  0.1753 -0.2397 -0.2195
54141OCT     C1 8281  14.043   7.942   7.084 -0.0488 -0.3835  0.2928
54141OCT     C2 8282  14.472   7.918   7.212  0.0904  0.1963 -0.2444
54142OCT     C1 8283  18.740   7.730  21.419 -0.1393 -0.1736 -0.0028
54142OCT     C2 8284  19.052   7.672  21.862 -0.1612  0.1632 -0.0080
54143OCT     C1 8285  17.488  20.888   7.337 -0.3263 -0.1362 -0.1977
54143OCT     C2 8286  17.620  21.215   7.671  0.3145  0.0123 -0.0095
54144OCT     C1 8287  18.489  20.531  12.497  0.1465  0.0569 -0.1243
54144OCT     C2 8288  18.821  20.331  12.272  0.0591  0.0171 -0.1130
54145OCT     C1 8289  13.067   1.969   1.158  0.1555  0.1318  0.0517
54145OCT     C2 8290  12.817   1.616   1.277  0.2706  0.3082 -0.0635
54146OCT     C1 8291   9.023   4.587  23.496 -0.1196 -0.0878 -0.0763
54146OCT     C2 8292   8.959   5.052  23.384  0.0811  0.2003  0.3239
54147OCT     C1 8293  10.172  17.988  16.245 -0.0995  0.3570  0.2145
54147OCT     C2 8294  10.435  18.094  16.625  0.3836 -0.1664 -0.0819
54148OCT     C1 8295  13.011  21.457  20.412 -0.0362 -0.0024  0.1849
54148OCT     C2 8296  12.758  21.762  20.631 -0.0659  0.1693  0.0109
54149OCT     C1 8297  19.661  13.906  18.994  0.0169 -0.4527  0.1228
54149OCT     C2 8298  19.838  14.018  19.447 -0.2977  0.0091 -0.1380
54150OCT     C1 8299  10.260  19.276   5.988  0.1303 -0.3455 -0.2048
54150OCT     C2 8300   9.832  19.151   5.916 -0.0544 -0.1519  0.0266
54151OCT     C1 8301  22.237  14.055  23.426  0.2737  0.0057 -0.1593
54151OCT     C2 8302  22.537  14.049   0.036 -0.2280  0.6201  0.2467
54152OCT     C1 8303  17.164  10.565  19.968  0.0538 -0.1456  0.0184
54152OCT     C2 8304  17.098  10.181  20.080  0.1133  0.2177 -0.0613
54153OCT     C1 8305   5.491  13.751   7.395 -0.1935  0.0368  0.2358
54153OCT     C2 8306   5.625  13.589   7.807 -0.0715  0.1967  0.0491
54154OCT     C1 8307   1.100  22.659  18.135  0.3633  0.0033 -0.0328
54154OCT     C2 8308   1.028  22.503  18.571  0.2113  0.1977  0.0062
54155OCT     C1 8309   6.329  21.318  16.924  0.0261 -0.1613  0.0329
54155OCT     C2 8310   6.324  20.836  16.894 -0.0709 -0.4510  0.0722
54156OCT     C1 8311   4.937  20.256  18.163  0.0101 -0.2009  0.0006
54156OCT     C2 8312   5.413  20.208  18.134  0.2137  0.1645  0.2305
54157OCT     C1 8313   7.665  17.163  22.388 -0.1249  0.5059 -0.0522
54157OCT     C2 8314   7.293  17.363  22.519 -0.0792 -0.0572  0.3707
54158OCT     C1 8315   8.068  13.279  11.295 -0.1714  0.0882  0.0028
54158OCT     C2 8316   8.073  13.676  11.568 -0.2151 -0.2045  0.1560
54159OCT     C1 8317   9.067   7.835   6.284 -0.1422  0.0495  0.1893
54159OCT     C2 8318   8.672   8.044   6.298 -0.1499  0.3709  0.4350
54160OCT     C1 8319   2.403   0.308  15.037 -0.1464 -0.0870  0.0710
54160OCT     C2 8320   2.492   0.806  15.176 -0.1055  0.4550  0.2566
54161OCT     C1 8321  17.008   3.358   9.339 -0.2062  0.3454 -0.4023
54161OCT     C2 8322  16.711   3.450   9.023  0.2835  0.1581 -0.2422
54162OCT     C1 8323  21.466   7.878  18.990  0.0331  0.1778  0.1897
54162OCT     C2 8324  21.559   8.231  19.255 -0.0687 -0.0354  0.0984
54163OCT     C1 8325  14.841  15.224  15.664  0.2159 -0.5275  0.2136
54163OCT     C2 8326  15.088  15.621  15.766  0.1753 -0.2085 -0.3389
54164OCT     C1 8327  11.761  19.567  11.749  0.0212  0.4125 -0.0086
54164OCT     C2 8328  11.967  19.455  11.326  0.3202 -0.1619 -0.0884
54165OCT     C1 8329  12.524   1.832  22.138 -0.5375  0.1092  0.1307
54165OCT     C2 8330  12.608   1.616  22.535 -0.3071  0.0620 -0.1476
54166OCT     C1 8331   1.786  17.922  22.616 -0.0322  0.3007 -0.3755
54166OCT     C2 8332   1.444  17.734  22.415  0.0204 -0.0046  0.1591
54167OCT     C1 8333   9.760   5.511   2.125 -0.2103 -0.1707  0.1932
54167OCT     C2 8334  10.151   5.666   2.289 -0.1337 -0.3837  0.0563
54168OCT     C1 8335  17.712   2.873  14.441 -0.4553  0.0449  0.0455
54168OCT     C2 8336  17.280   2.788  14.225 -0.0371 -0.4384  0.1434
54169OCT     C1 8337  12.064  13.124  17.132 -0.4179 -0.0020  0.0296
54169OCT     C2 8338  12.107  13.296  17.607  0.1041 -0.0559 -0.2203
54170OCT     C1 8339   2.868   2.371   5.910 -0.0455  0.1332  0.4624
54170OCT     C2 8340   2.799   2.672   6.280  0.0382  0.3163 -0.3955
54171OCT     C1 8341  11.171   8.789  11.913  0.0646 -0.2318  0.2666
54171OCT     C2 8342  10.909   8.624  12.256 -0.0627 -0.1202  0.1559
54172OCT     C1 8343  21.573   8.862   7.733 -0.2556 -0.0593 -0.0423
54172OCT     C2 8344  21.860   9.209   7.606 -0.4070  0.2048  0.6028
54173OCT     C1 8345   1.358  20.422   0.572  0.2888  0.2305 -0.4031
54173OCT     C2 8346   1.622  20.329   0.950 -0.0790 -0.0826  0.3932
54174OCT     C1 8347  17.609  21.717  10.461 -0.2363  0.6023  0.1388
54174OCT     C2 8348  17.199  21.460  10.268  0.4887  0.1512  0.1781
54175OCT     C1 8349  12.611   4.673  16.233 -0.0612  0.4533  0.0647
54175OCT     C2 8350  13.045   4.821  16.111  0.0500 -0.3300  0.1389
54176OCT     C1 8351  17.184  20.551   7.620  0.0487  0.0704  0.2509
54176OCT     C2 8352  17.644  20.405   7.711 -0.1658 -0.0720  0.1612
54177OCT     C1 8353  17.854   7.350   7.698  0.0983 -0.1411  0.1001
54177OCT     C2 8354  17.509   7.465   7.438 -0.2644 -0.1402 -0.1003
54178OCT     C1 8355   1.700   2.619   7.321  0.0235 -0.1638 -0.4780
54178OCT     C2 8356   1.852   2.855   6.967 -0.2154 -0.0482  0.2912
54179OCT     C1 8357   8.986  21.648   9.944  0.2524 -0.1908  0.0378
54179OCT     C2 8358   9.359  21.594   9.694 -0.2526  0.0392  0.0233
54180OCT     C1 8359  16.137  18.302  13.137  0.1621  0.1568  0.1693
54180OCT     C2 8360  16.470  18.456  13.428  0.0823  0.1064 -0.2400
54181OCT     C1 8361   3.054  19.809  19.052 -0.0222 -0.2203  0.0970
54181OCT     C2 8362   3.241  20.083  18.726  0.4994 -0.0421 -0.0048
54182OCT     C1 8363  15.178  17.605  21.168 -0.2423  0.0682 -0.1662
54182OCT     C2 8364  14.948  17.895  21.409  0.2465 -0.1258 -0.2749
54183OCT     C1 8365  11.446  16.039  11.254  0.0734  0.0234 -0.1970
54183OCT     C2 8366  11.073  15.967  11.100 -0.3046 -0.1654  0.0879
54184OCT     C1 8367  11.678  15.653  11.511 -0.2930  0.0482 -0.2507
54184OCT     C2 8368  11.947  15.930  11.164  0.0034  0.2760  0.0114
54185OCT     C1 8369  14.098   1.750   3.168  0.1211  0.0147 -0.1740
54185OCT     C2 8370  13.919   2.110   2.861  0.0592  0.0933 -0.2963
54186OCT     C1 8371  22.274  15.766   4.643 -0.1670  0.1597 -0.2011
54186OCT     C2 8372  22.414  15.978   5.008 -0.1391  0.1163 -0.2070
54187OCT     C1 8373  15.789   4.443   6.227  0.0898  0.0443  0.0098
54187OCT     C2 8374  15.864   3.957   6.111  0.0776  0.2711  0.0713
54188OCT     C1 8375   4.518   7.960  14.734 -0.1086 -0.1195  0.0946
54188OCT     C2 8376   4.325   8.160  15.023 -0.1871  0.2435  0.3211
54189OCT     C1 8377  18.510  15.136   5.133  0.0265 -0.3212 -0.0363
54189OCT     C2 8378  18.474  14.683   5.106  0.1748 -0.0935  0.2518
54190OCT     C1 8379   3.615   0.839  21.165  0.4487 -0.2032  0.0509
54190OCT     C2 8380   3.982   1.085  21.297 -0.1282  0.0031  0.2983
54191OCT     C1 8381  15.307   2.463  14.635 -0.3873  0.1530  0.1184
54191OCT     C2 8382  15.681   2.501  14.935  0.4296 -0.0054 -0.2043
54192OCT     C1 8383   8.338   2.148   9.453  0.3252 -0.1928  0.1572
54192OCT     C2 8384   8.096   1.913   9.142 -0.3900  0.1056 -0.4063
54193OCT     C1 8385  20.669   8.548  19.495  0.0131 -0.2478  0.3270
54193OCT     C2 8386  20.559   8.551  19.034 -0.2285 -0.0109 -0.4793
54194OCT     C1 8387  22.912  22.727  18.094  0.0148 -0.3711 -0.1208
54194OCT     C2 8388  23.351  22.897  18.213  0.2254 -0.1050  0.0148
54195OCT     C1 8389  18.986   4.805  13.157  0.0971  0.2942  0.0119
54195OCT     C2 8390  18.752   4.562  12.807  0.0517  0.0501  0.3033
54196OCT     C1 8391  22.665   9.477  10.797  0.0045 -0.3513 -0.2768
54196OCT     C2 8392  22.310   9.298  11.083  0.1527 -0.1536 -0.1627
54197OCT     C1 8393  13.359   7.379   9.483  0.0225  0.0025 -0.0633
54197OCT     C2 8394  13.347   7.382   9.036 -0.1471 -0.0442  0.1726
54198OCT     C1 8395  11.782  10.328   6.380  0.0713  0.0838 -0.0523
54198OCT     C2 8396  11.522  10.698   6.588 -0.2365  0.5015 -0.6054
54199OCT     C1 8397  13.424  21.077  20.982 -0.0767  0.2782  0.0121
54199OCT     C2 8398  13.381  20.686  20.832 -0.0140 -0.2352 -0.1063
54200OCT     C1 8399  14.806   4.060  11.568 -0.5187 -0.0830 -0.0346
54200OCT     C2 8400  14.388   3.865  11.581  0.1648 -0.1057  0.0717
54201OCT     C1 8401  14.664   6.546  13.833 -0.0247 -0.1706 -0.4082
54201OCT     C2 8402  14.617   6.973  14.106 -0.0619 -0.0540 -0.1300
54202OCT     C1 8403  16.049  14.455   8.602  0.1720 -0.1345  0.1317
54202OCT     C2 8404  16.040  14.583   8.120 -0.0584  0.1817 -0.1076
54203OCT     C1 8405  11.486   1.372  11.321 -0.0717  0.2195  0.0702
54203OCT     C2 8406  11.506   1.200  11.773 -0.2761 -0.2553  0.4331
54204OCT     C1 8407   6.317   8.169   7.004 -0.1087 -0.0933 -0.0208
54204OCT     C2 8408   5.998   7.792   6.859 -0.1033  0.1324 -0.1746
54205OCT     C1 8409   9.028  23.445  11.904  0.1921  0.0930  0.0349
54205OCT     C2 8410   9.088   0.076  11.617  0.0690  0.0063  0.5325
54206OCT     C1 8411   7.028  17.483   6.749  0.0292  0.1435 -0.2108
54206OCT     C2 8412   7.200  17.845   6.508 -0.2266  0.1054 -0.2067
54207OCT     C1 8413  22.320  19.537   2.449  0.1106 -0.0118 -0.0026
54207OCT     C2 8414  22.328  19.998   2.402 -0.3739 -0.0758 -0.0937
54208OCT     C1 8415  21.291  17.524  12.167 -0.0120 -0.0758 -0.1060
54208OCT     C2 8416  21.636  17.841  12.335 -0.0044 -0.0210 -0.5476
54209OCT     C1 8417   0.047  21.537  13.067  0.4377 -0.2425  0.3361
54209OCT     C2 8418   0.180  21.129  12.953 -0.0469 -0.0504  0.4941
54210OCT     C1 8419  23.297  13.234   5.593  0.1016 -0.2189  0.2142
54210OCT     C2 8420  23.192  13.702   5.436  0.0044 -0.2085  0.2711
54211OCT     C1 8421   5.137  14.405  20.846  0.1529 -0.2419  0.1513
54211OCT     C2 8422   5.480  14.598  20.624 -0.2211  0.1409  0.2131
54212OCT     C1 8423   6.239  18.782   9.031 -0.0816 -0.2330  0.2970
54212OCT     C2 8424   6.115  18.949   9.423 -0.2834  0.2026 -0.1049
54213OCT     C1 8425  13.866   3.248   8.215 -0.2786 -0.0977 -0.0012
54213OCT     C2 8426  13.888   3.694   8.161  0.0802  0.2065 -0.0082
54214OCT     C1 8427  22.428   2.175  16.778 -0.0044 -0.1604  0.4323
54214OCT     C2 8428  22.177   2.447  17.089 -0.1307 -0.7145  0.0455
54215OCT     C1 8429  11.911  18.532   3.556  0.3211  0.1903  0.0022
54215OCT     C2 8430  12.030  18.924   3.818  0.0783 -0.1260  0.0924
54216OCT     C1 8431  12.613   7.939   9.417  0.4780 -0.0937 -0.0889
54216OCT     C2 8432  12.875   8.388   9.352  0.0062  0.3560 -0.1763
54217OCT     C1 8433   1.159  15.865  23.716  0.5313 -0.3121  0.2321
54217OCT     C2 8434   0.795  15.720   0.192 -0.1127  0.2513 -0.4819
54218OCT     C1 8435  11.713   9.088   6.424  0.1649  0.0235  0.0513
54218OCT     C2 8436  11.892   9.542   6.451  0.1302 -0.1618  0.2530
54219OCT     C1 8437   5.757  14.108  16.625 -0.0121 -0.3970 -0.2633
54219OCT     C2 8438   5.659  14.118  16.197 -0.1674 -0.0900  0.3905
54220OCT     C1 8439  15.174  11.023   1.636 -0.1820 -0.2011  0.1543
54220OCT     C2 8440  15.609  11.000   1.598 -0.0946 -0.1230 -0.2948
54221OCT     C1 8441   6.169   6.512   4.598  0.0043  0.0152 -0.1313
54221OCT     C2 8442   5.878   6.233   4.792 -0.1200  0.0327  0.0066
54222OCT     C1 8443  18.664  20.168   3.099  0.0511  0.1929 -0.0004
54222OCT     C2 8444  18.526  20.345   3.472 -0.0382  0.1880 -0.0174
54223OCT     C1 8445  11.474  22.094   5.918 -0.0184  0.1481 -0.0247
54223OCT     C2 8446  11.045  22.098   6.090  0.2893  0.0682 -0.0864
54224OCT     C1 8447  16.809  21.593  15.061  0.3431 -0.1706  0.0303
54224OCT     C2 8448  17.280  21.561  15.071 -0.1185 -0.0372  0.2859
54225OCT     C1 8449  17.450  19.698  16.181 -0.0902  0.2362 -0.0272
54225OCT     C2 8450  17.655  19.749  16.637  0.0954 -0.0359 -0.4631
54226OCT     C1 8451  14.083  19.334  13.891 -0.2711 -0.1096  0.0414
54226OCT     C2 8452  14.018  19.760  14.101  0.1300 -0.0398 -0.2091
54227OCT     C1 8453  14.107   3.678   2.351  0.0986  0.2541 -0.0409
54227OCT     C2 8454  14.103   4.124   2.391  0.3905 -0.4066 -0.1178
54228OCT     C1 8455   9.774  18.833   4.170 -0.0509  0.0817 -0.1280
54228OCT     C2 8456   9.574  19.003   4.554 -0.0012 -0.0099 -0.0276
54229OCT     C1 8457  10.263   3.656   0.636 -0.4320  0.2415 -0.1788
54229OCT     C2 8458  10.592   3.569   0.890 -0.2000  0.1456 -0.1561
54230OCT     C1 8459  19.272   1.492  22.259  0.3852 -0.0691 -0.3228
54230OCT     C2 8460  18.825   1.495  22.383  0.2236  0.0698 -0.4518
54231OCT     C1 8461  19.654  22.434   8.835 -0.4107  0.0633  0.0648
54231OCT     C2 8462  19.449  22.116   9.121  0.2161 -0.2472 -0.0253
54232OCT     C1 8463  13.612   9.881  15.712 -0.4899  0.3423  0.1788
54232OCT     C2 8464  13.935  10.135  15.855  0.1903 -0.3580  0.2445
54233OCT     C1 8465   3.721  18.376   0.804 -0.3719  0.0648 -0.2878
54233OCT     C2 8466   3.726  18.799   0.829 -0.0563  0.4704  0.1387
54234OCT     C1 8467  10.048  21.317   6.284  0.0248 -0.6223  0.0798
54234OCT     C2 8468   9.790  21.629   6.078 -0.0432 -0.1580  0.0748
54235OCT     C1 8469  23.534   0.962  21.178 -0.0947 -0.0585  0.1902
54235OCT     C2 8470  23.107   1.041  21.032 -0.0127  0.0985  0.2793
54236OCT     C1 8471  15.695  16.827   1.494 -0.1203 -0.2690 -0.2035
54236OCT     C2 8472  16.006  16.877   1.769 -0.1652 -0.2913  0.4081
54237OCT     C1 8473   5.318   4.109   7.144 -0.2340 -0.1130 -0.1168
54237OCT     C2 8474   5.376   4.373   7.519  0.0565  0.1798 -0.2727
54238OCT     C1 8475   0.499   1.410  22.253 -0.2728 -0.1350 -0.1129
54238OCT     C2 8476   0.169   1.234  22.571 -0.2842 -0.2905 -0.1897
54239OCT     C1 8477   9.053   0.011   6.447  0.4958  0.6280  0.1438
54239OCT     C2 8478   8.896  23.644   6.888 -0.0578 -0.1564 -0.0797
54240OCT     C1 8479   4.028   2.154   5.209  0.2072  0.0909 -0.0437
54240OCT     C2 8480   3.734   2.420   4.978 -0.0161 -0.2270 -0.0348
54241OCT     C1 8481  20.471  12.493   7.909  0.1520 -0.2600 -0.3013
54241OCT     C2 8482  20.319  12.781   8.281 -0.2675  0.0833 -0.0106
54242OCT     C1 8483  13.073   5.760  14.120  0.0371 -0.1297 -0.0572
54242OCT     C2 8484  12.757   5.496  14.230  0.3275 -0.1104  0.2026
54243OCT     C1 8485  19.333   1.242  23.364  0.0887 -0.0678 -0.1087
54243OCT     C2 8486  19.561   1.607  23.606 -0.9538  0.0336  0.0639
54244OCT     C1 8487  17.102   0.843  18.850 -0.2014 -0.0636  0.0039
54244OCT     C2 8488  16.747   0.514  18.930  0.6042 -0.0142  0.2577
54245OCT     C1 8489  13.874  14.240   0.494 -0.1923  0.2587  0.1147
54245OCT     C2 8490  14.265  14.459   0.651  0.0332  0.2573 -0.0204
54246OCT     C1 8491   4.413   4.436  19.806  0.0147  0.3042 -0.1905
54246OCT     C2 8492   4.884   4.461  19.676  0.0394 -0.1596  0.0639
54247OCT     C1 8493  16.610   8.319   6.947 -0.2179  0.1317 -0.0549
54247OCT     C2 8494  16.463   8.757   7.069  0.4881 -0.0342  0.2361
54248OCT     C1 8495  16.800   8.686   8.164 -0.3651  0.0734 -0.0784
54248OCT     C2 8496  17.273   8.712   8.188 -0.0564  0.2513  0.0095
54249OCT     C1 8497   7.038  17.243  13.773  0.0699  0.4774  0.1037
54249OCT     C2 8498   7.100  17.681  13.609  0.0899  0.1095 -0.2119
54250OCT     C1 8499  19.525  12.788   5.186  0.2164  0.1608  0.0078
54250OCT     C2 8500  19.088  12.847   5.077  0.3741 -0.2055 -0.1242
54251OCT     C1 8501   4.935   9.349   2.637  0.1411  0.1086  0.0696
54251OCT     C2 8502   4.779   8.915   2.563  0.2069 -0.1087 -0.1833
54252OCT     C1 8503  22.178  18.353   0.353 -0.1119  0.2358 -0.1321
54252OCT     C2 8504  21.796  18.058   0.274  0.3630  0.0743 -0.4458
54253OCT     C1 8505  17.374   8.164   8.219  0.3507  0.0420 -0.2809
54253OCT     C2 8506  17.776   8.380   8.390  0.0861  0.0696 -0.0136
54254OCT     C1 8507  11.020  18.844  19.008 -0.5130  0.3411  0.2779
54254OCT     C2 8508  11.193  18.501  19.255 -0.0589  0.3988 -0.0241
54255OCT     C1 8509  12.993   3.703  22.430  0.2733  0.4476 -0.0215
54255OCT     C2 8510  13.119   4.211  22.427 -0.4066 -0.0628  0.2560
54256OCT     C1 8511   8.836  20.352  17.835 -0.1206  0.1414 -0.3653
54256OCT     C2 8512   9.162  20.023  17.678 -0.2811 -0.1678  0.0435
54257OCT     C1 8513  13.396   5.252  11.666 -0.0171 -0.1373  0.1953
54257OCT     C2 8514  13.283   5.697  11.840 -0.1271 -0.2804  0.2091
54258OCT     C1 8515   7.018   7.498  20.611 -0.0274  0.1713  0.1951
54258OCT     C2 8516   7.280   7.189  20.424 -0.0602 -0.2058 -0.1471
54259OCT     C1 8517   1.090  12.860  16.912 -0.2180 -0.0129  0.1535
54259OCT     C2 8518   1.168  12.602  17.289 -0.3883  0.0633  0.1227
54260OCT     C1 8519  13.090  22.721  20.947  0.0251  0.0025 -0.0188
54260OCT     C2 8520  12.948  22.504  21.317  0.1696 -0.1060 -0.0355
54261OCT     C1 8521  17.201  16.923  16.160 -0.1018 -0.1432  0.3652
54261OCT     C2 8522  17.555  17.042  16.391 -0.1669 -0.2356 -0.2121
54262OCT     C1 8523   2.958  10.083   2.117  0.4042 -0.0755 -0.3081
54262OCT     C2 8524   2.752   9.826   1.726  0.5614  0.1573  0.1795
54263OCT     C1 8525   2.849   9.081  15.782  0.2200  0.0142  0.5229
54263OCT     C2 8526   2.780   8.758  16.099  0.2297 -0.1086 -0.0970
54264OCT     C1 8527  17.864   8.807  11.253 -0.2969  0.0940  0.0795
54264OCT     C2 8528  17.664   8.486  10.945  0.0194 -0.0670 -0.0917
54265OCT     C1 8529  10.688  17.441   9.005  0.0785  0.1147  0.0853
54265OCT     C2 8530  10.211  17.620   9.064  0.0214  0.5151 -0.2239
54266OCT     C1 8531   4.043   6.679   4.677  0.3077 -0.2783 -0.4541
54266OCT     C2 8532   3.956   7.028   4.939  0.1545 -0.0504  0.0772
54267OCT     C1 8533  20.752  17.962   9.266 -0.4301 -0.0872 -0.4053
54267OCT     C2 8534  20.871  18.074   8.825  0.0441  0.2114 -0.4344
54268OCT     C1 8535  15.557   1.508   6.449  0.0544 -0.1932 -0.0273
54268OCT     C2 8536  15.709   1.390   5.967  0.1457 -0.1195 -0.1850
54269OCT     C1 8537   3.957  20.357  10.788  0.1061 -0.0351  0.1115
54269OCT     C2 8538   4.109  20.705  10.552  0.1031  0.1003  0.1266
54270OCT     C1 8539   9.274   4.816   0.192  0.0634 -0.1146  0.0543
54270OCT     C2 8540   9.269   4.341   0.135  0.4674 -0.2256 -0.1299
54271OCT     C1 8541   0.141  15.883  22.863 -0.1031 -0.0026  0.2562
54271OCT     C2 8542   0.011  15.618  23.252 -0.1883  0.2972  0.0800
54272OCT     C1 8543  21.814   6.652   3.217 -0.0346  0.1344 -0.0573
54272OCT     C2 8544  22.115   6.810   3.520  0.1240 -0.0887  0.0416
54273OCT     C1 8545  20.667   2.587  12.986 -0.0809  0.1671  0.0139
54273OCT     C2 8546  21.032   2.355  13.066  0.5220  0.0545 -0.2187
54274OCT     C1 8547  10.309   4.473   5.735 -0.1590  0.1871 -0.0968
54274OCT     C2 8548  10.140   4.426   5.353  0.2377  0.0755 -0.2274
54275OCT     C1 8549  17.991  15.398  10.266 -0.0597  0.0162  0.0105
54275OCT     C2 8550  17.857  14.954  10.288 -0.2584 -0.0103 -0.1596
54276OCT     C1 8551   0.176  10.247   5.948  0.0742 -0.3572 -0.2915
54276OCT     C2 8552   0.449  10.337   6.327 -0.1183  0.0117 -0.0402
54277OCT     C1 8553  10.309   2.954   1.670  0.2291 -0.0505 -0.0607
54277OCT     C2 8554  10.225   2.753   2.028  0.1650 -0.1237  0.5049
54278OCT     C1 8555   5.576  10.981  18.440  0.0166 -0.0759  0.0992
54278OCT     C2 8556   5.153  10.999  18.305 -0.2035 -0.1531  0.0709
54279OCT     C1 8557  12.559  20.052  14.013  0.2807 -0.3891  0.1841
54279OCT     C2 8558  12.353  19.784  13.650 -0.1663  0.1855 -0.2193
54280OCT     C1 8559   2.157  21.196   0.284 -0.0856 -0.2540 -0.0910
54280OCT     C2 8560   2.645  21.087   0.387 -0.0921  0.1550 -0.1340
54281OCT     C1 8561   7.467  15.524   0.550  0.0163  0.2882 -0.0639
54281OCT     C2 8562   7.126  15.595   0.367  0.3201  0.0014 -0.2237
54282OCT     C1 8563   9.979   5.159  19.515  0.3520  0.0780 -0.0142
54282OCT     C2 8564   9.556   4.931  19.463 -0.2191  0.0472 -0.1274
54283OCT     C1 8565   6.439  11.834  17.062 -0.2071  0.2207  0.2817
54283OCT     C2 8566   6.693  11.712  16.627 -0.1267  0.0075 -0.1381
54284OCT     C1 8567  18.553  16.177   4.760  0.0705  0.0585 -0.0072
54284OCT     C2 8568  18.502  16.630   4.913  0.3832 -0.0157 -0.0141
54285OCT     C1 8569  10.653  18.177  20.946 -0.0846 -0.5081 -0.1248
54285OCT     C2 8570  11.062  18.139  21.158  0.0525 -0.3346  0.2134
54286OCT     C1 8571  16.773   4.349   3.305 -0.4678 -0.1891 -0.3041
54286OCT     C2 8572  17.004   4.006   3.135  0.2660  0.1339  0.1407
54287OCT     C1 8573  23.420  16.437  17.362  0.0518 -0.0525 -0.0087
54287OCT     C2 8574   0.124  16.490  17.407  0.3311  0.0155  0.1392
54288OCT     C1 8575   5.978  16.792  18.445  0.1322  0.0200 -0.2937
54288OCT     C2 8576   6.291  16.494  18.521 -0.2270  0.1138 -0.2527
54289OCT     C1 8577  12.883   1.449   3.246  0.3850 -0.2459  0.0776
54289OCT     C2 8578  13.073   1.730   2.934  0.0415 -0.1026  0.0232
54290OCT     C1 8579  12.944  12.813  13.333 -0.0700  0.3251  0.1866
54290OCT     C2 8580  12.702  12.487  13.019 -0.0898  0.2278  0.5062
54291OCT     C1 8581  16.315  18.675   8.097  0.0581  0.2137  0.0607
54291OCT     C2 8582  16.781  18.643   7.913  0.1481 -0.1845  0.1324
54292OCT     C1 8583  16.523  13.193  11.399 -0.0996  0.0360 -0.1433
54292OCT     C2 8584  16.712  13.523  11.158 -0.2235  0.1049 -0.1829
54293OCT     C1 8585   1.161   8.750   8.050  0.0204 -0.2650 -0.1491
54293OCT     C2 8586   1.449   8.523   7.846  0.1735  0.4342  0.1204
54294OCT     C1 8587   3.052   8.781  15.458  0.0895  0.1353  0.0857
54294OCT     C2 8588   2.641   8.659  15.642 -0.0407 -0.2887 -0.1030
54295OCT     C1 8589  13.743  21.797   3.669  0.0285  0.1253 -0.2446
54295OCT     C2 8590  14.073  21.948   3.415  0.1325 -0.5330 -0.2001
54296OCT     C1 8591   6.753   8.549  11.998  0.0310 -0.1207 -0.1570
54296OCT     C2 8592   6.435   8.233  11.790  0.0225  0.1090  0.1295
54297OCT     C1 8593   3.828   9.470  23.287 -0.0292 -0.1595  0.1868
54297OCT     C2 8594   3.638   9.112  23.196  0.3571  0.0447  0.0679
54298OCT     C1 8595   0.375   7.416  12.134  0.1570  0.1747  0.1573
54298OCT     C2 8596   0.781   7.220  11.999  0.0930  0.2121 -0.1090
54299OCT     C1 8597  10.663  21.982  13.257  0.0047  0.4217 -0.1501
54299OCT     C2 8598  10.590  21.905  13.729 -0.2885  0.0330  0.2176
54300OCT     C1 8599  21.497  15.114   3.102 -0.1768  0.3461 -0.0219
54300OCT     C2 8600  21.715  15.505   3.274  0.0415 -0.0223  0.1334
54301OCT     C1 8601   5.055  22.162  17.003  0.0853 -0.3743 -0.2442
54301OCT     C2 8602   4.701  22.445  16.751 -0.3580  0.1565 -0.4019
54302OCT     C1 8603  13.868  14.878  10.213  0.0311  0.1862 -0.3434
54302OCT     C2 8604  14.099  15.290  10.432 -0.3322 -0.0889  0.2249
54303OCT     C1 8605  18.512  16.990   4.168 -0.1897 -0.2508  0.0908
54303OCT     C2 8606  18.098  17.199   4.210 -0.1440  0.1494 -0.3078
54304OCT     C1 8607   6.739  22.359   9.421 -0.0849  0.1036  0.1077
54304OCT     C2 8608   6.927  22.354   9.855  0.0049 -0.0222  0.3997
54305OCT     C1 8609  20.416  10.433   7.048  0.5768 -0.1648 -0.0193
54305OCT     C2 8610  20.748  10.264   6.748  0.0800 -0.2855 -0.0553
54306OCT     C1 8611  20.871  19.588  11.817 -0.2574  0.1416  0.0710
54306OCT     C2 8612  20.502  19.307  12.050 -0.1316 -0.1500  0.0553
54307OCT     C1 8613  21.318   1.955   2.622 -0.0457 -0.0235  0.0715
54307OCT     C2 8614  21.653   1.591   2.556 -0.0906  0.1344  0.0570
54308OCT     C1 8615   7.538  12.729   5.631 -0.1050 -0.0075 -0.1149
54308OCT     C2 8616   7.788  12.816   5.206  0.0470  0.1236 -0.1976
54309OCT     C1 8617  20.316   2.029   3.826  0.0349 -0.1671  0.2637
54309OCT     C2 8618  20.452   2.139   4.265  0.2005  0.2247 -0.2771
54310OCT     C1 8619   8.657  16.337  19.916 -0.0388 -0.2861  0.1274
54310OCT     C2 8620   8.709  16.656  20.231 -0.2585  0.0473 -0.1700
54311OCT     C1 8621  20.362   8.295   0.822 -0.5272  0.3286 -0.0423
54311OCT     C2 8622  20.589   8.702   0.909  0.5688  0.1031  0.0620
54312OCT     C1 8623   3.698  11.366  12.645  0.2061 -0.2193  0.1487
54312OCT     C2 8624   3.334  11.051  12.633 -0.0408  0.1006 -0.0538
54313OCT     C1 8625  13.760   1.943  11.150  0.2688  0.0183  0.1148
54313OCT     C2 8626  13.812   2.396  11.043  0.0344 -0.0063 -0.3178
54314OCT     C1 8627  23.109   9.004   4.104 -0.0089  0.2112  0.1412
54314OCT     C2 8628  23.078   8.898   3.619  0.1544 -0.3876 -0.0520
54315OCT     C1 8629  11.329  23.670   2.916 -0.0098 -0.0963 -0.3188
54315OCT     C2 8630  11.526  23.341   3.213  0.0305  0.2186 -0.2022
54316OCT     C1 8631   2.538  15.476   6.626 -0.4237  0.2740 -0.2368
54316OCT     C2 8632   2.448  15.905   6.740  0.1238  0.0586  0.0054
54317OCT     C1 8633   4.413  15.261   9.428 -0.1098 -0.2411 -0.0972
54317OCT     C2 8634   4.806  15.456   9.613  0.1669  0.0625 -0.1104
54318OCT     C1 8635   1.015  21.723   5.207 -0.0716  0.0708 -0.2268
54318OCT     C2 8636   1.121  21.325   4.921 -0.0377 -0.2737 -0.1154
54319OCT     C1 8637  16.705  12.482   1.425 -0.3350 -0.3334  0.0189
54319OCT     C2 8638  16.304  12.304   1.328  0.2252 -0.1159  0.1898
54320OCT     C1 8639   3.533  19.706   6.376  0.1316  0.1200  0.2989
54320OCT     C2 8640   3.219  19.577   6.669 -0.0727  0.2208  0.0798
54321OCT     C1 8641   6.421  19.937  11.195  0.1961 -0.5062 -0.0227
54321OCT     C2 8642   6.389  20.404  11.044 -0.1462 -0.1442 -0.1569
54322OCT     C1 8643  19.821   6.442  21.720  0.0480  0.2416  0.2883
54322OCT     C2 8644  19.931   6.547  22.183  0.2966  0.2810  0.0760
54323OCT     C1 8645  15.389  16.453   3.007 -0.0566 -0.0013  0.1598
54323OCT     C2 8646  15.519  16.877   3.114 -0.0619  0.0585  0.0556
54324OCT     C1 8647   3.542   4.678  14.974  0.0424 -0.0049  0.0448
54324OCT     C2 8648   3.631   4.762  14.557 -0.0236 -0.2485 -0.0644
54325OCT     C1 8649  22.949  16.680  21.079  0.0278  0.1595  0.1444
54325OCT     C2 8650  22.765  16.672  21.499 -0.1682  0.0774 -0.0649
54326OCT     C1 8651   8.464  23.215   7.476  0.3316  0.1258 -0.1547
54326OCT     C2 8652   8.937  23.104   7.585  0.4177 -0.2091 -0.1863
54327OCT     C1 8653  16.198   6.410   9.296  0.0139 -0.2265 -0.1934
54327OCT     C2 8654  16.059   6.053   9.619  0.2098  0.0738 -0.1711
54328OCT     C1 8655   8.183  15.318   1.319  0.0998 -0.2950  0.3381
54328OCT     C2 8656   8.628  15.534   1.406  0.2856 -0.1156 -0.1863
54329OCT     C1 8657  22.829   7.808   1.935 -0.4396  0.3408  0.0596
54329OCT     C2 8658  22.953   8.052   2.361 -0.0733 -0.1660  0.3970
54330OCT     C1 8659   1.855  10.055   7.631 -0.2346 -0.2525 -0.4559
54330OCT     C2 8660   1.780  10.380   7.351 -0.1735 -0.1895  0.0478
54331OCT     C1 8661  21.916   8.105  16.524  0.0550 -0.0175 -0.0456
54331OCT     C2 8662  22.091   8.521  16.638  0.0950  0.6492 -0.2922
54332OCT     C1 8663   2.332   0.705   5.713  0.2902  0.0036  0.0705
54332OCT     C2 8664   2.107   1.010   5.500 -0.0292 -0.3422  0.0799
54333OCT     C1 8665   9.350   6.179   5.501  0.2570 -0.1064 -0.0183
54333OCT     C2 8666   9.213   6.016   5.907  0.1576 -0.0631 -0.0810
54334OCT     C1 8667  15.949  23.439   6.508 -0.0892 -0.0070 -0.1261
54334OCT     C2 8668  16.044  23.399   6.959 -0.2885  0.2488 -0.1028
54335OCT     C1 8669   2.903  21.827  21.257 -0.0749  0.2167 -0.1507
54335OCT     C2 8670   3.096  22.216  21.459  0.3026  0.1906  0.0372
54336OCT     C1 8671  16.898  17.358  11.644  0.0838  0.1241 -0.0753
54336OCT     C2 8672  17.103  17.771  11.548 -0.2092 -0.3558 -0.1440
54337OCT     C1 8673   1.091  20.619  18.194 -0.0036 -0.3910 -0.2675
54337OCT     C2 8674   0.911  20.245  18.260 -0.0064 -0.1041 -0.0551
54338OCT     C1 8675  22.584   2.663   3.303  0.1769  0.5115 -0.0746
54338OCT     C2 8676  22.437   2.481   3.699  0.0842 -0.1480 -0.0936
54339OCT     C1 8677  21.442  20.853  21.252 -0.2947  0.4476 -0.6063
54339OCT     C2 8678  21.473  21.070  21.671 -0.0092  0.1262  0.2142
54340OCT     C1 8679   0.257  21.184  21.016 -0.1246  0.3628  0.0274
54340OCT     C2 8680   0.644  21.308  21.047  0.3005  0.0677 -0.2732
54341OCT     C1 8681  18.787  19.045   7.857 -0.1044 -0.0949  0.3492
54341OCT     C2 8682  19.231  19.208   7.898 -0.2059 -0.1334  0.1119
54342OCT     C1 8683  23.181  11.494  14.075 -0.0535  0.1579 -0.1803
54342OCT     C2 8684  23.172  11.075  14.290 -0.0630  0.1148 -0.0837
54343OCT     C1 8685  19.517   8.600  16.756 -0.1182  0.4403  0.0735
54343OCT     C2 8686  19.483   9.015  16.536 -0.0340 -0.3872  0.0490
54344OCT     C1 8687   5.624  22.906   9.657  0.1315 -0.0861 -0.2650
54344OCT     C2 8688   5.544  23.263   9.955  0.1209 -0.1092  0.1300
54345OCT     C1 8689  22.398  22.528  23.444 -0.0109 -0.0970 -0.3591
54345OCT     C2 8690  22.636  22.655  22.991  0.0062 -0.2357 -0.0587
54346OCT     C1 8691   8.757  23.165  23.722 -0.0421 -0.2110 -0.5301
54346OCT     C2 8692   9.071  22.828  23.670 -0.0511 -0.2098 -0.1894
54347OCT     C1 8693  19.664  13.211  16.650 -0.0363 -0.2118  0.1812
54347OCT     C2 8694  19.678  13.243  16.220 -0.0755 -0.0135 -0.1308
54348OCT     C1 8695   4.500  16.068  22.837  0.0132  0.0140  0.2252
54348OCT     C2 8696   4.225  15.902  23.185  0.0652 -0.0903  0.0837
54349OCT     C1 8697  21.324  19.526   0.386  0.3254 -0.1722 -0.1861
54349OCT     C2 8698  21.314  19.779  23.696  0.1984 -0.1818 -0.0673
54350OCT     C1 8699  14.899  13.814   8.362  0.5594 -0.1128  0.2464
54350OCT     C2 8700  14.703  13.742   7.934  0.2343  0.0073 -0.0847
54351OCT     C1 8701   5.102  22.195   6.324  0.0297  0.1268 -0.1617
54351OCT     C2 8702   5.119  22.573   6.654 -0.1088  0.1138 -0.1866
54352OCT     C1 8703  15.612   2.291  19.434  0.0630  0.0935  0.1861
54352OCT     C2 8704  16.077   2.396  19.509 -0.2181 -0.2020  0.2133
54353OCT     C1 8705  22.167  18.048   5.919  0.0060 -0.2082 -0.6043
54353OCT     C2 8706  22.234  17.904   5.521 -0.2588  0.1223 -0.0808
54354OCT     C1 8707  16.733   4.178   0.122  0.1707  0.4224 -0.0326
54354OCT     C2 8708  17.198   4.173   0.126 -0.0877  0.0953 -0.0466
54355OCT     C1 8709  11.440   5.376  20.239 -0.0081 -0.1531  0.1079
54355OCT     C2 8710  11.588   5.648  19.916  0.2014 -0.0518 -0.3159
54356OCT     C1 8711   6.964   6.925   0.587  0.0269  0.0676  0.1586
54356OCT     C2 8712   7.125   6.971   1.042 -0.2579  0.1312  0.0770
54357OCT     C1 8713  15.489   2.156   7.662  0.3673 -0.0417  0.1728
54357OCT     C2 8714  15.468   2.619   7.841  0.1713 -0.0821 -0.0621
54358OCT     C1 8715   7.695   6.278  17.410 -0.2710 -0.1048  0.4680
54358OCT     C2 8716   7.713   5.767  17.360  0.1828 -0.5183  0.1484
54359OCT     C1 8717  11.083   8.300  18.784  0.1233 -0.1646  0.2526
54359OCT     C2 8718  10.841   8.493  19.112 -0.3333 -0.3746  0.1574
54360OCT     C1 8719   7.035   2.201  14.495  0.0809  0.0876  0.0661
54360OCT     C2 8720   7.310   2.253  14.127 -0.1028  0.0337 -0.2071
54361OCT     C1 8721  10.526  23.134  14.342  0.1745 -0.0451 -0.0843
54361OCT     C2 8722  10.859  23.435  14.500 -0.0268 -0.3405  0.2397
54362OCT     C1 8723  14.654  11.069  21.843 -0.4335 -0.1293 -0.0680
54362OCT     C2 8724  15.055  10.987  22.100 -0.0354 -0.1021 -0.2531
54363OCT     C1 8725   6.539  12.882   0.150 -0.1382  0.2411 -0.0634
54363OCT     C2 8726   6.809  12.939   0.525 -0.4784  0.1680  0.0784
54364OCT     C1 8727  10.059   3.991  22.397  0.1776  0.1017 -0.2000
54364OCT     C2 8728  10.049   3.544  22.413 -0.2777 -0.1990  0.1646
54365OCT     C1 8729  10.989   2.493   6.678 -0.0765  0.0115  0.1309
54365OCT     C2 8730  11.150   2.735   6.340 -0.0229  0.2706 -0.1168
54366OCT     C1 8731   5.959  22.410   9.753 -0.1185  0.2736 -0.2018
54366OCT     C2 8732   6.354  22.166   9.725  0.0363  0.2272  0.2127
54367OCT     C1 8733   5.955  13.955   7.331 -0.2001 -0.3009  0.0837
54367OCT     C2 8734   5.944  13.971   7.804  0.0168  0.1180 -0.0638
54368OCT     C1 8735   3.690  18.920   9.788  0.0442 -0.2088  0.0187
54368OCT     C2 8736   4.078  18.779  10.006  0.1893 -0.0102 -0.1430
54369OCT     C1 8737   6.346  22.557  15.055  0.0787 -0.1496 -0.1651
54369OCT     C2 8738   6.685  22.800  15.131  0.2919  0.1760 -0.1338
54370OCT     C1 8739  13.925   0.068   1.140 -0.3309 -0.3279  0.1302
54370OCT     C2 8740  14.021   0.546   1.067 -0.1731  0.0474 -0.0290
54371OCT     C1 8741   5.293  21.027  22.132 -0.0471  0.1462 -0.2083
54371OCT     C2 8742   5.602  21.384  21.947 -0.2367 -0.3077 -0.3614
54372OCT     C1 8743  20.855   6.177  11.502  0.1504 -0.0405 -0.0553
54372OCT     C2 8744  20.734   6.578  11.340  0.1768 -0.2619 -0.0075
54373OCT     C1 8745  18.789   5.884  14.595  0.1604 -0.2226 -0.0078
54373OCT     C2 8746  18.729   5.510  14.848  0.2428 -0.1311  0.1515
54374OCT     C1 8747   4.632  21.236  20.928  0.1587  0.4270 -0.2785
54374OCT     C2 8748   4.996  21.006  21.118  0.3112 -0.3001  0.0022
54375OCT     C1 8749  12.330   6.468   9.321 -0.0132  0.1118  0.2385
54375OCT     C2 8750  12.059   6.193   9.127  0.0695  0.1264 -0.1555
54376OCT     C1 8751  20.771   9.578   2.262 -0.1660  0.3223  0.1446
54376OCT     C2 8752  21.025   9.884   2.505  0.3247 -0.0909 -0.0387
54377OCT     C1 8753   5.136  12.583  22.782 -0.1449 -0.3163 -0.1445
54377OCT     C2 8754   4.745  12.306  22.895  0.0624  0.0146  0.3524
54378OCT     C1 8755   0.782  16.618  15.691 -0.1257  0.2915  0.0981
54378OCT     C2 8756   0.742  16.205  15.514 -0.1555 -0.3137 -0.1600
54379OCT     C1 8757  14.953  10.941  21.175 -0.0810 -0.2785  0.3053
54379OCT     C2 8758  14.894  11.335  21.469 -0.2706  0.0835  0.0659
54380OCT     C1 8759   1.382  23.710  11.467 -0.0858 -0.0535 -0.0039
54380OCT     C2 8760   1.407  23.734  11.930 -0.1865  0.1876 -0.0465
54381OCT     C1 8761  11.192   1.922   7.989  0.0145 -0.2117 -0.0328
54381OCT     C2 8762  11.669   1.861   8.052  0.1495  0.5120  0.0030
54382OCT     C1 8763   6.749  17.846  20.997 -0.1567 -0.2463 -0.0132
54382OCT     C2 8764   7.023  17.462  20.977 -0.1154 -0.1057 -0.1950
54383OCT     C1 8765  14.631  14.378  15.433  0.3531  0.0727 -0.2920
54383OCT     C2 8766  14.463  14.777  15.667 -0.1080  0.0651 -0.1354
54384OCT     C1 8767   0.476   6.923   3.376 -0.0305  0.2049  0.3079
54384OCT     C2 8768   0.375   6.446   3.359 -0.2898  0.1478  0.1337
54385OCT     C1 8769  17.105  19.122   8.535 -0.1780  0.1182  0.2718
54385OCT     C2 8770  17.512  19.287   8.701  0.4475 -0.0854 -0.0413
54386OCT     C1 8771  20.438   3.264  21.418  0.3512 -0.0708  0.0851
54386OCT     C2 8772  20.218   2.991  21.759  0.1466 -0.2779 -0.0239
54387OCT     C1 8773  23.446   7.509  11.746 -0.1078  0.2335  0.2145
54387OCT     C2 8774   0.122   7.534  11.634  0.0974  0.1751  0.1985
54388OCT     C1 8775   4.265   7.528  15.727 -0.1996 -0.3366 -0.1806
54388OCT     C2 8776   3.810   7.332  15.811 -0.1623  0.0302  0.1172
54389OCT     C1 8777  12.858  11.254   8.745 -0.1614  0.0880 -0.2383
54389OCT     C2 8778  12.611  11.186   9.089 -0.2003 -0.0934 -0.3950
54390OCT     C1 8779   5.887  20.370  22.365  0.1299  0.2056 -0.1570
54390OCT     C2 8780   5.525  20.617  22.176  0.1761  0.0408 -0.2204
54391OCT     C1 8781  11.113   7.518  22.746 -0.0036  0.2058  0.0382
54391OCT     C2 8782  11.301   7.342  23.120  0.2502 -0.3221 -0.4172
54392OCT     C1 8783   1.912  14.023  20.964  0.2739  0.0432 -0.2470
54392OCT     C2 8784   1.471  13.985  21.077 -0.1309  0.1582  0.2442
54393OCT     C1 8785  23.598  10.443  13.865 -0.3156  0.1425 -0.0566
54393OCT     C2 8786   0.225  10.674  13.922  0.2122 -0.3764 -0.1604
54394OCT     C1 8787  18.380  20.879  21.169  0.1974 -0.2598  0.0163
54394OCT     C2 8788  17.988  21.007  20.910  0.1007 -0.3052  0.4190
54395OCT     C1 8789   7.139  15.482   5.953  0.3322  0.1177 -0.1018
54395OCT     C2 8790   6.748  15.612   6.304 -0.0396 -0.0880  0.0811
54396OCT     C1 8791  16.642  14.737  13.222  0.0490 -0.0888  0.0719
54396OCT     C2 8792  16.411  14.507  13.590  0.1198 -0.2011 -0.0342
54397OCT     C1 8793   2.908  21.706  17.265 -0.5580  0.1370 -0.2211
54397OCT     C2 8794   3.281  21.456  17.447 -0.1704 -0.0801  0.2126
54398OCT     C1 8795   7.828  23.437   0.036  0.4568 -0.2633 -0.0235
54398OCT     C2 8796   7.540   0.088  23.676  0.0785  0.5102 -0.0371
54399OCT     C1 8797  11.866   0.932  21.316 -0.1594  0.1102  0.2595
54399OCT     C2 8798  12.106   1.033  20.953  0.1391  0.3933  0.3100
54400OCT     C1 8799  22.678   9.171   3.540  0.1371  0.1853 -0.2666
54400OCT     C2 8800  22.331   9.338   3.790  0.0899 -0.3050 -0.3694
54401OCT     C1 8801   4.766  14.659  19.059  0.2526  0.4280 -0.0880
54401OCT     C2 8802   4.352  14.819  19.090  0.3735 -0.0726 -0.2615
54402OCT     C1 8803  21.937  18.958   5.826  0.1740  0.0408 -0.2354
54402OCT     C2 8804  21.694  18.584   5.995  0.0479 -0.1126 -0.2173
54403OCT     C1 8805  15.063  19.797   9.095 -0.2990 -0.4548  0.0346
54403OCT     C2 8806  15.021  19.318   8.966  0.1835 -0.0747  0.0442
54404OCT     C1 8807   1.283   8.508   5.192 -0.1388  0.1761  0.0788
54404OCT     C2 8808   1.043   8.873   5.408  0.0526 -0.1366  0.2602
54405OCT     C1 8809  21.322   5.735  16.225  0.2592 -0.2349  0.0594
54405OCT     C2 8810  21.337   5.907  15.824  0.0453 -0.1953  0.2375
54406OCT     C1 8811  15.012  14.619  23.708  0.0088  0.1826 -0.0043
54406OCT     C2 8812  15.326  14.358  23.685  0.0472  0.2593  0.0188
54407OCT     C1 8813   9.203   3.251   8.781 -0.3716 -0.2119 -0.0206
54407OCT     C2 8814   8.814   3.542   8.819 -0.1299  0.1493 -0.3995
54408OCT     C1 8815   7.845  10.789  21.321 -0.0345  0.1719 -0.1644
54408OCT     C2 8816   8.207  11.074  21.414  0.0250 -0.0811 -0.2112
54409OCT     C1 8817   6.321  17.320   7.675 -0.1097 -0.2030 -0.2107
54409OCT     C2 8818   6.607  17.271   7.275  0.1975 -0.4263  0.0373
54410OCT     C1 8819  13.534  10.081  17.347 -0.0293  0.2297  0.1514
54410OCT     C2 8820  13.373   9.949  17.779 -0.0551 -0.1356 -0.0843
54411OCT     C1 8821   0.545   9.079  17.208  0.3172 -0.1937  0.1843
54411OCT     C2 8822   0.573   9.497  17.386  0.0615 -0.0226  0.0857
54412OCT     C1 8823  13.303  12.575   2.844 -0.0179  0.1568 -0.1110
54412OCT     C2 8824  12.889  12.598   3.061 -0.2174 -0.0414  0.3323
54413OCT     C1 8825  10.583  17.033   8.221  0.4476 -0.1109  0.2866
54413OCT     C2 8826  10.658  17.523   8.296  0.2994  0.0828 -0.2807
54414OCT     C1 8827  14.143   1.972   2.367 -0.1866 -0.2738  0.0576
54414OCT     C2 8828  13.796   2.306   2.378  0.5077  0.1201 -0.2564
54415OCT     C1 8829  23.323   8.699  14.702  0.2401 -0.0268  0.0751
54415OCT     C2 8830  23.459   8.321  14.943 -0.1345  0.1009 -0.2578
54416OCT     C1 8831  10.252   1.031  22.673  0.0633 -0.0573  0.4396
54416OCT     C2 8832   9.912   1.267  22.383  0.0892  0.2551  0.0188
54417OCT     C1 8833   1.879  17.575  14.153  0.1066 -0.0432 -0.1569
54417OCT     C2 8834   2.292  17.478  14.122  0.1390  0.0711  0.1121
54418OCT     C1 8835  23.282  22.594  23.150  0.0506  0.3486 -0.3209
54418OCT     C2 8836  23.232  22.210  23.345  0.0886  0.1224 -0.0800
54419OCT     C1 8837  19.988   1.970  11.638  0.0263  0.0929  0.0746
54419OCT     C2 8838  20.240   2.330  11.623 -0.0789  0.0426 -0.0537
54420OCT     C1 8839  19.929  21.144  10.482 -0.2276 -0.2453  0.1389
54420OCT     C2 8840  19.974  21.485  10.179 -0.1280 -0.2479  0.0467
54421OCT     C1 8841   8.304  16.469   1.424 -0.1242  0.1027  0.1685
54421OCT     C2 8842   7.941  16.329   1.599  0.1720  0.2684 -0.1847
54422OCT     C1 8843   9.583   1.333  17.417 -0.0586  0.1304  0.3285
54422OCT     C2 8844   9.278   1.602  17.177  0.1194 -0.2182 -0.3584
54423OCT     C1 8845   8.653   6.241   7.036 -0.0513 -0.1755 -0.1189
54423OCT     C2 8846   8.385   6.450   7.387  0.1230  0.2879 -0.0100
54424OCT     C1 8847  10.190   1.214  19.685 -0.0412  0.1931  0.0461
54424OCT     C2 8848   9.923   1.429  19.371 -0.0283 -0.1815  0.0373
54425OCT     C1 8849  13.244   2.158  13.478 -0.2078  0.2396  0.1604
54425OCT     C2 8850  13.094   1.715  13.507  0.3285  0.2331  0.1754
54426OCT     C1 8851  10.091  12.806  13.557 -0.0878 -0.1842  0.2632
54426OCT     C2 8852  10.063  12.954  13.104  0.0895 -0.0878 -0.1492
54427OCT     C1 8853  18.025   4.138   4.233 -0.0186 -0.1308  0.1186
54427OCT     C2 8854  18.030   4.128   4.725  0.1836 -0.0779  0.0602
54428OCT     C1 8855  19.772  15.062  23.126  0.2124 -0.0130  0.1191
54428OCT     C2 8856  20.184  14.998  23.209  0.0385  0.0897  0.2402
54429OCT     C1 8857  23.187  16.628   9.509 -0.2770 -0.0919  0.2284
54429OCT     C2 8858  23.666  16.642   9.387 -0.0443  0.0746 -0.1727
54430OCT     C1 8859  22.819   7.093  16.579 -0.2339  0.0155 -0.1523
54430OCT     C2 8860  22.800   6.898  17.010  0.0011  0.0488  0.1691
54431OCT     C1 8861  23.523   3.257  12.434 -0.0672 -0.1496 -0.3307
54431OCT     C2 8862  23.586   3.642  12.189 -0.1605 -0.3572  0.1555
54432OCT     C1 8863  12.067   2.765  19.735  0.2734  0.7328 -0.2856
54432OCT     C2 8864  12.315   2.970  19.333  0.3584  0.1381 -0.0418
54433OCT     C1 8865  10.234   6.518   9.251  0.1084 -0.0692  0.1448
54433OCT     C2 8866   9.866   6.287   9.367  0.1737  0.2255 -0.0694
54434OCT     C1 8867  17.266  11.146   4.245 -0.1987  0.2408 -0.1249
54434OCT     C2 8868  16.793  11.143   4.253  0.0099 -0.2061 -0.1423
54435OCT     C1 8869   7.935   4.448   3.828  0.3160 -0.1818  0.0575
54435OCT     C2 8870   7.498   4.628   3.987 -0.5260 -0.5688 -0.0672
54436OCT     C1 8871   8.439  18.222   1.187 -0.2220  0.1288 -0.1088
54436OCT     C2 8872   8.019  18.428   1.354 -0.0943 -0.2064 -0.1388
54437OCT     C1 8873   7.143  12.869   2.091 -0.1357 -0.0722 -0.2517
54437OCT     C2 8874   6.747  12.966   1.961 -0.2668  0.1465 -0.0387
54438OCT     C1 8875   6.597  11.737  23.499 -0.2808 -0.0260 -0.3329
54438OCT     C2 8876   6.878  11.324  23.603 -0.0498 -0.2398  0.1165
54439OCT     C1 8877   1.042  12.605  15.364  0.0256 -0.2184 -0.0371
54439OCT     C2 8878   0.850  12.589  14.963  0.0604 -0.3595 -0.1645
54440OCT     C1 8879  21.701  23.522   3.290  0.0327 -0.1194 -0.0531
54440OCT     C2 8880  22.116  23.475   3.008  0.2238 -0.4464  0.1863
54441OCT     C1 8881   6.578  11.901   3.301 -0.0385 -0.2175  0.0825
54441OCT     C2 8882   6.489  12.284   3.040 -0.2618 -0.1445  0.0577
54442OCT     C1 8883   2.007   0.752   2.297  0.2138 -0.2457 -0.1839
54442OCT     C2 8884   1.940   0.916   1.820 -0.0311 -0.4352 -0.3384
54443OCT     C1 8885   2.154   4.503   4.597  0.0446 -0.1597  0.0076
54443OCT     C2 8886   1.746   4.504   4.756 -0.1034  0.1154  0.1489
54444OCT     C1 8887  22.078   3.958   0.726 -0.0997  0.0523  0.0847
54444OCT     C2 8888  21.888   4.406   0.670  0.1124 -0.0572  0.0166
54445OCT     C1 8889  19.444   9.199  11.248  0.1085  0.4732  0.1957
54445OCT     C2 8890  19.520   9.217  10.807 -0.0536  0.1379 -0.1891
54446OCT     C1 8891   1.677   4.262   3.910 -0.1671  0.0218 -0.4145
54446OCT     C2 8892   1.326   4.103   3.661  0.2546  0.4340  0.2316
54447OCT     C1 8893  23.037  14.631  23.204 -0.1983 -0.2840  0.1352
54447OCT     C2 8894  22.761  14.365  23.507  0.0530 -0.3942  0.0098
54448OCT     C1 8895  21.395   7.299  13.094  0.1822  0.1336 -0.1039
54448OCT     C2 8896  21.767   7.616  13.010 -0.0945 -0.0695 -0.3579
54449OCT     C1 8897   9.905   4.037   0.194 -0.1371 -0.2740  0.2477
54449OCT     C2 8898   9.625   4.006   0.586  0.4436  0.0060 -0.0684
54450OCT     C1 8899  14.148   0.010  21.042 -0.0802 -0.4249 -0.0013
54450OCT     C2 8900  14.148  23.305  21.109 -0.0376 -0.1597 -0.3187
54451OCT     C1 8901   7.369  15.505   9.228  0.2044 -0.4297 -0.1659
54451OCT     C2 8902   7.002  15.274   9.357  0.2558 -0.3415 -0.1432
54452OCT     C1 8903  21.224  11.924   3.073 -0.0190 -0.0058 -0.1496
54452OCT     C2 8904  21.206  12.291   3.374  0.3798  0.0945 -0.0452
54453OCT     C1 8905   0.125  21.722  11.342 -0.1185 -0.2048  0.5275
54453OCT     C2 8906  23.390  21.741  11.377 -0.2925  0.2412  0.0662
54454OCT     C1 8907  13.308  21.034  21.886  0.2580  0.0218  0.0154
54454OCT     C2 8908  13.669  21.289  21.857  0.1558  0.1123 -0.0140
54455OCT     C1 8909  18.721  10.409   4.931  0.1090 -0.2688 -0.0604
54455OCT     C2 8910  19.010  10.055   4.853 -0.0320  0.2512 -0.2349
54456OCT     C1 8911  10.262  10.551  14.856 -0.1058  0.0361  0.1133
54456OCT     C2 8912   9.847  10.239  14.773 -0.1933  0.0192  0.0693
54457OCT     C1 8913  20.846  13.450  19.999  0.3442  0.0562  0.0956
54457OCT     C2 8914  21.029  13.112  19.707  0.2788  0.1938  0.2375
54458OCT     C1 8915  14.247   7.880   8.974 -0.2152 -0.1092 -0.2684
54458OCT     C2 8916  14.212   8.235   9.285 -0.2156  0.1954  0.4547
54459OCT     C1 8917  15.479   8.103  21.428 -0.1002 -0.1730  0.3482
54459OCT     C2 8918  15.939   8.017  21.509 -0.4808  0.0804 -0.0309
54460OCT     C1 8919  10.476  11.580  21.642  0.0693 -0.0142  0.0676
54460OCT     C2 8920  10.018  11.508  21.733 -0.0904  0.1531  0.1496
54461OCT     C1 8921   8.251   5.315  16.690 -0.0530  0.1077 -0.1019
54461OCT     C2 8922   7.903   5.164  16.406  0.0731 -0.1026  0.0079
54462OCT     C1 8923  11.949  10.214  11.562  0.1865  0.1864 -0.2951
54462OCT     C2 8924  11.502   9.961  11.613  0.2446 -0.2224 -0.2773
54463OCT     C1 8925  17.563  14.753  17.686 -0.1048  0.2697  0.3974
54463OCT     C2 8926  17.552  14.277  17.655 -0.4386 -0.2132  0.3877
54464OCT     C1 8927   8.648  20.216   0.996 -0.0512  0.0761 -0.0549
54464OCT     C2 8928   8.879  20.629   1.081 -0.2394  0.2208 -0.4054
54465OCT     C1 8929  16.936  17.080  23.146 -0.3278  0.0751  0.2751
54465OCT     C2 8930  16.502  16.928  23.270 -0.1077  0.3255  0.1712
54466OCT     C1 8931  10.272   4.183  17.949 -0.2540  0.0577 -0.1021
54466OCT     C2 8932  10.697   4.084  18.059  0.0433  0.2696 -0.2639
54467OCT     C1 8933  10.727  17.994   0.738 -0.1939  0.1709  0.0273
54467OCT     C2 8934  10.581  17.525   0.806  0.2795  0.4622  0.3928
54468OCT     C1 8935  21.866  15.828  17.991 -0.0046  0.3287  0.1739
54468OCT     C2 8936  21.827  15.409  17.855 -0.1861 -0.4956  0.5175
54469OCT     C1 8937  14.610  12.589   7.089 -0.0432  0.4307 -0.1288
54469OCT     C2 8938  14.958  12.477   7.390  0.0194  0.3883  0.0601
54470OCT     C1 8939  15.579  19.791   9.246  0.3172  0.2412 -0.2784
54470OCT     C2 8940  15.515  19.314   9.102  0.0741 -0.1264  0.0752
54471OCT     C1 8941  16.628   2.925  10.268 -0.3278 -0.0545  0.0342
54471OCT     C2 8942  16.151   2.950  10.288  0.0433 -0.1682  0.5708
54472OCT     C1 8943   9.570   8.970  19.450  0.1310 -0.1045 -0.3895
54472OCT     C2 8944   9.237   9.016  19.121  0.0267  0.5006  0.3366
54473OCT     C1 8945   6.082  10.599  10.511  0.2182  0.0022 -0.1058
54473OCT     C2 8946   6.204  10.997  10.722  0.2759  0.2006 -0.2357
54474OCT     C1 8947   0.915  13.676   5.532  0.1809 -0.0319  0.2420
54474OCT     C2 8948   1.091  14.086   5.494 -0.1750 -0.0384  0.0506
54475OCT     C1 8949  10.226  19.326   3.758 -0.2980  0.0407  0.0595
54475OCT     C2 8950  10.590  19.623   3.687  0.1744  0.0731 -0.2063
54476OCT     C1 8951  17.081  18.834  15.182  0.0025 -0.0867 -0.0745
54476OCT     C2 8952  16.646  18.880  15.065  0.0541 -0.0689  0.2610
54477OCT     C1 8953   8.662   9.378   2.454  0.1555 -0.1343 -0.0231
54477OCT     C2 8954   8.441   8.944   2.584 -0.3793 -0.1908  0.4471
54478OCT     C1 8955   7.371   4.000  10.767 -0.0752  0.2912  0.0286
54478OCT     C2 8956   7.035   3.988  11.119 -0.0305 -0.1438  0.4938
54479OCT     C1 8957  21.136  18.864  21.200 -0.4242  0.1217  0.1155
54479OCT     C2 8958  21.469  18.513  21.303 -0.0684 -0.1414 -0.0318
54480OCT     C1 8959  19.893   3.481   5.820  0.3009 -0.2587  0.0944
54480OCT     C2 8960  19.671   3.531   5.400  0.1815 -0.0935  0.4434
54481OCT     C1 8961  15.675   7.296   6.009  0.3293 -0.3263  0.1020
54481OCT     C2 8962  16.068   7.070   5.876 -0.1347  0.3170  0.0498
54482OCT     C1 8963  12.663  12.682   3.529 -0.1070  0.1823  0.0202
54482OCT     C2 8964  12.871  12.305   3.619  0.1332  0.0713  0.1117
54483OCT     C1 8965  11.001  21.269   3.137  0.1044 -0.2538 -0.0462
54483OCT     C2 8966  10.951  21.615   3.523 -0.0628 -0.2241  0.2272
54484OCT     C1 8967  22.034  14.529  12.626  0.0101 -0.2361 -0.1208
54484OCT     C2 8968  22.343  14.425  12.986  0.5590 -0.2947 -0.1290
54485OCT     C1 8969   5.140   4.127  23.242 -0.4343 -0.0637  0.1700
54485OCT     C2 8970   4.860   4.030  23.612  0.1005  0.3220  0.1368
54486OCT     C1 8971   3.779  21.185  18.473  0.0179 -0.2692 -0.1489
54486OCT     C2 8972   3.934  20.883  18.160  0.0690  0.2231 -0.7008
54487OCT     C1 8973  17.353   9.413   2.080  0.1215  0.2003  0.3375
54487OCT     C2 8974  17.635   9.721   1.914  0.3304 -0.1524  0.4320
54488OCT     C1 8975   4.735  14.595  16.079 -0.5028  0.3211  0.0259
54488OCT     C2 8976   4.864  14.226  15.811  0.2298  0.2868 -0.1608
54489OCT     C1 8977   0.396  11.275  11.726  0.3478  0.4116 -0.2765
54489OCT     C2 8978   0.730  11.395  11.987  0.0546  0.1942 -0.0719
54490OCT     C1 8979   3.908  23.410  16.672 -0.4022 -0.1657 -0.2588
54490OCT     C2 8980   3.812  23.466  16.227  0.0736  0.1757 -0.0851
54491OCT     C1 8981  17.757   4.907  11.239 -0.1931  0.0287  0.0764
54491OCT     C2 8982  17.980   4.514  11.305 -0.3347  0.1772  0.0397
54492OCT     C1 8983   8.452  11.886  10.056  0.1186  0.3911 -0.1138
54492OCT     C2 8984   8.611  11.485  10.118 -0.2909 -0.0747 -0.1197
54493OCT     C1 8985  16.678  20.035  20.777 -0.1556  0.0312  0.1283
54493OCT     C2 8986  16.249  20.209  20.623  0.1553  0.1576 -0.4013
54494OCT     C1 8987   4.758  14.197  20.443 -0.2939 -0.3489  0.1240
54494OCT     C2 8988   4.503  13.863  20.308 -0.0060 -0.1347  0.0586
54495OCT     C1 8989   5.040  10.684   3.923  0.0251  0.2040 -0.0587
54495OCT     C2 8990   5.097  11.128   3.762  0.1570  0.0164  0.3913
54496OCT     C1 8991  14.548   5.982   5.695  0.0147 -0.1074 -0.1864
54496OCT     C2 8992  14.577   5.530   5.754  0.1380 -0.0895 -0.2163
54497OCT     C1 8993   6.346   0.366  16.166  0.3261 -0.0916  0.2496
54497OCT     C2 8994   6.058   0.129  15.834 -0.3697  0.0648 -0.0228
54498OCT     C1 8995   2.451   4.430  19.024 -0.2335  0.0488 -0.0378
54498OCT     C2 8996   2.753   4.692  18.751  0.0215 -0.0788 -0.2321
54499OCT     C1 8997  23.147   6.734  14.953  0.0676 -0.3499 -0.0197
54499OCT     C2 8998  22.753   6.578  15.204 -0.0493  0.0066  0.2715
54500OCT     C1 8999   3.062   8.780  13.861 -0.0382 -0.3386 -0.0919
54500OCT     C2 9000   2.804   8.512  14.163 -0.1136 -0.1956 -0.4121
54501OCT     C1 9001   4.377  13.501   3.078  0.3799  0.1439  0.2662
54501OCT     C2 9002   4.809  13.439   2.924 -0.1671 -0.2505  0.1838
54502OCT     C1 9003  16.767  17.333   5.806  0.0192  0.2069 -0.1029
54502OCT     C2 9004  16.452  17.682   5.680 -0.1644  0.0918  0.0635
54503OCT     C1 9005   6.083   7.412  19.591 -0.3997  0.3520 -0.1526
54503OCT     C2 9006   6.276   7.780  19.440 -0.1894  0.2592  0.3089
54504OCT     C1 9007   4.164   0.760  14.217  0.1107  0.0072  0.2449
54504OCT     C2 9008   4.538   0.892  13.910 -0.0968  0.1353 -0.2060
54505OCT     C1 9009   3.117   4.438  21.945 -0.0566 -0.0617  0.0133
54505OCT     C2 9010   3.312   4.856  21.790  0.1316  0.1032 -0.4052
54506OCT     C1 9011   5.776  10.872  14.151  0.0188 -0.2444 -0.0709
54506OCT     C2 9012   5.810  11.104  13.730 -0.1878  0.0721 -0.1672
54507OCT     C1 9013  10.945   5.151   9.782 -0.3550  0.2526 -0.1587
54507OCT     C2 9014  11.086   4.903  10.118  0.0289 -0.0051 -0.1029
54508OCT     C1 9015  11.152  11.602  10.467 -0.0333  0.1923 -0.3117
54508OCT     C2 9016  11.043  11.439  10.936 -0.0091 -0.2630  0.3659
54509OCT     C1 9017  12.482  14.448   5.982  0.3693 -0.1523 -0.0661
54509OCT     C2 9018  12.352  14.028   6.130  0.3518  0.1087  0.1568
54510OCT     C1 9019  20.245  18.377   6.528 -0.0519  0.0595  0.0859
54510OCT     C2 9020  19.802  18.407   6.322 -0.1828  0.2953 -0.0022
54511OCT     C1 9021  17.306  17.461   8.953 -0.1774 -0.1347 -0.0049
54511OCT     C2 9022  17.639  17.266   8.726  0.0352  0.1629  0.0921
54512OCT     C1 9023  12.137  18.020  16.146 -0.0371 -0.1766 -0.1029
54512OCT     C2 9024  12.561  18.061  15.884 -0.2797  0.2657 -0.2526
54513OCT     C1 9025  23.036  14.775  19.414 -0.2059  0.1595  0.3762
54513OCT     C2 9026  23.510  14.808  19.375 -0.3234 -0.2411  0.1646
54514OCT     C1 9027  20.675  22.534   7.603 -0.3694 -0.0463 -0.0103
54514OCT     C2 9028  20.202  22.417   7.524 -0.1195  0.1250  0.1494
54515OCT     C1 9029   7.145   2.396   4.464 -0.0896 -0.1550  0.0146
54515OCT     C2 9030   6.810   2.230   4.144  0.0640 -0.6063  0.1184
54516OCT     C1 9031  19.859   2.068  19.430 -0.3454  0.1717 -0.1084
54516OCT     C2 9032  20.086   2.466  19.546 -0.0123 -0.1044  0.2516
54517OCT     C1 9033  11.071  19.465   5.137 -0.0758 -0.0960  0.1101
54517OCT     C2 9034  11.502  19.292   5.083  0.0326  0.1651 -0.0742
54518OCT     C1 9035  10.341  23.424   6.295 -0.0133  0.3866  0.1129
54518OCT     C2 9036   9.915  23.381   6.099 -0.0839  0.2953 -0.0472
54519OCT     C1 9037   8.376  17.018   6.965  0.2633 -0.0683  0.0883
54519OCT     C2 9038   7.996  16.773   7.033 -0.2712 -0.0749  0.1903
54520OCT     C1 9039  17.211   6.654  15.158  0.0527  0.2200  0.1529
54520OCT     C2 9040  17.161   7.040  14.871 -0.1636 -0.0989  0.1381
54521OCT     C1 9041   2.895  15.003  14.319 -0.2393  0.0793  0.1947
54521OCT     C2 9042   3.302  14.717  14.247 -0.1903 -0.0496 -0.2559
54522OCT     C1 9043   6.366   9.269  20.706 -0.2008 -0.0031  0.1522
54522OCT     C2 9044   6.748   9.602  20.627  0.3431 -0.2176 -0.0014
54523OCT     C1 9045  19.780  19.965   5.132  0.1855  0.2735  0.2330
54523OCT     C2 9046  19.924  20.167   4.705 -0.2988 -0.2425 -0.1582
54524OCT     C1 9047   2.378  11.494   4.202 -0.2069 -0.1166  0.0073
54524OCT     C2 9048   2.067  11.439   3.870 -0.5359 -0.1022  0.1996
54525OCT     C1 9049   1.527  18.438   0.601  0.0806  0.0319 -0.2688
54525OCT     C2 9050   1.384  18.182   0.245 -0.1796 -0.2293 -0.0239
54526OCT     C1 9051  17.195  23.728   7.560 -0.1459  0.0024 -0.4020
54526OCT     C2 9052  17.074  23.376   7.348 -0.0050 -0.1274  0.0314
54527OCT     C1 9053   8.239  20.282  20.607 -0.3859 -0.0452  0.1486
54527OCT     C2 9054   8.553  19.907  20.511  0.2727  0.0918 -0.1568
54528OCT     C1 9055  10.925  12.788  16.397 -0.2985 -0.2093 -0.2156
54528OCT     C2 9056  11.322  12.839  16.657 -0.0554 -0.0707 -0.2921
54529OCT     C1 9057  11.513  23.717  13.632  0.0692  0.2918 -0.0241
54529OCT     C2 9058  11.221  23.700  13.232  0.0480  0.0974  0.0061
54530OCT     C1 9059  11.674   7.929  12.991  0.0019  0.1477  0.0285
54530OCT     C2 9060  12.060   7.945  13.245 -0.4240 -0.0658 -0.0660
54531OCT     C1 9061  20.831  19.594   6.017  0.1493 -0.3466  0.2329
54531OCT     C2 9062  20.489  19.341   5.765  0.0344 -0.0637  0.0421
54532OCT     C1 9063   2.753  20.208   9.586 -0.2155 -0.1697  0.1869
54532OCT     C2 9064   3.188  20.120   9.545 -0.0756  0.0724  0.1377
54533OCT     C1 9065   5.942  23.469  11.921 -0.0234 -0.1723  0.1259
54533OCT     C2 9066   5.693   0.078  11.840 -0.2766  0.1648 -0.2454
54534OCT     C1 9067  15.405  12.053   8.972  0.1315  0.2443  0.0343
54534OCT     C2 9068  15.131  12.347   8.812  0.0308 -0.1265 -0.0053
54535OCT     C1 9069  14.906   9.165   4.139 -0.0389  0.0947  0.1400
54535OCT     C2 9070  14.475   9.360   4.193 -0.3368 -0.2291  0.3158
54536OCT     C1 9071  14.333   7.115  14.485 -0.0846 -0.0535  0.2092
54536OCT     C2 9072  13.876   7.049  14.548 -0.0052 -0.0406 -0.2925
54537OCT     C1 9073  17.472  10.251   7.219  0.0283 -0.2451  0.0796
54537OCT     C2 9074  17.653  10.300   6.788 -0.0666 -0.2985 -0.0558
54538OCT     C1 9075   8.692  12.082  12.312 -0.0042 -0.0445 -0.1980
54538OCT     C2 9076   8.918  11.854  11.939  0.0304  0.0577 -0.0604
54539OCT     C1 9077  12.131  21.021  17.295  0.1688 -0.2105 -0.0890
54539OCT     C2 9078  11.711  20.739  17.264 -0.1858 -0.1542  0.0717
54540OCT     C1 9079   3.414   1.968   0.372  0.0599 -0.3894  0.2944
54540OCT     C2 9080   3.752   1.811   0.092  0.2442 -0.1106  0.0647
54541OCT     C1 9081  15.437  15.638  22.400  0.1019 -0.0004  0.1431
54541OCT     C2 9082  15.837  15.678  22.600  0.2789  0.0423 -0.3167
54542OCT     C1 9083   4.252  11.156   3.461 -0.0403 -0.1161  0.0894
54542OCT     C2 9084   3.985  11.371   3.091  0.2622 -0.0469  0.1557
54543OCT     C1 9085   7.879   4.147   5.566  0.0034 -0.2595  0.1782
54543OCT     C2 9086   7.750   3.690   5.660  0.0747 -0.1145  0.0435
54544OCT     C1 9087  13.420   3.560  18.445 -0.0655 -0.0831 -0.2470
54544OCT     C2 9088  13.343   3.666  18.868  0.0431  0.0986 -0.2859
54545OCT     C1 9089   2.840   2.673   7.709 -0.0347 -0.1559  0.1566
54545OCT     C2 9090   2.653   2.294   7.492  0.1341  0.1109 -0.5419
54546OCT     C1 9091  19.016   2.285  13.732 -0.0159 -0.1157  0.2741
54546OCT     C2 9092  19.134   2.252  14.171 -0.0798  0.1909  0.5254
54547OCT     C1 9093  23.549  17.137  20.468  0.1950 -0.2036 -0.0847
54547OCT     C2 9094   0.229  16.910  20.446 -0.1234  0.0096 -0.2481
54548OCT     C1 9095  19.475   5.277   7.415  0.0487  0.0934 -0.0101
54548OCT     C2 9096  19.614   5.392   6.995 -0.1433  0.0336  0.0051
54549OCT     C1 9097  15.238   7.044   8.980 -0.0875 -0.0804 -0.1312
54549OCT     C2 9098  15.373   6.901   8.568 -0.1081 -0.1114 -0.0238
54550OCT     C1 9099   6.638   4.590  13.273  0.3594 -0.0435 -0.0904
54550OCT     C2 9100   6.388   4.829  13.552  0.1791  0.0522  0.0581
54551OCT     C1 9101   5.000   2.242   4.194 -0.2599  0.3703  0.1113
54551OCT     C2 9102   5.316   2.113   4.558 -0.3418  0.2706  0.2385
54552OCT     C1 9103  18.586   5.786  23.488 -0.2930  0.1034 -0.0068
54552OCT     C2 9104  18.748   6.199  23.298 -0.2306 -0.0564 -0.3272
54553OCT     C1 9105  22.738   1.194  16.706  0.0178 -0.3331 -0.1091
54553OCT     C2 9106  22.558   1.313  16.271 -0.1456 -0.1841 -0.2121
54554OCT     C1 9107   0.973   5.821  10.765 -0.1473 -0.0206  0.0441
54554OCT     C2 9108   1.320   5.829  10.472  0.1101  0.0202  0.1094
54555OCT     C1 9109   9.218  22.409  15.013 -0.2666 -0.1158  0.1173
54555OCT     C2 9110   9.146  22.223  15.439  0.1779 -0.0767  0.1601
54556OCT     C1 9111   1.485  11.439   8.240 -0.0625 -0.0880 -0.0179
54556OCT     C2 9112   1.193  11.828   8.340  0.0636 -0.0798 -0.1606
54557OCT     C1 9113   1.370  13.682   8.909  0.0450  0.0403  0.0264
54557OCT     C2 9114   1.160  13.275   8.989  0.0477 -0.2870 -0.2054
54558OCT     C1 9115  12.841  11.629   3.914 -0.0201  0.2357  0.0484
54558OCT     C2 9116  12.636  11.324   4.172  0.1933  0.1271 -0.0711
54559OCT     C1 9117   1.964   5.663   1.457  0.3547 -0.1727  0.1092
54559OCT     C2 9118   2.277   5.969   1.412  0.3496  0.4060 -0.1679
54560OCT     C1 9119   7.623  20.163   1.189  0.2139  0.0199 -0.0312
54560OCT     C2 9120   7.283  20.348   1.432  0.0062  0.0216  0.2492
54561OCT     C1 9121  15.524  16.511   1.892  0.2059  0.0544 -0.3260
54561OCT     C2 9122  15.720  16.265   2.213  0.2991 -0.4242  0.2764
54562OCT     C1 9123  11.660   6.754  20.156 -0.3803  0.5227 -0.2399
54562OCT     C2 9124  11.216   6.950  20.102 -0.2251  0.8600 -0.2420
54563OCT     C1 9125  10.033  16.600  15.242  0.4014 -0.0041  0.0615
54563OCT     C2 9126   9.676  16.672  15.570  0.1384  0.0914  0.3827
54564OCT     C1 9127  14.646   2.498  20.989  0.0371 -0.1082  0.2548
54564OCT     C2 9128  14.616   2.616  20.544 -0.2886  0.4021  0.0572
54565OCT     C1 9129  11.644  22.554   3.851  0.1376  0.2797  0.3529
54565OCT     C2 9130  11.761  22.132   3.753  0.0245  0.0430  0.0224
54566OCT     C1 9131  16.070  12.969   9.472 -0.0516  0.3578 -0.0257
54566OCT     C2 9132  15.803  12.729   9.185  0.3704  0.2536  0.1868
54567OCT     C1 9133   7.567  20.674  21.278  0.1722  0.0567 -0.3065
54567OCT     C2 9134   7.664  20.227  21.306 -0.1427  0.3386  0.2369
54568OCT     C1 9135  10.161   1.390   2.425 -0.1109  0.0412 -0.2384
54568OCT     C2 9136  10.372   1.572   2.801  0.0284 -0.0421 -0.3310
54569OCT     C1 9137   3.041  15.034  16.328  0.1507  0.6586 -0.3488
54569OCT     C2 9138   2.632  15.150  16.486  0.1889  0.2193  0.1216
54570OCT     C1 9139  16.791  19.591  21.079 -0.0741  0.2101  0.0600
54570OCT     C2 9140  16.308  19.726  20.996  0.1713  0.2713 -0.0491
54571OCT     C1 9141  23.374  12.517   7.589 -0.0769 -0.0688 -0.0357
54571OCT     C2 9142  23.040  12.224   7.431 -0.2403 -0.3487 -0.2289
54572OCT     C1 9143  10.042   0.231  16.452  0.1457  0.3923  0.3027
54572OCT     C2 9144   9.927   0.104  15.983  0.0237 -0.1925  0.0651
54573OCT     C1 9145  16.550   6.533   0.690 -0.3471  0.0244 -0.1941
54573OCT     C2 9146  16.713   6.923   0.733  0.0986 -0.1202 -0.2088
54574OCT     C1 9147  15.246   2.179  13.041 -0.0497 -0.2117 -0.0392
54574OCT     C2 9148  15.024   1.761  13.155  0.2618 -0.2618 -0.1310
54575OCT     C1 9149  14.127  17.842  20.882 -0.2588 -0.0678 -0.1290
54575OCT     C2 9150  13.697  17.733  20.838  0.0591 -0.0852  0.1963
54576OCT     C1 9151   8.772   6.748  15.890  0.3222  0.1537  0.0011
54576OCT     C2 9152   9.027   6.391  15.713  0.2443 -0.1995 -0.1712
54577OCT     C1 9153   5.147  17.057  16.403 -0.1425 -0.0821  0.1012
54577OCT     C2 9154   4.807  16.994  16.063 -0.2393 -0.2459 -0.0652
54578OCT     C1 9155   4.807  20.277   7.246 -0.1246 -0.1433 -0.3896
54578OCT     C2 9156   4.968  20.227   6.766  0.2621 -0.1653  0.3074
54579OCT     C1 9157  22.495   2.715  19.470 -0.1890 -0.3667 -0.2136
54579OCT     C2 9158  22.797   2.388  19.544 -0.1921  0.1925  0.2142
54580OCT     C1 9159  13.312   0.355  17.447 -0.0381 -0.0876 -0.0464
54580OCT     C2 9160  13.523   0.053  17.696 -0.2990 -0.1940 -0.0990
54581OCT     C1 9161  11.491  23.178   7.243  0.1124 -0.0284  0.1744
54581OCT     C2 9162  11.939  23.101   7.271  0.0552  0.1260 -0.1950
54582OCT     C1 9163  20.970  17.106   5.024  0.1333 -0.1532  0.1787
54582OCT     C2 9164  21.335  17.000   4.707  0.2607 -0.2310 -0.2161
54583OCT     C1 9165  11.723  22.682  17.703  0.0657 -0.2022 -0.3573
54583OCT     C2 9166  11.690  22.602  18.155  0.0585  0.3117  0.3750
54584OCT     C1 9167   5.819   0.516   1.062 -0.1404 -0.0933  0.3151
54584OCT     C2 9168   5.416   0.544   0.880 -0.1715 -0.2040  0.0422
54585OCT     C1 9169  23.571  17.569  21.800  0.1020  0.1564  0.1383
54585OCT     C2 9170  23.435  17.507  22.241  0.0627 -0.0779 -0.2300
54586OCT     C1 9171  22.891  18.987  17.949 -0.1437 -0.3045 -0.1236
54586OCT     C2 9172  23.201  18.839  17.627  0.0582  0.0504  0.0949
54587OCT     C1 9173  20.030   3.786  19.871  0.0135 -0.4777  0.2050
54587OCT     C2 9174  20.371   3.993  20.092 -0.1521  0.2454 -0.1245
54588OCT     C1 9175  10.660   9.385  20.593  0.0166 -0.1219  0.1520
54588OCT     C2 9176  11.109   9.404  20.633 -0.4277 -0.0586  0.4148
54589OCT     C1 9177   5.358  12.725   5.132 -0.4659  0.2049  0.0231
54589OCT     C2 9178   5.568  12.551   5.550  0.1303  0.1790  0.0820
54590OCT     C1 9179   6.700  23.411  18.278 -0.2243 -0.1982 -0.1030
54590OCT     C2 9180   6.762  23.498  17.823  0.0165 -0.0741  0.4884
54591OCT     C1 9181   7.455  20.007   8.457  0.3155 -0.2344  0.0161
54591OCT     C2 9182   7.543  19.497   8.486 -0.1883 -0.1051 -0.0374
54592OCT     C1 9183  11.534   3.194  18.111  0.1472 -0.3490  0.2358
54592OCT     C2 9184  11.255   3.528  18.254 -0.0312 -0.2620 -0.0371
54593OCT     C1 9185   3.750  20.079   7.713  0.0136 -0.0131 -0.0593
54593OCT     C2 9186   3.851  20.110   7.230 -0.3174 -0.0835 -0.1112
54594OCT     C1 9187  14.668   1.770  13.538 -0.2164 -0.0808  0.1229
54594OCT     C2 9188  15.092   1.821  13.659 -0.3150 -0.1457  0.2492
54595OCT     C1 9189   2.519  19.518   7.167 -0.1356  0.0680 -0.1014
54595OCT     C2 9190   2.832  19.511   7.539 -0.0546  0.4329 -0.2235
54596OCT     C1 9191   0.876   5.428  22.955 -0.3267 -0.1511  0.1045
54596OCT     C2 9192   1.309   5.556  22.897  0.2064 -0.2082  0.3824
54597OCT     C1 9193   0.227  13.423  10.126 -0.0602 -0.0409 -0.2371
54597OCT     C2 9194   0.116  13.866  10.247  0.2311 -0.0946  0.3086
54598OCT     C1 9195  22.008  15.588   5.918  0.0598  0.0540  0.0724
54598OCT     C2 9196  21.975  15.091   5.914 -0.1393 -0.1128 -0.0776
54599OCT     C1 9197  18.045   9.379  19.549 -0.1166  0.1988  0.1528
54599OCT     C2 9198  17.765   9.773  19.582  0.2865  0.0428  0.0715
54600OCT     C1 9199  10.873  18.756  18.297  0.3283 -0.4213  0.0580
54600OCT     C2 9200  11.178  18.520  18.017 -0.4552 -0.0817 -0.0508
54601OCT     C1 9201  12.848   4.838   2.648 -0.0275 -0.0721 -0.2024
54601OCT     C2 9202  12.723   4.959   2.144 -0.0331 -0.1933 -0.2530
54602OCT     C1 9203  15.166   1.962  10.797  0.0170 -0.1690  0.0803
54602OCT     C2 9204  15.202   2.253  11.153 -0.3868 -0.1383  0.0126
54603OCT     C1 9205  21.371  11.228  19.797  0.2203  0.0874 -0.2829
54603OCT     C2 9206  20.972  11.383  20.012 -0.0826 -0.1788  0.2697
54604OCT     C1 9207  17.735   6.329  16.438 -0.0194  0.2927 -0.0897
54604OCT     C2 9208  17.378   6.106  16.309 -0.0919  0.2070  0.1639
54605OCT     C1 9209   2.009   7.613  10.240 -0.0458  0.1873 -0.1453
54605OCT     C2 9210   2.043   7.919  10.649 -0.0803 -0.0399 -0.0537
54606OCT     C1 9211   7.054   1.341   4.042 -0.1153  0.0885  0.0402
54606OCT     C2 9212   7.335   0.958   4.067  0.0987 -0.0916  0.3687
54607OCT     C1 9213  12.393  13.416  13.850  0.2431 -0.0662  0.0904
54607OCT     C2 9214  12.013  13.147  13.679  0.1199 -0.1291  0.1999
54608OCT     C1 9215  20.630  20.735   3.111  0.0970 -0.0324 -0.3061
54608OCT     C2 9216  20.514  20.322   3.418 -0.2683 -0.3897 -0.0364
54609OCT     C1 9217  15.685   9.679  17.159 -0.3518 -0.0515  0.2352
54609OCT     C2 9218  15.908   9.651  17.564 -0.0452  0.2363 -0.2129
54610OCT     C1 9219  23.684  21.163  13.961  0.0234 -0.1029 -0.1933
54610OCT     C2 9220   0.014  21.201  14.431 -0.2173  0.0173 -0.1586
54611OCT     C1 9221  15.578  14.512   5.667  0.0748 -0.0585 -0.0976
54611OCT     C2 9222  15.223  14.728   5.412  0.0158 -0.2011 -0.4274
54612OCT     C1 9223  18.813  12.077   1.893  0.2613  0.1230  0.1244
54612OCT     C2 9224  18.414  12.278   1.977  0.0536 -0.1229  0.2377
54613OCT     C1 9225  15.140   7.563  12.239 -0.1088  0.1344 -0.2633
54613OCT     C2 9226  14.933   7.834  12.560  0.2090  0.1428 -0.2593
54614OCT     C1 9227   5.155  12.397  10.102  0.1021 -0.1416 -0.1210
54614OCT     C2 9228   5.505  12.077  10.131 -0.0108  0.1235 -0.0185
54615OCT     C1 9229  15.781  21.112  10.662 -0.1375 -0.3091  0.0359
54615OCT     C2 9230  15.962  21.270  11.026 -0.2231 -0.0957 -0.2416
54616OCT     C1 9231   4.052  20.318  12.831 -0.1006  0.1208 -0.0815
54616OCT     C2 9232   3.921  19.994  13.129 -0.0016 -0.1494 -0.3274
54617OCT     C1 9233  19.934  21.052  21.122 -0.2831 -0.5565  0.3368
54617OCT     C2 9234  19.662  21.000  20.784 -0.4573  0.0329  0.0578
54618OCT     C1 9235   0.241  14.540   8.952 -0.1943  0.2758  0.0250
54618OCT     C2 9236   0.573  14.252   8.795 -0.1850  0.2008 -0.2861
54619OCT     C1 9237  22.700  13.466  12.909 -0.0815  0.0671  0.3090
54619OCT     C2 9238  22.470  13.894  12.881 -0.2202  0.3473  0.0832
54620OCT     C1 9239   8.696  16.840  22.710  0.0725 -0.1458 -0.0524
54620OCT     C2 9240   8.773  17.018  22.284 -0.2342  0.0758 -0.2086
54621OCT     C1 9241   7.741  23.661  10.623 -0.3077  0.0948  0.2697
54621OCT     C2 9242   8.058  23.665  10.975 -0.1898 -0.1272  0.0098
54622OCT     C1 9243  22.997  15.926   0.744  0.0911 -0.0445 -0.0772
54622OCT     C2 9244  23.103  16.151   0.338 -0.0628 -0.2874  0.1648
54623OCT     C1 9245   8.423   7.782  21.166  0.0828 -0.0567  0.1113
54623OCT     C2 9246   8.409   8.246  21.211  0.1332  0.4397  0.4656
54624OCT     C1 9247   2.540   8.351   6.763 -0.1754  0.1073  0.0213
54624OCT     C2 9248   2.137   8.454   6.601  0.0882 -0.1005  0.0285
54625OCT     C1 9249  13.151   4.970  21.988 -0.3172  0.2241  0.1956
54625OCT     C2 9250  13.072   4.682  22.333  0.1904  0.0348 -0.2459
54626OCT     C1 9251   7.770  15.344  10.462 -0.0338  0.3336 -0.0540
54626OCT     C2 9252   7.632  15.770  10.508  0.3134  0.0548 -0.3355
54627OCT     C1 9253  20.859  13.533   7.175 -0.0285 -0.0405 -0.2812
54627OCT     C2 9254  20.975  13.097   7.298  0.3177 -0.2625 -0.3665
54628OCT     C1 9255   9.597  14.362  19.979 -0.0697  0.2474  0.1811
54628OCT     C2 9256   9.951  14.403  20.259 -0.1483 -0.0175 -0.1234
54629OCT     C1 9257   1.138  11.659   7.403 -0.0162 -0.1280  0.4391
54629OCT     C2 9258   1.579  11.645   7.217  0.2188  0.0321  0.2597
54630OCT     C1 9259  14.488   9.133   8.520 -0.0524  0.1520  0.3563
54630OCT     C2 9260  14.715   9.099   8.940 -0.1401 -0.7032  0.2186
54631OCT     C1 9261  17.733   2.026   0.474 -0.2918  0.0142  0.1932
54631OCT     C2 9262  17.774   1.961   0.953 -0.0087  0.0427  0.2639
54632OCT     C1 9263  21.010   4.907  14.438  0.1339 -0.2851 -0.2092
54632OCT     C2 9264  20.857   5.313  14.546 -0.0628 -0.0309 -0.0001
54633OCT     C1 9265   8.547   1.252  16.275 -0.0898 -0.4200 -0.0142
54633OCT     C2 9266   8.636   1.735  16.290 -0.1636  0.0924 -0.3388
54634OCT     C1 9267  18.476  12.111  15.947 -0.3024  0.0062  0.0932
54634OCT     C2 9268  18.918  11.857  15.862  0.0938  0.0601 -0.0103
54635OCT     C1 9269   6.753  10.956  15.968  0.0386  0.0890  0.0865
54635OCT     C2 9270   6.253  10.917  16.006 -0.3395 -0.2244 -0.0804
54636OCT     C1 9271   2.575  23.493  16.628 -0.0086  0.3551 -0.1746
54636OCT     C2 9272   2.321  23.657  16.239  0.2834  0.3043 -0.0788
54637OCT     C1 9273  19.396  14.626  20.128  0.3301 -0.3728  0.0009
54637OCT     C2 9274  19.743  14.298  19.875 -0.1324  0.3218  0.0172
54638OCT     C1 9275  10.244   1.972   1.098 -0.0678  0.1696  0.2350
54638OCT     C2 9276   9.882   2.272   1.008 -0.0276 -0.0493  0.1919
54639OCT     C1 9277  19.796  13.876  13.379  0.1621 -0.3373  0.0352
54639OCT     C2 9278  20.072  14.094  13.693  0.1733 -0.4726 -0.1967
54640OCT     C1 9279  23.436  20.744   3.874  0.0899 -0.1311 -0.0147
54640OCT     C2 9280  23.420  21.174   4.026  0.2959 -0.2254 -0.2070
54641OCT     C1 9281   2.704  14.038   6.459 -0.1881 -0.1901  0.2310
54641OCT     C2 9282   2.301  14.157   6.755 -0.1184 -0.0038  0.2591
54642OCT     C1 9283   9.455  14.361   4.771 -0.0261  0.3112  0.2503
54642OCT     C2 9284   9.519  14.748   4.491  0.0191 -0.1132  0.0221
54643OCT     C1 9285  20.905  19.093   0.575  0.2697  0.0610  0.2130
54643OCT     C2 9286  20.723  19.155   0.978 -0.0112  0.3424  0.0743
54644OCT     C1 9287  17.360   9.477  10.403  0.0381 -0.0623 -0.1746
54644OCT     C2 9288  17.577   9.635   9.949  0.2215 -0.3854  0.1403
54645OCT     C1 9289   4.711  13.715  21.391 -0.0033 -0.0269 -0.1026
54645OCT     C2 9290   4.465  13.336  21.389 -0.0214  0.3259 -0.1690
54646OCT     C1 9291  17.350  14.121  22.802  0.0028 -0.1132 -0.2957
54646OCT     C2 9292  17.234  13.715  22.636 -0.0666  0.2558 -0.1658
54647OCT     C1 9293  10.855  23.140   5.021 -0.1551  0.1323 -0.1187
54647OCT     C2 9294  10.454  23.211   5.303 -0.2684 -0.1417 -0.0878
54648OCT     C1 9295  14.683  11.815  21.689  0.4124  0.1508 -0.4407
54648OCT     C2 9296  14.391  11.536  21.509 -0.2060  0.0303  0.4569
54649OCT     C1 9297   7.222  21.953  11.526  0.2445  0.1750 -0.0014
54649OCT     C2 9298   7.144  21.739  11.905  0.0289  0.2354  0.1295
54650OCT     C1 9299  13.556  21.149   2.762  0.2495 -0.4018  0.2447
54650OCT     C2 9300  13.179  21.024   2.611  0.1504 -0.2343 -0.1208
54651OCT     C1 9301   0.087   4.187   1.026  0.1245  0.2887 -0.0518
54651OCT     C2 9302  23.487   4.439   1.149  0.1776 -0.1563 -0.1507
54652OCT     C1 9303   3.027   3.071   9.432  0.0473  0.1820 -0.0374
54652OCT     C2 9304   2.852   2.642   9.226  0.1819 -0.1211  0.3014
54653OCT     C1 9305  16.215  15.182  11.955 -0.2692  0.1835  0.1033
54653OCT     C2 9306  16.643  15.172  12.083  0.0401 -0.0308 -0.1718
54654OCT     C1 9307  18.691  21.184   5.681 -0.0367  0.0851  0.0868
54654OCT     C2 9308  19.133  21.265   5.663  0.0692  0.2364 -0.1830
54655OCT     C1 9309  23.684   1.639  10.208  0.2786  0.2267 -0.1894
54655OCT     C2 9310   0.273   1.814  10.405  0.4440  0.0111 -0.3890
54656OCT     C1 9311   1.521   0.330  11.151  0.1756 -0.1347 -0.1840
54656OCT     C2 9312   1.338   0.613  10.771 -0.2365 -0.1497 -0.1566
54657OCT     C1 9313  23.645  19.255   6.856  0.3178  0.1723  0.1655
54657OCT     C2 9314  23.468  19.555   6.556 -0.0059 -0.0345  0.0534
54658OCT     C1 9315   9.219   3.621  20.835 -0.0209  0.1118 -0.1636
54658OCT     C2 9316   9.556   3.530  20.537  0.0970 -0.0029 -0.3733
54659OCT     C1 9317   6.180  13.668  18.547 -0.0843  0.0103  0.1024
54659OCT     C2 9318   5.986  14.107  18.698  0.5234  0.0223  0.0837
54660OCT     C1 9319   3.364  17.611  11.213 -0.0504  0.1340  0.0181
54660OCT     C2 9320   3.668  17.391  11.465 -0.1550 -0.0056  0.0577
54661OCT     C1 9321   8.343   1.854   2.282 -0.2991  0.1262  0.0845
54661OCT     C2 9322   8.204   1.792   1.842 -0.3104 -0.1073 -0.0515
54662OCT     C1 9323  15.662   3.252  17.300 -0.1327  0.2216  0.0394
54662OCT     C2 9324  15.330   3.072  17.036 -0.2477  0.1773 -0.2195
54663OCT     C1 9325   1.115   2.268   5.444  0.0788 -0.0697  0.1280
54663OCT     C2 9326   0.919   2.256   5.011  0.2479  0.1723 -0.2009
54664OCT     C1 9327  12.616  19.120  18.479  0.2766  0.1215 -0.1381
54664OCT     C2 9328  12.351  18.766  18.317 -0.0182 -0.2180 -0.1386
54665OCT     C1 9329   3.844   4.005   7.663  0.0461  0.4037 -0.2898
54665OCT     C2 9330   3.936   4.372   7.899  0.1136 -0.1640  0.0704
54666OCT     C1 9331  12.448  16.871   3.116 -0.0573  0.4175 -0.0436
54666OCT     C2 9332  12.223  17.002   3.521  0.4197  0.1858 -0.2416
54667OCT     C1 9333  17.125   7.704  16.774 -0.3882 -0.2001 -0.0688
54667OCT     C2 9334  17.067   7.633  17.287 -0.0130 -0.0544 -0.0441
54668OCT     C1 9335   7.667   8.653  17.861 -0.2423 -0.1678 -0.2454
54668OCT     C2 9336   7.652   8.368  17.408 -0.0062  0.1174 -0.1627
54669OCT     C1 9337   3.689   4.377  15.357  0.1430 -0.1646  0.0166
54669OCT     C2 9338   4.063   4.462  15.141 -0.1815 -0.4973 -0.1812
54670OCT     C1 9339  20.788  17.868   6.185  0.1178 -0.1025  0.1569
54670OCT     C2 9340  20.515  17.756   6.526  0.0906 -0.0983  0.4366
54671OCT     C1 9341  14.034   8.652  19.175 -0.1251  0.0245 -0.2460
54671OCT     C2 9342  13.614   8.658  19.018 -0.1632 -0.0088  0.0034
54672OCT     C1 9343   2.946  11.468   5.695  0.0620  0.3205 -0.3299
54672OCT     C2 9344   3.082  11.743   5.990  0.2876 -0.1202 -0.4686
54673OCT     C1 9345  17.615   8.697   6.913 -0.1265 -0.3147 -0.1138
54673OCT     C2 9346  17.419   8.340   7.198 -0.0572 -0.0482  0.0415
54674OCT     C1 9347  18.181   6.931  20.276  0.1142  0.4745 -0.1193
54674OCT     C2 9348  18.050   7.276  20.566 -0.0874  0.0890 -0.1088
54675OCT     C1 9349   9.778   2.431  14.697  0.1377  0.2384 -0.0708
54675OCT     C2 9350   9.487   2.695  14.894  0.3417  0.0222 -0.0409
54676OCT     C1 9351  12.896  19.487   5.090  0.1003 -0.1275  0.1280
54676OCT     C2 9352  13.075  19.757   5.457  0.1622  0.2804  0.2383
54677OCT     C1 9353  22.176   2.672   4.093 -0.0559 -0.1755 -0.0262
54677OCT     C2 9354  22.047   2.449   4.493  0.0131 -0.2802 -0.0529
54678OCT     C1 9355   6.140  16.200  14.452  0.2715 -0.0676 -0.3131
54678OCT     C2 9356   6.102  16.167  13.971 -0.1025 -0.3223  0.0277
54679OCT     C1 9357   3.144   6.150   6.319 -0.0365 -0.1095  0.2274
54679OCT     C2 9358   2.876   6.493   6.037 -0.1029 -0.1469 -0.1308
54680OCT     C1 9359   9.066  16.367   5.719 -0.1355 -0.0530 -0.1138
54680OCT     C2 9360   8.821  16.762   5.637 -0.2996 -0.1256 -0.1953
54681OCT     C1 9361  18.376  18.774  14.644 -0.1038 -0.2061  0.1270
54681OCT     C2 9362  18.789  18.995  14.679 -0.1021  0.2718  0.0140
54682OCT     C1 9363  12.758  15.803  13.902 -0.1386 -0.1198  0.6388
54682OCT     C2 9364  12.856  16.160  13.627  0.3512 -0.0019 -0.0616
54683OCT     C1 9365  16.124   8.089  17.005 -0.0835  0.0611 -0.0952
54683OCT     C2 9366  15.906   7.933  16.657 -0.0272  0.2039  0.0033
54684OCT     C1 9367  17.732  17.410   6.333 -0.1655 -0.0773 -0.0691
54684OCT     C2 9368  18.035  17.565   6.628 -0.2921  0.1402  0.0066
54685OCT     C1 9369   3.561  17.965  11.570 -0.1961  0.0293 -0.0516
54685OCT     C2 9370   3.236  18.045  11.327  0.1517 -0.2504  0.0855
54686OCT     C1 9371  15.058  14.441   8.381 -0.2131 -0.0054  0.2355
54686OCT     C2 9372  14.619  14.300   8.543 -0.1451 -0.4767  0.0962
54687OCT     C1 9373  19.846   5.875  19.335 -0.1533  0.2394  0.1746
54687OCT     C2 9374  20.216   5.646  19.428  0.0978  0.0638  0.2299
54688OCT     C1 9375   3.846   9.483   2.708 -0.0340 -0.5262  0.1213
54688OCT     C2 9376   4.050   9.662   3.055 -0.0343 -0.1656  0.2073
54689OCT     C1 9377   9.836   0.747  13.862 -0.0925 -0.4854 -0.1324
54689OCT     C2 9378   9.834   0.978  14.304 -0.0718 -0.1127  0.4424
54690OCT     C1 9379  14.616  23.424  21.182  0.1770  0.2638 -0.3209
54690OCT     C2 9380  14.878  23.600  21.493 -0.1474  0.2592  0.0032
54691OCT     C1 9381   7.015  13.338  23.137 -0.1317 -0.0792  0.0618
54691OCT     C2 9382   7.113  13.731  23.389  0.0286  0.0305  0.3177
54692OCT     C1 9383   5.600  18.940   9.259  0.0435  0.0907  0.1596
54692OCT     C2 9384   5.690  18.627   8.918 -0.1096  0.1103  0.2862
54693OCT     C1 9385   6.180  12.804   4.561  0.0275  0.2355 -0.1051
54693OCT     C2 9386   6.428  13.035   4.191  0.0214 -0.0594 -0.0930
54694OCT     C1 9387  15.335   2.573  10.271 -0.0863 -0.1604 -0.1302
54694OCT     C2 9388  15.747   2.434   9.998  0.3361 -0.3262 -0.2810
54695OCT     C1 9389   2.394  18.913   8.831  0.2142 -0.0943 -0.2010
54695OCT     C2 9390   2.544  18.481   8.841  0.0399 -0.1952  0.1152
54696OCT     C1 9391  13.778   0.751  18.304 -0.0060 -0.0685 -0.2498
54696OCT     C2 9392  14.226   0.542  18.460  0.2721 -0.1704 -0.1553
54697OCT     C1 9393   6.163  21.314  12.420  0.0140  0.2722 -0.0889
54697OCT     C2 9394   6.375  20.887  12.228 -0.4869  0.1805  0.0885
54698OCT     C1 9395  21.467  13.977  17.886 -0.0352 -0.0066  0.1769
54698OCT     C2 9396  21.433  14.198  18.301  0.0907  0.1560 -0.0202
54699OCT     C1 9397   3.367   8.345   7.655 -0.0294 -0.4128 -0.1009
54699OCT     C2 9398   2.996   8.536   7.488 -0.0573  0.2349  0.0789
54700OCT     C1 9399   7.816  16.587  15.993  0.1024  0.0995  0.1992
54700OCT     C2 9400   7.484  16.583  16.309  0.4867  0.0432  0.2053
54701OCT     C1 9401   1.049  21.259  11.705 -0.0524  0.1715 -0.0155
54701OCT     C2 9402   1.336  21.550  11.425  0.0848  0.0073 -0.1562
54702OCT     C1 9403  13.446  10.744   7.812 -0.1910  0.2421  0.3657
54702OCT     C2 9404  13.348  10.743   7.372  0.2815 -0.0538 -0.0428
54703OCT     C1 9405  11.554  22.523  15.166  0.1001 -0.0168 -0.1715
54703OCT     C2 9406  11.367  22.571  14.724 -0.4422  0.1641 -0.3143
54704OCT     C1 9407  18.826  21.812  18.937  0.2921 -0.0158  0.3722
54704OCT     C2 9408  18.479  21.473  19.012 -0.0680 -0.5087 -0.3760
54705OCT     C1 9409   4.882   7.634  14.746  0.1995  0.0023 -0.0273
54705OCT     C2 9410   4.832   7.855  14.359  0.2244  0.1049  0.1539
54706OCT     C1 9411  10.673  13.083  16.017 -0.0471  0.0124  0.1479
54706OCT     C2 9412  10.582  13.270  16.430 -0.1142  0.1171 -0.0450
54707OCT     C1 9413   0.319  15.226  10.800  0.3869  0.2679 -0.1151
54707OCT     C2 9414  23.585  15.226  10.662  0.0248 -0.1332  0.2820
54708OCT     C1 9415  15.313  22.970  16.250  0.0559  0.0284  0.0795
54708OCT     C2 9416  15.301  22.530  16.213  0.0235 -0.2193 -0.2068
54709OCT     C1 9417  17.771  20.501  15.867 -0.0698 -0.4015  0.1355
54709OCT     C2 9418  17.583  20.943  15.776 -0.0621  0.0160 -0.1364
54710OCT     C1 9419   6.490  19.472  11.027  0.2111  0.0649  0.0693
54710OCT     C2 9420   6.011  19.352  11.061  0.2717  0.1168 -0.1074
54711OCT     C1 9421  23.201  12.324  21.363  0.0039  0.0365 -0.4047
54711OCT     C2 9422  22.991  12.002  21.681  0.1692 -0.5596 -0.0048
54712OCT     C1 9423   3.973  11.977   7.534 -0.1309  0.0477 -0.1785
54712OCT     C2 9424   4.105  11.630   7.247  0.0276  0.0377  0.3690
54713OCT     C1 9425  18.894  12.648   1.323  0.4094 -0.1434 -0.3503
54713OCT     C2 9426  19.301  12.608   1.186  0.0457 -0.1582 -0.0407
54714OCT     C1 9427   9.871  22.405   9.282  0.3677  0.2435  0.5524
54714OCT     C2 9428   9.981  22.384   9.741 -0.0714  0.3444 -0.0685
54715OCT     C1 9429  11.556  22.106  14.750  0.1463  0.0343 -0.2168
54715OCT     C2 9430  11.948  21.945  14.768 -0.2098 -0.1062  0.0148
54716OCT     C1 9431   3.885  20.561   1.235  0.3894 -0.1925 -0.3219
54716OCT     C2 9432   4.177  20.895   1.088 -0.3063 -0.0963 -0.4444
54717OCT     C1 9433  11.185   2.945  19.034  0.3520 -0.3268 -0.2135
54717OCT     C2 9434  10.818   2.809  19.217 -0.0371  0.0409  0.3299
54718OCT     C1 9435   1.902  10.283   9.129  0.0682 -0.0980 -0.2048
54718OCT     C2 9436   2.023  10.482   8.709 -0.1401 -0.1037 -0.2934
54719OCT     C1 9437  14.075  21.947  19.827  0.3432  0.1556 -0.0542
54719OCT     C2 9438  13.715  22.127  19.523  0.2318  0.0361 -0.2199
54720OCT     C1 9439  11.482  16.917  20.702  0.1259 -0.1035 -0.0944
54720OCT     C2 9440  11.136  16.997  20.427 -0.4060  0.1856 -0.1058
54721OCT     C1 9441  22.578  16.011   1.039  0.0664 -0.1162 -0.2393
54721OCT     C2 9442  22.500  15.687   1.331  0.0710 -0.1241  0.2668
54722OCT     C1 9443   4.149   1.934   0.456  0.1384  0.0095 -0.0960
54722OCT     C2 9444   3.828   2.238   0.322 -0.3519 -0.1317 -0.0858
54723OCT     C1 9445   0.521   5.162  13.392 -0.1080 -0.1204 -0.0873
54723OCT     C2 9446   0.527   5.264  12.928 -0.0740  0.1920 -0.0026
54724OCT     C1 9447   7.046  18.191  11.218 -0.2189  0.3789  0.2075
54724OCT     C2 9448   7.100  18.619  11.109 -0.0584 -0.1384 -0.0542
54725OCT     C1 9449  15.912  11.115   2.444  0.0665 -0.3438  0.1181
54725OCT     C2 9450  16.257  11.014   2.086 -0.0128  0.2241 -0.1039
54726OCT     C1 9451  22.325   0.262  19.832  0.0588 -0.3851 -0.0127
54726OCT     C2 9452  22.536   0.214  19.404 -0.0270 -0.0080 -0.2031
54727OCT     C1 9453  16.065   3.106   8.360  0.3338 -0.2346 -0.1426
54727OCT     C2 9454  16.212   3.497   8.195 -0.3751  0.0084  0.2885
54728OCT     C1 9455  17.172   8.550  18.386 -0.0424  0.1858  0.2506
54728OCT     C2 9456  16.809   8.418  18.146  0.2050 -0.0678  0.2594
54729OCT     C1 9457  19.724   9.444   3.955  0.1172  0.1349  0.1132
54729OCT     C2 9458  19.434   9.841   4.019  0.1470  0.1091  0.3166
54730OCT     C1 9459  10.305   0.559   4.274 -0.3839  0.0972  0.1091
54730OCT     C2 9460  10.636   0.707   3.937 -0.2635  0.4915  0.0572
54731OCT     C1 9461  12.325  16.010  20.602  0.0729  0.1351  0.3136
54731OCT     C2 9462  12.765  15.876  20.698  0.0252  0.1007  0.0605
54732OCT     C1 9463  14.728  18.313   6.517  0.3050  0.1209  0.0020
54732OCT     C2 9464  14.314  18.075   6.506  0.1775  0.0352  0.2258
54733OCT     C1 9465  10.300   1.176   7.417  0.0348  0.2200 -0.4022
54733OCT     C2 9466   9.868   1.275   7.273  0.0005 -0.0429 -0.1967
54734OCT     C1 9467  15.976  13.350   2.921  0.2988  0.0287  0.1684
54734OCT     C2 9468  15.537  13.505   2.979  0.3777 -0.1403 -0.0800
54735OCT     C1 9469  17.618  11.580   2.619  0.1909  0.2794  0.0815
54735OCT     C2 9470  17.379  11.191   2.527 -0.0953 -0.1957 -0.1328
54736OCT     C1 9471  20.986  15.873  23.381  0.2547  0.1586  0.3713
54736OCT     C2 9472  20.618  16.000  23.080 -0.1584 -0.0250 -0.0626
54737OCT     C1 9473   5.817   2.726  22.807 -0.3007  0.3197 -0.2872
54737OCT     C2 9474   5.939   3.065  23.200  0.0941 -0.0011 -0.1048
54738OCT     C1 9475   6.206   2.158  13.887 -0.2410  0.2577 -0.0306
54738OCT     C2 9476   6.433   2.448  13.569  0.2181  0.3284 -0.0977
54739OCT     C1 9477   8.531   0.606  14.639 -0.2977 -0.0904 -0.1383
54739OCT     C2 9478   8.536   0.196  14.792  0.1811  0.1615  0.0831
54740OCT     C1 9479   9.713   9.985  11.575 -0.1380  0.3152 -0.1163
54740OCT     C2 9480   9.301  10.009  11.521 -0.1676  0.0761  0.0198
54741OCT     C1 9481   1.280   5.906  22.520 -0.0323 -0.4603  0.0658
54741OCT     C2 9482   0.885   5.907  22.691  0.1858  0.3707 -0.1342
54742OCT     C1 9483   0.950  12.500  19.610  0.1933  0.0324 -0.0538
54742OCT     C2 9484   1.104  12.970  19.583 -0.0131 -0.1125 -0.0122
54743OCT     C1 9485  13.296  18.073  23.511  0.2775 -0.1590  0.4440
54743OCT     C2 9486  12.839  17.872  23.603 -0.2319  0.4034  0.2790
54744OCT     C1 9487  23.077   6.273   9.357 -0.4587 -0.2451  0.2503
54744OCT     C2 9488  22.713   6.539   9.274 -0.3093  0.1049 -0.0536
54745OCT     C1 9489  22.101  13.447   2.044  0.2037  0.2689 -0.0184
54745OCT     C2 9490  21.723  13.424   2.383  0.0880 -0.1225 -0.3112
54746OCT     C1 9491   1.214   0.176  19.470  0.0464 -0.2930  0.0481
54746OCT     C2 9492   1.028   0.612  19.391 -0.1285  0.4767 -0.2512
54747OCT     C1 9493  19.767   4.020  13.404  0.0909 -0.0913 -0.0097
54747OCT     C2 9494  19.943   3.802  13.004  0.0006  0.1648  0.0137
54748OCT     C1 9495   5.290   0.193  17.841 -0.1179  0.0953 -0.0135
54748OCT     C2 9496   5.108  23.685  18.234 -0.2021  0.1685 -0.0014
54749OCT     C1 9497   2.973  13.351  20.080  0.0213  0.2787 -0.2731
54749OCT     C2 9498   2.917  13.799  19.970  0.2177 -0.0991 -0.1350
54750OCT     C1 9499  11.594  15.691   1.549 -0.1071  0.1074  0.1363
54750OCT     C2 9500  11.290  15.567   1.863  0.1471 -0.3824 -0.0847
54751OCT     C1 9501  17.919  15.421  16.791 -0.0242  0.1863 -0.3051
54751OCT     C2 9502  17.605  15.652  16.527  0.1564 -0.0178  0.4364
54752OCT     C1 9503   1.373   8.804  17.825  0.0150  0.0231 -0.3818
54752OCT     C2 9504   1.383   9.245  17.890  0.3029 -0.3031  0.2042
54753OCT     C1 9505   7.695  11.205  21.989 -0.0592 -0.1317 -0.1977
54753OCT     C2 9506   7.732  11.298  22.489 -0.2848 -0.1991 -0.1174
54754OCT     C1 9507   1.937  20.617   4.641 -0.0629  0.0285  0.0203
54754OCT     C2 9508   2.387  20.701   4.654 -0.1015  0.0976  0.1903
54755OCT     C1 9509   0.361  14.132   4.993 -0.3912 -0.0218  0.1912
54755OCT     C2 9510   0.460  13.734   5.254  0.0241 -0.4479 -0.0259
54756OCT     C1 9511  23.165   4.092   6.715 -0.0798 -0.1118 -0.0785
54756OCT     C2 9512  22.878   4.051   6.365 -0.0290 -0.0207 -0.4906
54757OCT     C1 9513   3.998   8.017   7.835  0.2294 -0.5884 -0.0128
54757OCT     C2 9514   4.182   8.317   8.156 -0.4488 -0.0444 -0.0968
54758OCT     C1 9515  11.828  15.260   1.280 -0.1611  0.0202  0.0365
54758OCT     C2 9516  11.739  15.043   0.845  0.1705 -0.1374 -0.3038
54759OCT     C1 9517  15.376  21.220  18.953 -0.0087  0.2935  0.0795
54759OCT     C2 9518  15.654  21.545  18.749  0.1714  0.1910  0.2492
54760OCT     C1 9519   8.296   2.291   2.041  0.4190 -0.0023 -0.4828
54760OCT     C2 9520   8.202   2.257   1.591 -0.1125  0.3493  0.3196
54761OCT     C1 9521  10.363   9.299  14.861  0.0135 -0.3242  0.0430
54761OCT     C2 9522  10.058   9.411  15.295  0.0787 -0.0069  0.2443
54762OCT     C1 9523   9.562  12.385  23.381 -0.0521 -0.1770  0.1686
54762OCT     C2 9524   9.412  12.332  22.926  0.1808 -0.3332  0.3307
54763OCT     C1 9525  22.446   7.940   8.912  0.1643 -0.2906 -0.1194
54763OCT     C2 9526  22.314   7.899   9.329 -0.1545  0.1052 -0.2927
54764OCT     C1 9527  13.886  17.477   4.334 -0.2161  0.1357 -0.0118
54764OCT     C2 9528  13.827  17.214   3.974 -0.0306 -0.0837 -0.2196
54765OCT     C1 9529  12.123   2.491  16.832 -0.2100  0.0779  0.0109
54765OCT     C2 9530  12.571   2.407  16.894  0.1545  0.0172 -0.0231
54766OCT     C1 9531  10.777   2.372  22.010  0.0189 -0.1725 -0.2988
54766OCT     C2 9532  11.004   2.508  22.403 -0.3590 -0.1724  0.1279
54767OCT     C1 9533  16.338  14.622  12.657 -0.0901 -0.0403 -0.0316
54767OCT     C2 9534  16.684  14.421  12.446  0.2230  0.3425 -0.4606
54768OCT     C1 9535   0.051  17.057   0.418  0.1321 -0.4547 -0.2182
54768OCT     C2 9536  23.612  17.395   0.745  0.1296  0.1184 -0.0536
54769OCT     C1 9537  18.309  19.000  21.037  0.0387 -0.2471 -0.1405
54769OCT     C2 9538  18.681  19.056  21.363 -0.1026 -0.0066  0.2095
54770OCT     C1 9539  17.244   8.703  15.590 -0.1164  0.5458  0.2444
54770OCT     C2 9540  16.994   8.300  15.603  0.0688  0.0094 -0.0607
54771OCT     C1 9541  20.846  12.775   4.001 -0.0003 -0.2464  0.1492
54771OCT     C2 9542  21.073  13.137   4.241  0.1291 -0.0235  0.0460
54772OCT     C1 9543  15.753  12.853  14.952  0.0224  0.2285 -0.0023
54772OCT     C2 9544  16.209  12.850  14.694 -0.0263  0.2020 -0.1895
54773OCT     C1 9545   1.895   5.180  15.809 -0.2200  0.0683  0.3425
54773OCT     C2 9546   2.317   5.304  15.903  0.0151 -0.5124  0.2052
54774OCT     C1 9547   8.042  19.230  21.903  0.2789  0.0962 -0.2511
54774OCT     C2 9548   8.131  19.700  21.927  0.0003  0.1966 -0.4275
54775OCT     C1 9549   2.181   6.252  14.639  0.0490 -0.0793 -0.0557
54775OCT     C2 9550   2.326   5.828  14.774 -0.0266 -0.0197  0.2028
54776OCT     C1 9551  16.791   1.308   2.204  0.0901  0.1855 -0.0502
54776OCT     C2 9552  17.135   1.380   2.456 -0.0259 -0.0935  0.0488
54777OCT     C1 9553   0.141  14.467  20.218 -0.1265 -0.0601  0.1871
54777OCT     C2 9554   0.562  14.723  20.292 -0.2243  0.2710  0.2195
54778OCT     C1 9555  22.072   4.449   0.153  0.2139 -0.1342 -0.2740
54778OCT     C2 9556  21.663   4.603   0.094 -0.2588  0.1236 -0.2239
54779OCT     C1 9557   4.148  18.313  10.327 -0.1020  0.2370  0.3333
54779OCT     C2 9558   3.886  18.249  10.717 -0.1821 -0.0238  0.1427
54780OCT     C1 9559  21.470  21.152  19.149  0.0323  0.3811 -0.0066
54780OCT     C2 9560  21.360  21.494  19.429  0.1036  0.0257  0.2667
54781OCT     C1 9561  10.998  19.262  18.380  0.0684  0.0293 -0.1189
54781OCT     C2 9562  10.944  19.718  18.537 -0.3358  0.1182  0.0548
54782OCT     C1 9563   2.028   3.549  21.705  0.0301  0.1312  0.0418
54782OCT     C2 9564   2.471   3.358  21.935 -0.1455  0.1942 -0.1189
54783OCT     C1 9565   8.518  12.977  18.234  0.3756  0.0409 -0.3217
54783OCT     C2 9566   8.900  12.734  18.372  0.0852 -0.0105 -0.0698
54784OCT     C1 9567   9.077   7.459   8.378  0.0909  0.1637  0.2628
54784OCT     C2 9568   8.785   7.396   8.024 -0.0478 -0.0426  0.2566
54785OCT     C1 9569   3.348   1.754  12.869  0.1474 -0.1160  0.0303
54785OCT     C2 9570   3.243   2.209  12.717 -0.1715  0.4454  0.3083
54786OCT     C1 9571   5.519  14.987  14.695 -0.2703 -0.2160  0.2400
54786OCT     C2 9572   5.195  15.336  14.884  0.0753 -0.0691 -0.1829
54787OCT     C1 9573  14.620  19.571  10.797  0.0386 -0.2517  0.0104
54787OCT     C2 9574  14.776  19.122  10.989 -0.0131 -0.0021  0.1629
54788OCT     C1 9575  10.445   2.901   3.772  0.1897  0.2691  0.3710
54788OCT     C2 9576  10.678   2.811   3.328  0.1119  0.0088 -0.2932
54789OCT     C1 9577  14.549  13.800   1.497 -0.3937 -0.0459 -0.0609
54789OCT     C2 9578  14.618  13.303   1.456 -0.0072  0.2125 -0.1329
54790OCT     C1 9579   6.339   5.916  21.646 -0.2737 -0.1497  0.2388
54790OCT     C2 9580   5.871   5.970  21.674 -0.3174  0.0397 -0.0857
54791OCT     C1 9581   9.112  14.342   8.582  0.2580  0.0971  0.1353
54791OCT     C2 9582   9.105  14.574   8.989  0.2161  0.0332 -0.0851
54792OCT     C1 9583   6.915  17.151  22.755  0.1294  0.0908 -0.0206
54792OCT     C2 9584   6.589  17.208  22.999  0.0043 -0.3175  0.1307
54793OCT     C1 9585  18.012  12.192  20.328 -0.2079  0.0882  0.2196
54793OCT     C2 9586  18.336  12.420  20.573  0.0595 -0.1571 -0.0348
54794OCT     C1 9587   6.208  18.557   0.505  0.0827  0.0675  0.2819
54794OCT     C2 9588   6.508  18.916   0.542 -0.2401 -0.1800 -0.2565
54795OCT     C1 9589  15.915   6.260  19.242  0.2791 -0.2557  0.1922
54795OCT     C2 9590  15.570   6.609  19.232  0.0388 -0.2915 -0.1511
54796OCT     C1 9591  17.925  20.223  19.445  0.2706 -0.1353 -0.0045
54796OCT     C2 9592  17.459  20.305  19.562  0.0107 -0.0736  0.1688
54797OCT     C1 9593  10.368  21.367   1.116  0.0180 -0.0007 -0.0409
54797OCT     C2 9594   9.952  21.118   1.079 -0.1023 -0.1351  0.0233
54798OCT     C1 9595  10.289   9.726  16.337 -0.1346  0.1650 -0.1690
54798OCT     C2 9596  10.484   9.984  16.040 -0.2376 -0.2313 -0.0813
54799OCT     C1 9597  14.807   1.302  17.521 -0.4003 -0.2327 -0.1310
54799OCT     C2 9598  15.262   1.294  17.346  0.2402  0.2186 -0.3593
54800OCT     C1 9599  14.176  19.857  13.514  0.0121  0.1905 -0.0362
54800OCT     C2 9600  14.095  20.279  13.664  0.2387  0.2099  0.3866
54801OCT     C1 9601  21.902   1.253   0.747 -0.3003 -0.1679  0.3429
54801OCT     C2 9602  21.915   1.569   1.097  0.1817  0.1050  0.2824
54802OCT     C1 9603  22.957  16.729  22.791 -0.0704  0.2268 -0.0252
54802OCT     C2 9604  22.953  16.689  22.297 -0.0971 -0.3393 -0.0582
54803OCT     C1 9605  13.659  20.379   1.775  0.0746 -0.3139 -0.0878
54803OCT     C2 9606  13.763  20.188   2.161 -0.0297  0.2323  0.1596
54804OCT     C1 9607   2.362   6.859  13.894  0.1961 -0.0863 -0.2245
54804OCT     C2 9608   2.521   6.650  13.585  0.2293 -0.4183 -0.0083
54805OCT     C1 9609  14.762   9.132   5.216 -0.1034 -0.2486  0.0633
54805OCT     C2 9610  14.869   9.550   5.404 -0.4170  0.3367  0.0929
54806OCT     C1 9611   0.775   3.957  18.394  0.0248 -0.0036 -0.1557
54806OCT     C2 9612   1.039   4.299  18.252 -0.2307 -0.0980  0.2007
54807OCT     C1 9613   8.978  17.314  17.337 -0.0149  0.0483  0.2712
54807OCT     C2 9614   8.780  17.198  17.749  0.1053 -0.2562 -0.1141
54808OCT     C1 9615  22.833  13.379   5.194 -0.3663  0.0210  0.0852
54808OCT     C2 9616  22.856  12.965   5.393  0.3893  0.3687 -0.2322
54809OCT     C1 9617  22.512  16.265   5.429  0.1557  0.2488  0.1160
54809OCT     C2 9618  22.422  16.393   5.889 -0.1311  0.0230 -0.4466
54810OCT     C1 9619  17.324  16.976   9.243 -0.2996 -0.0688  0.1462
54810OCT     C2 9620  16.984  17.248   9.381 -0.3276  0.1555  0.1853
54811OCT     C1 9621  20.939  17.680  10.429 -0.0155  0.1182  0.4081
54811OCT     C2 9622  20.550  17.919  10.490  0.1223  0.2329 -0.2085
54812OCT     C1 9623  15.647  23.639  19.160 -0.0189  0.2302 -0.1200
54812OCT     C2 9624  16.029  23.668  18.934 -0.0909  0.1677 -0.2228
54813OCT     C1 9625  16.380   7.718  18.530  0.1299 -0.1887 -0.0454
54813OCT     C2 9626  16.291   7.802  18.056  0.0830  0.1059 -0.0014
54814OCT     C1 9627  12.012   7.498  13.490  0.4475  0.0441  0.1489
54814OCT     C2 9628  11.739   7.166  13.690 -0.2299 -0.2180 -0.1241
54815OCT     C1 9629  19.147   1.191  13.630 -0.1304 -0.0675  0.1019
54815OCT     C2 9630  18.711   1.153  13.849 -0.3806  0.2598  0.0950
54816OCT     C1 9631   5.946   8.558   7.106  0.0097  0.1807  0.1311
54816OCT     C2 9632   5.800   8.121   7.190 -0.3073  0.0381  0.0939
54817OCT     C1 9633   0.894  22.587  19.683  0.1453  0.0550  0.0317
54817OCT     C2 9634   0.940  22.947  19.393 -0.3417  0.1603  0.1979
54818OCT     C1 9635   2.963  21.417  11.586 -0.3398 -0.1847  0.1855
54818OCT     C2 9636   3.289  21.740  11.462 -0.0953  0.2125  0.1776
54819OCT     C1 9637  17.560  16.844  22.785 -0.4038 -0.0414 -0.0047
54819OCT     C2 9638  17.438  17.201  23.123 -0.0519  0.2700  0.1372
54820OCT     C1 9639  18.635   1.220   8.148 -0.0080  0.1597 -0.0920
54820OCT     C2 9640  18.650   0.809   8.439 -0.0011 -0.2505  0.1837
54821OCT     C1 9641   6.172  11.283  22.682  0.0116  0.3840 -0.0089
54821OCT     C2 9642   5.974  11.672  22.943 -0.2348  0.1667 -0.0368
54822OCT     C1 9643  12.669  23.387  15.597  0.0018 -0.1363 -0.0824
54822OCT     C2 9644  12.481  23.675  15.301  0.0608  0.4107 -0.2996
54823OCT     C1 9645  20.471  19.135   1.409 -0.2793 -0.0678 -0.1817
54823OCT     C2 9646  20.332  18.818   1.048 -0.0643 -0.2791 -0.5498
54824OCT     C1 9647  16.016  10.865   0.011  0.2889  0.1522 -0.1229
54824OCT     C2 9648  16.058  10.775   0.431 -0.2268 -0.0346  0.1747
54825OCT     C1 9649  19.278   5.078   1.206  0.1669 -0.2001  0.3217
54825OCT     C2 9650  18.946   5.181   1.488 -0.5785  0.1682  0.1637
54826OCT     C1 9651  11.474   9.284  12.705  0.0493  0.0885 -0.1577
54826OCT     C2 9652  11.865   9.543  12.556 -0.2776 -0.5103  0.2171
54827OCT     C1 9653   6.621  20.077   7.450 -0.1568 -0.1704  0.0084
54827OCT     C2 9654   6.671  20.196   7.004  0.0426 -0.0803 -0.1160
54828OCT     C1 9655   2.255   1.456  16.551  0.0127 -0.1906 -0.2891
54828OCT     C2 9656   2.574   1.753  16.350 -0.1404  0.2501  0.2518
54829OCT     C1 9657   2.134  10.914   5.780  0.1013 -0.1173  0.0388
54829OCT     C2 9658   1.912  10.744   6.100  0.0555  0.0031  0.2118
54830OCT     C1 9659   8.873   9.595  22.609 -0.3777  0.2189  0.0165
54830OCT     C2 9660   9.024   9.209  22.771 -0.0377  0.0099 -0.0489
54831OCT     C1 9661   2.279  21.294   6.375  0.1932  0.3525  0.5942
54831OCT     C2 9662   2.198  21.422   5.901  0.1940 -0.0007  0.0963
54832OCT     C1 9663  18.656  10.858  12.616 -0.1252  0.0582  0.0462
54832OCT     C2 9664  18.610  11.281  12.405  0.4807 -0.0005  0.0220
54833OCT     C1 9665  11.935  21.948   9.314  0.0044  0.2262 -0.0445
54833OCT     C2 9666  11.856  22.053   9.741 -0.1935  0.1976 -0.2137
54834OCT     C1 9667  21.309  20.789   3.280 -0.1210 -0.2090  0.0284
54834OCT     C2 9668  21.072  20.940   2.915 -0.2082 -0.4063  0.0083
54835OCT     C1 9669  10.996   8.302   4.139  0.2145 -0.1111 -0.1434
54835OCT     C2 9670  10.847   8.242   3.728  0.0529  0.2236  0.0678
54836OCT     C1 9671  13.319   8.425  16.657  0.2108  0.2479 -0.0063
54836OCT     C2 9672  13.658   8.531  16.408 -0.1191 -0.0948 -0.0380
54837OCT     C1 9673  14.596  18.946   4.887  0.0115 -0.1822  0.1313
54837OCT     C2 9674  14.838  19.136   5.297  0.4452  0.0867 -0.2316
54838OCT     C1 9675   0.637  19.844  18.071 -0.2524  0.2680  0.0073
54838OCT     C2 9676   0.903  19.766  18.405  0.0959 -0.0647 -0.0395
54839OCT     C1 9677   5.117  18.070   0.074 -0.3925 -0.2859  0.0483
54839OCT     C2 9678   5.080  18.440   0.413 -0.3634 -0.3442 -0.2179
54840OCT     C1 9679  23.649  15.841  16.404 -0.0380 -0.3212 -0.2679
54840OCT     C2 9680  23.276  15.658  16.628  0.1139 -0.2433  0.1081
54841OCT     C1 9681   7.053  20.134  16.456 -0.1298  0.2204 -0.0814
54841OCT     C2 9682   6.638  20.092  16.305  0.0382  0.0349 -0.1030
54842OCT     C1 9683  21.484  22.614   1.298 -0.1411  0.0081 -0.2923
54842OCT     C2 9684  21.537  22.364   0.904  0.1490  0.4054 -0.1336
54843OCT     C1 9685  21.321  14.403  11.939  0.3747  0.2721 -0.1543
54843OCT     C2 9686  21.455  14.805  12.172  0.2707 -0.0097  0.0520
54844OCT     C1 9687  10.055   0.261  18.723 -0.3890  0.2723  0.0644
54844OCT     C2 9688  10.229   0.675  18.623 -0.0949 -0.4466  0.1035
54845OCT     C1 9689   0.566  11.837  18.772  0.1903  0.1142 -0.3559
54845OCT     C2 9690   0.280  11.783  19.119 -0.0412 -0.2204  0.1787
54846OCT     C1 9691  18.833   8.134  16.354  0.1697  0.0470 -0.0169
54846OCT     C2 9692  19.165   8.228  16.693 -0.3055 -0.2018 -0.0128
54847OCT     C1 9693  11.893   1.579   2.714 -0.0892  0.1077 -0.2125
54847OCT     C2 9694  11.837   1.263   2.378 -0.1044  0.2152 -0.0235
54848OCT     C1 9695   9.018  10.321  15.820  0.0551  0.0627 -0.4000
54848OCT     C2 9696   9.230  10.455  16.194  0.0738  0.2148 -0.3356
54849OCT     C1 9697  19.967   6.118  23.136 -0.0061 -0.1567  0.0635
54849OCT     C2 9698  20.045   6.109  22.668 -0.0776  0.0791 -0.2489
54850OCT     C1 9699  16.726  21.373   0.258  0.1721 -0.1374  0.0463
54850OCT     C2 9700  16.385  21.638   0.118  0.0472 -0.1411  0.2551
54851OCT     C1 9701  12.355   5.445  17.846  0.1253  0.0519  0.1234
54851OCT     C2 9702  11.919   5.469  17.747 -0.1001 -0.3445 -0.0830
54852OCT     C1 9703  10.816  23.129   6.391 -0.0628 -0.1367 -0.1749
54852OCT     C2 9704  11.268  23.168   6.288 -0.0783 -0.0552 -0.0871
54853OCT     C1 9705  13.881   7.110   2.863  0.1708 -0.0207  0.3066
54853OCT     C2 9706  13.582   6.783   2.758  0.1976  0.1935  0.0505
54854OCT     C1 9707  15.436   5.846  16.477  0.0519  0.2552 -0.0042
54854OCT     C2 9708  15.208   5.631  16.813 -0.0502  0.0413  0.1381
54855OCT     C1 9709  11.476  15.102  14.476 -0.0174  0.2942 -0.2104
54855OCT     C2 9710  11.625  15.142  14.917  0.2734 -0.1042  0.1218
54856OCT     C1 9711  13.478  14.371   6.702 -0.3238  0.0773  0.1018
54856OCT     C2 9712  13.586  14.348   7.171 -0.3273 -0.1346 -0.0905
54857OCT     C1 9713   1.258  19.412  18.407  0.2470 -0.0907  0.4400
54857OCT     C2 9714   1.088  18.980  18.170 -0.0665 -0.0010  0.1652
54858OCT     C1 9715   8.437  11.155  14.050 -0.2363 -0.1968 -0.2603
54858OCT     C2 9716   8.785  11.120  13.697  0.0902  0.1100  0.0851
54859OCT     C1 9717  18.554   3.440   2.933  0.0740  0.1767 -0.5372
54859OCT     C2 9718  18.187   3.152   3.011  0.3924  0.0320  0.1314
54860OCT     C1 9719  11.047  23.326  16.395 -0.0429  0.1074 -0.0330
54860OCT     C2 9720  10.802  23.190  16.039 -0.0706  0.0726 -0.1977
54861OCT     C1 9721   0.675  10.188  11.787 -0.0470  0.1669  0.1059
54861OCT     C2 9722   1.051   9.939  11.639  0.2375 -0.0326  0.0189
54862OCT     C1 9723  12.076   5.768  14.936 -0.0569  0.1907  0.0661
54862OCT     C2 9724  11.982   6.130  14.668  0.1242 -0.0003  0.2646
54863OCT     C1 9725  19.497   7.342  17.599  0.0824 -0.2980  0.0630
54863OCT     C2 9726  19.933   7.091  17.480  0.0391  0.1042 -0.1033
54864OCT     C1 9727   7.473  18.292   1.121  0.2995  0.2940  0.0598
54864OCT     C2 9728   7.481  18.708   1.367  0.1421  0.1612 -0.1817
54865OCT     C1 9729   2.082  15.287   1.823 -0.1949  0.3220 -0.2313
54865OCT     C2 9730   2.412  15.535   1.597 -0.2078 -0.1295 -0.1010
54866OCT     C1 9731   1.952  12.175   0.889  0.0029 -0.0841 -0.2206
54866OCT     C2 9732   1.634  11.810   0.897 -0.0354 -0.0268  0.3919
54867OCT     C1 9733  13.486   5.036  10.797  0.2243 -0.5095  0.0210
54867OCT     C2 9734  13.188   5.108  10.435 -0.3694 -0.3607  0.2566
54868OCT     C1 9735   0.464  20.982  21.457 -0.2179  0.1849 -0.2108
54868OCT     C2 9736   0.117  20.756  21.413  0.1336  0.0623  0.0531
54869OCT     C1 9737   4.638  19.230  13.088  0.1396  0.0342  0.0894
54869OCT     C2 9738   4.969  18.897  12.917  0.3728 -0.0692 -0.2606
54870OCT     C1 9739  11.094  10.294  13.903 -0.3182 -0.2128  0.1190
54870OCT     C2 9740  10.795  10.330  13.559  0.0014  0.1117 -0.1327
54871OCT     C1 9741  15.818  19.347   0.656 -0.3869 -0.1868 -0.3455
54871OCT     C2 9742  15.705  18.999   0.933  0.0694 -0.0401  0.3050
54872OCT     C1 9743   0.130  14.926  17.283  0.3631 -0.0645 -0.2165
54872OCT     C2 9744   0.236  15.184  16.907 -0.1653 -0.2317  0.1095
54873OCT     C1 9745   8.927   0.097   7.661 -0.2299 -0.0518  0.1778
54873OCT     C2 9746   8.740  23.740   8.038 -0.0619  0.1449 -0.0316
54874OCT     C1 9747  18.010  13.566  11.423 -0.1578 -0.3113 -0.1372
54874OCT     C2 9748  17.518  13.708  11.453  0.0944 -0.0866  0.1733
54875OCT     C1 9749  21.891  12.654  15.927 -0.0467 -0.0166  0.3448
54875OCT     C2 9750  21.749  12.982  15.570  0.0238 -0.2687 -0.2841
54876OCT     C1 9751  18.680  12.469   9.440 -0.0217  0.0010 -0.2114
54876OCT     C2 9752  18.324  12.571   9.134  0.1837 -0.2637  0.0300
54877OCT     C1 9753   0.462  16.092  18.585  0.1428  0.2101 -0.0047
54877OCT     C2 9754   0.357  16.566  18.635  0.0767  0.3174  0.1640
54878OCT     C1 9755  12.052  14.192  12.584  0.0757 -0.1629 -0.2232
54878OCT     C2 9756  11.923  14.129  13.063 -0.1686  0.3044  0.0119
54879OCT     C1 9757   5.708  13.076  11.000 -0.2180 -0.1161  0.0971
54879OCT     C2 9758   5.492  12.815  11.355  0.3209 -0.1725  0.0802
54880OCT     C1 9759  18.261  20.568   8.030  0.1207 -0.2349 -0.1878
54880OCT     C2 9760  18.048  20.828   7.713 -0.1348 -0.0806  0.2407
54881OCT     C1 9761  16.779  19.527   0.324  0.0115  0.2947 -0.1999
54881OCT     C2 9762  16.822  19.329   0.774  0.4125  0.2937  0.0300
54882OCT     C1 9763  23.561  16.296   4.268  0.0947 -0.1705  0.0587
54882OCT     C2 9764  23.378  15.866   4.407  0.2900  0.0987  0.2440
54883OCT     C1 9765   7.335   5.516  23.477  0.0456  0.0676 -0.2039
54883OCT     C2 9766   7.789   5.686  23.380 -0.1285 -0.1310  0.2267
54884OCT     C1 9767  11.026   7.518   1.964  0.2182 -0.2129  0.0000
54884OCT     C2 9768  10.677   7.250   1.751  0.2177 -0.2852 -0.2839
54885OCT     C1 9769   7.225   2.351   9.320  0.1195  0.2648  0.0331
54885OCT     C2 9770   6.965   2.403   8.925  0.1096  0.0627 -0.1058
54886OCT     C1 9771  22.654  22.643   5.958  0.1343  0.0643 -0.1066
54886OCT     C2 9772  22.994  22.873   6.268  0.2818 -0.2467  0.0332
54887OCT     C1 9773  11.759  11.856   4.785  0.3682 -0.1810 -0.2378
54887OCT     C2 9774  11.997  12.220   4.678  0.0054  0.1279  0.3820
54888OCT     C1 9775  19.455   3.863  23.508 -0.2432 -0.0125  0.3298
54888OCT     C2 9776  19.442   4.113  23.150  0.1072  0.2638 -0.1633
54889OCT     C1 9777  22.783   4.380  18.553 -0.0875  0.0267  0.0668
54889OCT     C2 9778  22.431   4.461  18.262  0.0750 -0.1122  0.0188
54890OCT     C1 9779   3.253  22.905  14.266 -0.0569 -0.0919 -0.1011
54890OCT     C2 9780   3.621  23.068  14.208  0.0416  0.0620  0.0329
54891OCT     C1 9781  15.643   7.647   5.058  0.1839  0.1860 -0.1594
54891OCT     C2 9782  15.335   7.343   4.859 -0.2726  0.0414 -0.1118
54892OCT     C1 9783  11.855  22.599   0.627  0.1094  0.0887 -0.0939
54892OCT     C2 9784  11.558  22.576   1.012 -0.0330 -0.1650 -0.0856
54893OCT     C1 9785   4.309  23.637  10.580  0.3977  0.3106  0.5022
54893OCT     C2 9786   4.403  23.459  10.115  0.0003  0.0041  0.2464
54894OCT     C1 9787  20.095  18.093  16.056  0.0783  0.2996  0.1660
54894OCT     C2 9788  19.898  17.648  16.133 -0.3342  0.1044 -0.1637
54895OCT     C1 9789  10.344   5.362   5.129  0.0734  0.0870  0.0314
54895OCT     C2 9790  10.097   5.382   5.526  0.0303 -0.3413 -0.0377
54896OCT     C1 9791  13.880  15.935   3.556  0.3005 -0.2168  0.2892
54896OCT     C2 9792  14.187  16.030   3.209  0.1073 -0.3203 -0.0180
54897OCT     C1 9793  19.770   3.572   9.121 -0.0230 -0.2403 -0.0656
54897OCT     C2 9794  19.805   4.029   9.241  0.2708 -0.0391 -0.1431
54898OCT     C1 9795  14.660  16.177  13.895 -0.1430 -0.1050  0.0539
54898OCT     C2 9796  14.230  16.221  13.707  0.0998  0.1437  0.1161
54899OCT     C1 9797  12.307  19.639  11.619 -0.3857  0.2825 -0.4874
54899OCT     C2 9798  12.261  20.037  11.824 -0.2248 -0.1112 -0.0160
54900OCT     C1 9799  16.817  16.571  19.402 -0.0822  0.1043  0.1345
54900OCT     C2 9800  16.472  16.805  19.529  0.1039  0.1409  0.4007
54901OCT     C1 9801  17.406  12.972   0.741  0.0813 -0.1161  0.1118
54901OCT     C2 9802  17.152  12.584   0.585 -0.1989 -0.0226 -0.0453
54902OCT     C1 9803   5.391   8.807  10.133 -0.4594 -0.0672 -0.0991
54902OCT     C2 9804   5.757   8.995  10.378 -0.2949 -0.1395 -0.0039
54903OCT     C1 9805   6.289  17.985  22.679 -0.4073 -0.0128  0.0395
54903OCT     C2 9806   6.609  18.352  22.592 -0.2472 -0.1833  0.0809
54904OCT     C1 9807   8.495   8.596   7.922 -0.1510 -0.0852 -0.4881
54904OCT     C2 9808   8.975   8.504   7.917 -0.4839 -0.2492 -0.0123
54905OCT     C1 9809  14.598   8.066   6.756 -0.1737 -0.0115  0.3356
54905OCT     C2 9810  14.576   7.570   6.783 -0.1809 -0.2870  0.1086
54906OCT     C1 9811  16.577   2.421  22.470 -0.0861 -0.0631  0.2348
54906OCT     C2 9812  16.176   2.187  22.335  0.1172  0.3884 -0.0017
54907OCT     C1 9813  20.898  16.298  10.492  0.0991 -0.1169  0.0416
54907OCT     C2 9814  21.148  15.874  10.453 -0.1178  0.1248 -0.0766
54908OCT     C1 9815  14.815   4.364  22.670 -0.1973  0.2296 -0.0357
54908OCT     C2 9816  15.022   4.709  22.524 -0.1332 -0.0158 -0.2371
54909OCT     C1 9817   2.841  22.685   2.454 -0.0129  0.2481  0.1237
54909OCT     C2 9818   2.932  22.687   2.976 -0.1184 -0.0329  0.0831
54910OCT     C1 9819   8.265  13.262  14.362  0.1778 -0.0906 -0.1466
54910OCT     C2 9820   8.372  13.435  14.842 -0.1235  0.0581  0.2119
54911OCT     C1 9821  18.755  23.281  21.874 -0.1147 -0.2712  0.1114
54911OCT     C2 9822  18.314  23.476  21.762 -0.1032  0.1391 -0.2205
54912OCT     C1 9823  21.057   3.750  21.782 -0.0020 -0.0970  0.0985
54912OCT     C2 9824  21.465   3.651  21.882  0.0349 -0.2645 -0.2173
54913OCT     C1 9825  18.269  14.605  15.849 -0.0719 -0.0306  0.1988
54913OCT     C2 9826  17.977  14.442  15.473  0.1327 -0.1255  0.1360
54914OCT     C1 9827  10.718   2.540  16.008  0.2880  0.2092  0.1242
54914OCT     C2 9828  11.017   2.523  16.359 -0.0018 -0.0478 -0.0925
54915OCT     C1 9829   7.163   6.038   6.103  0.1833 -0.3347 -0.3837
54915OCT     C2 9830   6.887   5.683   5.941  0.1751 -0.0248  0.0482
54916OCT     C1 9831  13.952  11.231  23.106 -0.0957 -0.0345 -0.6799
54916OCT     C2 9832  13.907  11.625  23.357  0.0720 -0.3325 -0.0540
54917OCT     C1 9833   8.257   3.918   6.706  0.0786 -0.0137 -0.0199
54917OCT     C2 9834   8.460   4.110   6.338  0.0481  0.0243  0.4078
54918OCT     C1 9835  18.158  10.879   7.947 -0.1291  0.2368 -0.3061
54918OCT     C2 9836  17.914  11.133   7.607  0.2100  0.2921 -0.0848
54919OCT     C1 9837   0.192  22.907  22.099  0.2879 -0.3460  0.1876
54919OCT     C2 9838  23.704  22.575  21.855 -0.3249 -0.0307 -0.1342
54920OCT     C1 9839  19.009   8.191  20.505  0.1645 -0.2070 -0.0640
54920OCT     C2 9840  18.661   8.512  20.644 -0.0056  0.0839  0.6045
54921OCT     C1 9841  12.959  20.295   8.214  0.3011  0.2173 -0.0497
54921OCT     C2 9842  13.007  20.184   8.687  0.2984 -0.2106 -0.0829
54922OCT     C1 9843  22.367   7.794  15.669 -0.0182 -0.3000 -0.1884
54922OCT     C2 9844  22.756   7.809  15.420 -0.2639  0.0288 -0.1692
54923OCT     C1 9845  23.653  11.070  20.247 -0.0244 -0.0874 -0.0149
54923OCT     C2 9846  23.408  11.258  19.893 -0.1980 -0.0396  0.3789
54924OCT     C1 9847  15.791  21.881   1.069 -0.1489 -0.0105 -0.1276
54924OCT     C2 9848  15.755  22.346   1.277 -0.0525 -0.1613 -0.0318
54925OCT     C1 9849   0.301  23.478   0.500  0.2729  0.2423  0.1566
54925OCT     C2 9850   0.769  23.556   0.584  0.0769 -0.2917  0.0570
54926OCT     C1 9851  13.464   1.794  14.581 -0.2235 -0.1443  0.1419
54926OCT     C2 9852  13.086   1.581  14.362  0.0910  0.4424  0.0099
54927OCT     C1 9853  19.329  23.738   5.408  0.1233  0.0719 -0.0539
54927OCT     C2 9854  19.531  23.594   5.047  0.1709  0.3413  0.0922
54928OCT     C1 9855  21.950  18.223   9.900  0.4120  0.3596 -0.4051
54928OCT     C2 9856  21.815  18.510   9.545  0.2865  0.1953  0.3684
54929OCT     C1 9857  19.893   7.719  18.886 -0.1805  0.0480 -0.2836
54929OCT     C2 9858  19.910   7.498  19.238 -0.1258  0.0673  0.1418
54930OCT     C1 9859  16.081   2.905   3.520  0.2221  0.3650 -0.1233
54930OCT     C2 9860  15.763   2.692   3.254 -0.0906 -0.2870 -0.0473
54931OCT     C1 9861   4.806  15.790   2.417 -0.1318 -0.1589 -0.2005
54931OCT     C2 9862   4.929  15.383   2.507 -0.0967 -0.1107  0.3351
54932OCT     C1 9863   1.477  11.621   4.483  0.5066  0.0842 -0.2023
54932OCT     C2 9864   1.852  11.621   4.232  0.0269 -0.1386  0.3050
54933OCT     C1 9865   7.868  17.364  18.809  0.0337 -0.0540  0.3915
54933OCT     C2 9866   7.498  17.078  18.650 -0.4459  0.2058  0.0965
54934OCT     C1 9867  17.062  16.162  22.176  0.0874  0.0877  0.0483
54934OCT     C2 9868  16.639  16.276  22.227  0.2150  0.0137  0.1933
54935OCT     C1 9869   9.712  17.151  18.067  0.0529 -0.2761 -0.4803
54935OCT     C2 9870   9.938  17.384  17.680  0.1557  0.1360  0.0763
54936OCT     C1 9871   1.781  11.253  11.640  0.1464 -0.0135  0.2639
54936OCT     C2 9872   1.887  10.843  11.427 -0.6935  0.2154  0.3229
54937OCT     C1 9873   3.027  10.638  14.747 -0.2513  0.1789 -0.0977
54937OCT     C2 9874   3.064  10.161  14.917  0.1496  0.5266 -0.0266
54938OCT     C1 9875  19.253  22.221   8.702  0.0284 -0.3285  0.2390
54938OCT     C2 9876  19.433  22.339   8.234 -0.0979  0.2418  0.3870
54939OCT     C1 9877  23.112   6.526  18.481  0.2424 -0.1693 -0.2010
54939OCT     C2 9878  22.850   6.236  18.243  0.1857  0.0063  0.0041
54940OCT     C1 9879  17.815  23.314  11.956 -0.0062  0.2746  0.0617
54940OCT     C2 9880  17.684  23.558  11.571 -0.2581  0.1423  0.1631
54941OCT     C1 9881  17.400   0.658  14.163 -0.3640 -0.0952  0.4044
54941OCT     C2 9882  17.657   0.625  14.532 -0.0067 -0.1314 -0.1474
54942OCT     C1 9883   5.839  23.454   3.850  0.2907 -0.1450 -0.3202
54942OCT     C2 9884   6.116  23.082   3.947  0.2143 -0.0140  0.3060
54943OCT     C1 9885  20.152   4.273  17.949  0.1783 -0.1818  0.3806
54943OCT     C2 9886  19.865   4.556  17.784 -0.1145 -0.0155  0.0493
54944OCT     C1 9887  13.416  23.375  14.682  0.2646 -0.0297  0.2598
54944OCT     C2 9888  13.772  23.168  14.717 -0.2224  0.0079  0.1660
54945OCT     C1 9889   4.428  15.372   2.337  0.0408 -0.0430 -0.2918
54945OCT     C2 9890   4.017  15.515   2.539  0.0016  0.1230  0.2724
54946OCT     C1 9891   1.812  23.365   3.810  0.1935 -0.1121 -0.4040
54946OCT     C2 9892   1.954  23.614   4.153  0.1200 -0.2086  0.1300
54947OCT     C1 9893   7.397  13.349   5.476  0.3876 -0.0230 -0.1643
54947OCT     C2 9894   7.579  13.190   5.884 -0.0660  0.1060  0.1738
54948OCT     C1 9895  18.220   2.095   6.114  0.0336  0.1174 -0.0873
54948OCT     C2 9896  18.441   2.417   5.907  0.0464 -0.5425 -0.2845
54949OCT     C1 9897  21.238   0.623  13.692 -0.0433 -0.1574 -0.0313
54949OCT     C2 9898  20.995   0.973  13.863  0.1212  0.3929  0.1510
54950OCT     C1 9899  22.196  21.015   9.643  0.1115 -0.2608 -0.0496
54950OCT     C2 9900  21.893  20.855   9.894 -0.0040  0.0986  0.4052
54951OCT     C1 9901  12.593  14.772  17.734  0.2602 -0.3115 -0.0785
54951OCT     C2 9902  12.478  14.371  17.885  0.2464  0.1333  0.1926
54952OCT     C1 9903   6.344   6.532  22.684  0.5227  0.0235 -0.0321
54952OCT     C2 9904   5.903   6.616  22.807 -0.0251 -0.0742 -0.3184
54953OCT     C1 9905  16.617   7.862  11.049  0.0419 -0.2290 -0.0838
54953OCT     C2 9906  16.997   7.704  11.339  0.0780  0.3008 -0.1626
54954OCT     C1 9907   3.307   3.173   1.918  0.4588 -0.1584  0.3568
54954OCT     C2 9908   3.036   2.775   1.963 -0.1862  0.2203  0.1894
54955OCT     C1 9909  20.823  11.018  18.074 -0.2158 -0.1718  0.1563
54955OCT     C2 9910  20.631  11.429  18.251  0.1465  0.0245  0.3005
54956OCT     C1 9911   9.462  22.974  22.970  0.3443 -0.0931 -0.2710
54956OCT     C2 9912   9.561  23.045  22.506 -0.1251  0.0041  0.2449
54957OCT     C1 9913  15.460   8.149   7.055 -0.1860  0.2847 -0.1409
54957OCT     C2 9914  15.182   8.046   6.692 -0.0470  0.0827  0.4702
54958OCT     C1 9915  19.665   9.498  11.700 -0.1217 -0.0466 -0.1462
54958OCT     C2 9916  19.228   9.635  11.833 -0.0497 -0.0076 -0.2818
54959OCT     C1 9917  17.591  14.340   9.536  0.4938  0.3769 -0.2084
54959OCT     C2 9918  17.939  14.397   9.248 -0.1138 -0.4121 -0.0062
54960OCT     C1 9919  12.413   7.552  14.477  0.0442  0.1906  0.1485
54960OCT     C2 9920  12.219   7.151  14.644 -0.0744  0.2234  0.0015
54961OCT     C1 9921  11.076  15.053   9.347 -0.2448  0.1939  0.0663
54961OCT     C2 9922  11.205  14.608   9.372  0.5803  0.2225 -0.0819
54962OCT     C1 9923   1.018   8.111   1.253 -0.3169 -0.0970  0.0266
54962OCT     C2 9924   0.771   7.771   1.114  0.0309  0.2426  0.3430
54963OCT     C1 9925  21.277  16.877   0.981  0.1811 -0.0097  0.1624
54963OCT     C2 9926  21.426  16.502   0.980  0.1392 -0.1357 -0.0495
54964OCT     C1 9927  17.065   8.251  22.477  0.2420 -0.1164 -0.1710
54964OCT     C2 9928  16.909   7.942  22.143  0.5707  0.3379  0.2030
54965OCT     C1 9929  17.562   0.484  11.976  0.1211 -0.3525 -0.3668
54965OCT     C2 9930  17.865   0.469  11.667  0.0772 -0.0753  0.1041
54966OCT     C1 9931   3.166   7.627   5.876  0.1231 -0.1075  0.3093
54966OCT     C2 9932   3.263   7.167   5.835 -0.1526  0.0491 -0.1027
54967OCT     C1 9933  10.856   9.388   9.814 -0.3705 -0.0823 -0.5837
54967OCT     C2 9934  10.962   9.715   9.580 -0.3744 -0.4834 -0.0298
54968OCT     C1 9935  13.371   7.402   0.331 -0.1424 -0.0286  0.0484
54968OCT     C2 9936  13.527   7.246  23.664 -0.0045 -0.0491  0.1263
54969OCT     C1 9937  21.079   6.660   6.057  0.0404 -0.1418 -0.2525
54969OCT     C2 9938  20.749   6.710   6.377  0.3394 -0.0088  0.0281
54970OCT     C1 9939   7.362   6.980  18.487  0.0138  0.0605  0.0467
54970OCT     C2 9940   7.464   6.654  18.855  0.0768  0.4046 -0.1010
54971OCT     C1 9941  11.497   4.187  14.125  0.3510  0.0348  0.0399
54971OCT     C2 9942  11.036   4.274  14.072 -0.0346  0.0111 -0.2961
54972OCT     C1 9943   7.329  21.654   6.418 -0.3737  0.0612  0.4593
54972OCT     C2 9944   7.509  21.238   6.532  0.0803  0.0248  0.2922
54973OCT     C1 9945  11.930  13.079  22.404  0.1904 -0.0368  0.0664
54973OCT     C2 9946  12.271  13.026  22.033  0.0371 -0.4235 -0.0537
54974OCT     C1 9947  14.862  14.493   5.773  0.2249 -0.1945 -0.0536
54974OCT     C2 9948  15.197  14.191   5.904  0.1266 -0.1468  0.1664
54975OCT     C1 9949  10.573   7.453  12.420  0.1286 -0.0462  0.1268
54975OCT     C2 9950  11.000   7.278  12.473 -0.0088 -0.0727 -0.1740
54976OCT     C1 9951  11.161   2.342   3.574  0.0063  0.0030 -0.1044
54976OCT     C2 9952  11.383   2.205   3.185 -0.2969 -0.1204 -0.1624
54977OCT     C1 9953   6.013  20.291  12.097  0.5182 -0.3410  0.4054
54977OCT     C2 9954   5.993  20.253  11.590 -0.0126  0.3725 -0.0682
54978OCT     C1 9955   9.907  22.369  17.817  0.0919 -0.0884 -0.4773
54978OCT     C2 9956   9.837  22.265  17.336 -0.2028  0.0463  0.0028
54979OCT     C1 9957   5.398  15.967   2.563 -0.1258 -0.1278  0.0293
54979OCT     C2 9958   5.176  16.064   2.150 -0.0495  0.1232  0.0916
54980OCT     C1 9959   7.188  18.425   0.148 -0.1299  0.0281 -0.0117
54980OCT     C2 9960   6.755  18.513   0.270 -0.1876  0.0855 -0.0777
54981OCT     C1 9961   4.989  12.630  12.773  0.3690 -0.1781 -0.1053
54981OCT     C2 9962   4.863  12.800  13.188  0.1600 -0.2078 -0.1319
54982OCT     C1 9963   7.350  23.385   3.412  0.2540 -0.0180  0.3105
54982OCT     C2 9964   7.747  23.271   3.222  0.3576  0.0729  0.1826
54983OCT     C1 9965   3.659  21.432   7.257  0.0590  0.1659 -0.0497
54983OCT     C2 9966   3.548  21.335   7.657  0.0141 -0.0129  0.0012
54984OCT     C1 9967   1.796  14.674  15.998  0.0200  0.1194  0.1977
54984OCT     C2 9968   2.247  14.675  16.153 -0.2235 -0.0001 -0.1988
54985OCT     C1 9969  18.157   8.096  11.777  0.1638  0.1308  0.0708
54985OCT     C2 9970  18.552   7.833  11.802  0.2078 -0.0430 -0.4809
54986OCT     C1 9971   3.522  12.848   5.301 -0.1369  0.0392  0.4287
54986OCT     C2 9972   3.174  12.627   5.079  0.0609 -0.2432  0.2342
54987OCT     C1 9973  13.423   1.229   8.800 -0.3185 -0.1586  0.0625
54987OCT     C2 9974  13.037   1.018   8.933 -0.1135 -0.2497 -0.0451
54988OCT     C1 9975   7.595  13.642  22.566  0.1344 -0.1414 -0.0587
54988OCT     C2 9976   7.361  13.763  22.922 -0.0805 -0.1426  0.1519
54989OCT     C1 9977   0.686  16.102  14.336 -0.0250  0.2292  0.0327
54989OCT     C2 9978   0.329  16.122  14.611 -0.3416 -0.0576  0.0093
54990OCT     C1 9979   8.663  18.715   8.722 -0.1277 -0.1344  0.0193
54990OCT     C2 9980   8.961  18.355   8.656 -0.0514  0.2641  0.0668
54991OCT     C1 9981  19.565   1.182  17.772  0.2788 -0.0454  0.0507
54991OCT     C2 9982  19.785   1.607  17.754 -0.1923  0.1141 -0.1804
54992OCT     C1 9983  10.927  12.685   0.272  0.0171  0.2667 -0.1002
54992OCT     C2 9984  10.969  12.247   0.077 -0.0862  0.3718  0.0908
54993OCT     C1 9985   7.167  19.260  11.586  0.1364  0.0209  0.2926
54993OCT     C2 9986   6.810  19.142  11.287 -0.0325 -0.1763 -0.0733
54994OCT     C1 9987   6.308   6.790  23.599 -0.2295  0.1591 -0.1756
54994OCT     C2 9988   6.007   6.967   0.199 -0.2872  0.0738  0.0671
54995OCT     C1 9989   3.282   8.800   0.179  0.0619 -0.2362 -0.3408
54995OCT     C2 9990   3.497   9.148   0.498  0.1183 -0.1843  0.0069
54996OCT     C1 9991  13.986   0.910  16.438  0.2505  0.0736 -0.0711
54996OCT     C2 9992  13.969   1.355  16.375 -0.1126 -0.1922  0.0583
54997OCT     C1 9993  21.651  19.074   0.500 -0.2387 -0.0247 -0.0330
54997OCT     C2 9994  21.721  19.385   0.142  0.0144 -0.2448 -0.0004
54998OCT     C1 9995   2.686  17.386  20.015  0.1976 -0.0009 -0.6497
54998OCT     C2 9996   2.310  17.328  20.326 -0.2952  0.1739  0.1832
54999OCT     C1 9997  14.605   4.126   6.693  0.3889 -0.1601 -0.0532
54999OCT     C2 9998  14.492   4.450   6.393 -0.1807 -0.1192  0.0253
55000OCT     C1 9999  22.673   9.664   8.650 -0.1361  0.0321 -0.1813
55000OCT     C210000  22.421   9.748   9.001 -0.2247 -0.0043  0.2872
  23.74132  23.74132  23.74132
